Title
81404
    1CHL1    C3    1   3.468   3.890   9.149  0.3057 -0.4819 -0.2503
    1CHL1    H3    2   3.471   4.000   9.140 -0.7753 -0.3498  0.7091
    1CHL1    O3    3   3.484   3.856   9.287  0.8499 -0.2438 -0.6976
    1CHL1   H3'    4   3.572   3.880   9.315  0.6315 -0.6673  0.3836
    1CHL1    C4    5   3.330   3.862   9.099  0.3554 -0.3711 -0.3367
    1CHL1   H4A    6   3.301   3.763   9.140 -2.1223  0.2151 -0.4917
    1CHL1   H4B    7   3.259   3.923   9.158  1.2685 -1.5866  2.1429
    1CHL1    C5    8   3.304   3.865   8.953  0.2982  0.8930 -0.0921
    1CHL1    C6    9   3.195   3.923   8.902  0.2632  0.4336 -0.2578
    1CHL1    H6   10   3.125   3.979   8.965 -0.9482 -0.3030 -0.9012
    1CHL1    C7   11   3.155   3.905   8.758 -0.4197  0.5527  0.2386
    1CHL1   H7A   12   3.048   3.876   8.756 -0.2688 -0.1854  1.4866
    1CHL1   H7B   13   3.175   4.001   8.705  0.9078 -0.4404 -1.1123
    1CHL1    C8   14   3.233   3.794   8.687 -0.2488 -0.3138  0.2930
    1CHL1    H8   15   3.196   3.694   8.719 -1.1830  0.2280  0.9460
    1CHL1   C14   16   3.216   3.810   8.532  0.3700  0.2347  0.7349
    1CHL1   H14   17   3.260   3.909   8.507 -0.6749 -0.0878 -3.1238
    1CHL1   C15   18   3.063   3.811   8.488 -0.1728 -0.3890  0.2514
    1CHL1  H15A   19   3.013   3.721   8.529  0.5399  0.1891  2.5402
    1CHL1  H15B   20   3.012   3.905   8.518  0.1702 -0.9063  2.7112
    1CHL1   C16   21   3.075   3.793   8.336  0.2309 -0.0856  0.7252
    1CHL1  H16A   22   2.990   3.733   8.297  0.2991 -0.8127  1.6676
    1CHL1  H16B   23   3.071   3.894   8.290  1.2763 -0.8047 -1.0224
    1CHL1   C17   24   3.222   3.750   8.305  0.6401 -0.0955 -0.1343
    1CHL1   H17   25   3.280   3.837   8.267 -1.2304  0.0974 -2.8202
    1CHL1   C13   26   3.283   3.702   8.445 -0.4456  0.0256 -0.0108
    1CHL1   C18   27   3.232   3.566   8.481  0.0879  0.8068  0.2027
    1CHL1  H18A   28   3.260   3.525   8.580  1.0741 -0.2453 -0.4782
    1CHL1  H18B   29   3.123   3.558   8.464  0.2747 -0.9490 -0.4150
    1CHL1  H18C   30   3.283   3.497   8.410  1.0698  1.9764 -0.2776
    1CHL1   C12   31   3.428   3.725   8.474 -0.1918  0.0640  0.3259
    1CHL1  H12A   32   3.499   3.658   8.421 -1.3176 -0.5363 -0.4828
    1CHL1  H12B   33   3.460   3.826   8.440  3.1228 -1.1920 -0.6755
    1CHL1   C11   34   3.466   3.705   8.621 -0.3524 -0.2400 -0.0876
    1CHL1  H11A   35   3.463   3.602   8.662  0.2233 -0.4606 -0.5977
    1CHL1  H11B   36   3.567   3.748   8.634 -0.0194 -0.7544 -0.9112
    1CHL1    C9   37   3.383   3.795   8.723 -0.8678  0.4971 -0.1452
    1CHL1    H9   38   3.417   3.899   8.701  1.2584 -0.1835 -0.3306
    1CHL1   C10   39   3.413   3.782   8.873  0.5809  0.5631  0.1714
    1CHL1   C19   40   3.403   3.638   8.916 -1.0559 -0.1033  0.3098
    1CHL1  H19A   41   3.488   3.568   8.898 -0.1128  1.0070  0.2954
    1CHL1  H19B   42   3.411   3.635   9.026  1.1527 -1.2927  0.1842
    1CHL1  H19C   43   3.319   3.590   8.862  0.3059 -1.2627 -0.8551
    1CHL1    C1   44   3.545   3.854   8.908  0.1177  0.1306 -0.4798
    1CHL1   H1A   45   3.626   3.818   8.840  0.5467  0.2900 -0.0635
    1CHL1   H1B   46   3.538   3.964   8.893 -1.4853  0.0718 -0.2474
    1CHL1    C2   47   3.592   3.837   9.062  0.5321 -0.1887 -0.2974
    1CHL1   H2A   48   3.675   3.904   9.096  0.1987 -0.5848  1.3624
    1CHL1   H2B   49   3.613   3.731   9.088  0.1519  0.0136  0.8742
    1CHL1   C20   50   3.220   3.644   8.188 -0.9775 -0.2548 -0.1686
    1CHL1   H20   51   3.165   3.559   8.233 -0.5157 -0.2577  0.4107
    1CHL1   C21   52   3.367   3.615   8.165  0.0025 -0.4658  0.4062
    1CHL1  H21A   53   3.413   3.703   8.117 -0.8412  0.3982  1.1162
    1CHL1  H21B   54   3.368   3.535   8.089 -2.1972  2.2624 -2.7903
    1CHL1  H21C   55   3.421   3.583   8.257 -0.1557  0.0350  0.6801
    1CHL1   C22   56   3.151   3.690   8.065  0.3871 -0.3229  0.4733
    1CHL1  H22A   57   3.056   3.746   8.083 -0.1678 -0.9265 -0.4742
    1CHL1  H22B   58   3.219   3.764   8.017 -0.7926 -1.6254 -3.6432
    1CHL1   C23   59   3.109   3.578   7.968 -0.8451  0.3452  0.2165
    1CHL1  H23A   60   3.205   3.533   7.934  0.4860  1.6730  1.9730
    1CHL1  H23B   61   3.052   3.503   8.025  0.4951 -1.7629 -1.0771
    1CHL1   C24   62   3.032   3.617   7.841 -0.5157  0.2637 -0.1661
    1CHL1  H24A   63   2.973   3.531   7.803 -1.1015  1.1151 -1.2465
    1CHL1  H24B   64   2.952   3.682   7.882  0.7841 -0.2935  3.6183
    1CHL1   C25   65   3.120   3.682   7.734 -0.4994 -0.5197  0.0008
    1CHL1   H25   66   3.197   3.744   7.786 -0.6455 -0.3880  0.0605
    1CHL1   C26   67   3.179   3.579   7.645 -0.0927  0.9741  0.0084
    1CHL1  H26A   68   3.253   3.513   7.695  1.9778 -0.0613 -3.9963
    1CHL1  H26B   69   3.095   3.516   7.608  1.0089 -0.1040 -0.7358
    1CHL1  H26C   70   3.223   3.625   7.554  1.2263 -0.0749  0.0974
    1CHL1   C27   71   3.033   3.779   7.650 -0.0432  0.0781  0.2078
    1CHL1  H27A   72   3.077   3.794   7.549 -1.4520 -0.8743 -0.5894
    1CHL1  H27B   73   2.934   3.731   7.635 -0.0075  0.2704 -0.7308
    1CHL1  H27C   74   3.031   3.874   7.708  4.0893 -1.4298  3.3638
    2CHL1    C3   75   3.080   2.556   9.184  0.5320 -0.1893 -0.4222
    2CHL1    H3   76   2.981   2.553   9.133  0.5570  0.7153 -0.5456
    2CHL1    O3   77   3.053   2.543   9.320 -0.0152 -0.0116  0.1975
    2CHL1   H3'   78   2.991   2.606   9.356 -0.8614 -0.8037  0.1561
    2CHL1    C4   79   3.159   2.439   9.129  0.3747 -0.2133  0.5729
    2CHL1   H4A   80   3.255   2.446   9.184  0.3521  1.5353  0.4706
    2CHL1   H4B   81   3.106   2.344   9.149 -3.1566  1.7072  1.2422
    2CHL1    C5   82   3.193   2.465   8.982  0.0810 -0.4176  0.6580
    2CHL1    C6   83   3.160   2.377   8.890 -1.0853  0.8364 -0.3284
    2CHL1    H6   84   3.111   2.292   8.940 -1.3990  2.0813  1.5914
    2CHL1    C7   85   3.191   2.377   8.743  0.3882  0.2042  0.0527
    2CHL1   H7A   86   3.245   2.284   8.715  1.3946  0.5091  0.9186
    2CHL1   H7B   87   3.090   2.390   8.697  0.9955  3.1358 -0.7135
    2CHL1    C8   88   3.290   2.491   8.712  0.2449 -0.2733  0.2163
    2CHL1    H8   89   3.391   2.463   8.750  0.7916  0.9241 -0.2789
    2CHL1   C14   90   3.282   2.510   8.564  0.1310 -0.3426  0.6698
    2CHL1   H14   91   3.180   2.549   8.543  0.2267  0.4266  1.5612
    2CHL1   C15   92   3.315   2.388   8.474 -0.4574 -0.7049  0.1586
    2CHL1  H15A   93   3.398   2.330   8.520  1.6499  2.3990  0.5052
    2CHL1  H15B   94   3.224   2.325   8.461 -1.5801  1.1980 -1.9423
    2CHL1   C16   95   3.351   2.450   8.339 -0.0792  0.6703 -0.5992
    2CHL1  H16A   96   3.456   2.420   8.318 -0.3021  0.0702 -0.8855
    2CHL1  H16B   97   3.291   2.416   8.252 -2.3669  0.4518  0.9555
    2CHL1   C17   98   3.340   2.607   8.358 -0.5777 -0.8717  0.3411
    2CHL1   H17   99   3.234   2.635   8.337  0.3720  1.9207 -1.3356
    2CHL1   C13  100   3.360   2.629   8.511  0.2912 -0.5114  0.4329
    2CHL1   C18  101   3.512   2.604   8.541 -0.3218  0.2524  0.8217
    2CHL1  H18A  102   3.532   2.589   8.649  1.5751  1.2031  0.6352
    2CHL1  H18B  103   3.554   2.513   8.494 -1.2478 -0.9376  2.2271
    2CHL1  H18C  104   3.563   2.697   8.508 -0.8228  0.5225  0.7841
    2CHL1   C12  105   3.312   2.760   8.581  0.1167 -0.1296  0.4277
    2CHL1  H12A  106   3.377   2.844   8.549  0.5069 -1.3696 -2.3253
    2CHL1  H12B  107   3.210   2.775   8.540 -0.1249 -0.0437  1.0503
    2CHL1   C11  108   3.307   2.752   8.734 -0.1295  0.6286  0.9326
    2CHL1  H11A  109   3.413   2.764   8.765 -0.3206 -0.8091  2.2810
    2CHL1  H11B  110   3.257   2.837   8.784  0.4755  1.6267 -0.1244
    2CHL1    C9  111   3.251   2.618   8.794  0.0587 -0.5254  0.1881
    2CHL1    H9  112   3.145   2.633   8.767  0.0433 -1.4640 -0.3085
    2CHL1   C10  113   3.261   2.597   8.945 -0.2080 -0.0113  0.4537
    2CHL1   C19  114   3.405   2.599   8.995 -0.4364  1.2869  0.5500
    2CHL1  H19A  115   3.475   2.540   8.931 -0.8526  0.8051  0.5310
    2CHL1  H19B  116   3.440   2.704   9.001 -0.3843  1.3475 -0.6372
    2CHL1  H19C  117   3.419   2.557   9.097 -1.5849  1.1049  0.6439
    2CHL1    C1  118   3.183   2.713   9.006  0.2239 -0.0193 -0.1445
    2CHL1   H1A  119   3.242   2.807   8.994  0.5897 -0.1133  0.8122
    2CHL1   H1B  120   3.097   2.735   8.940  0.4434 -1.6727 -1.0178
    2CHL1    C2  121   3.151   2.688   9.150 -0.1568  0.3116 -1.0209
    2CHL1   H2A  122   3.096   2.776   9.190 -0.2478 -0.6142  1.0231
    2CHL1   H2B  123   3.250   2.667   9.195  0.3713 -1.4320 -2.8358
    2CHL1   C20  124   3.431   2.682   8.254  0.8201  0.7363  0.5105
    2CHL1   H20  125   3.536   2.673   8.287  0.9084 -1.0622 -0.1598
    2CHL1   C21  126   3.395   2.828   8.248  0.8583 -0.2468  0.6395
    2CHL1  H21A  127   3.399   2.877   8.348 -1.9488 -1.1175  1.2651
    2CHL1  H21B  128   3.294   2.848   8.206  1.7108 -1.4355 -2.2358
    2CHL1  H21C  129   3.474   2.873   8.184 -0.1158 -1.3074 -1.3958
    2CHL1   C22  130   3.427   2.612   8.117  0.0061  0.3339  0.0310
    2CHL1  H22A  131   3.482   2.516   8.121 -0.5192 -0.3075 -4.0918
    2CHL1  H22B  132   3.322   2.594   8.086 -0.1814  0.5918  0.5034
    2CHL1   C23  133   3.519   2.686   8.016 -0.1341 -0.4014 -0.5830
    2CHL1  H23A  134   3.465   2.772   7.971  1.5619 -0.9085 -3.9546
    2CHL1  H23B  135   3.613   2.725   8.062 -0.1649 -0.0305 -0.8246
    2CHL1   C24  136   3.548   2.602   7.896  0.0105 -0.2878 -0.7211
    2CHL1  H24A  137   3.594   2.513   7.944 -2.7600 -0.0448  2.8693
    2CHL1  H24B  138   3.457   2.561   7.846 -0.7793  0.4427  0.0781
    2CHL1   C25  139   3.639   2.676   7.798 -0.5824 -0.2015 -0.7195
    2CHL1   H25  140   3.697   2.755   7.851  0.3305 -0.1567 -1.7606
    2CHL1   C26  141   3.740   2.580   7.731  0.3047 -0.4902  0.2514
    2CHL1  H26A  142   3.781   2.512   7.808 -2.5375  0.7267  3.0637
    2CHL1  H26B  143   3.681   2.523   7.656  1.5918  1.8547 -2.8122
    2CHL1  H26C  144   3.819   2.629   7.669 -0.6798  2.2214  0.9847
    2CHL1   C27  145   3.567   2.770   7.691  0.3390  0.1410 -0.0926
    2CHL1  H27A  146   3.506   2.844   7.747  1.2993  0.2333  0.8615
    2CHL1  H27B  147   3.630   2.826   7.619 -2.0466  0.1391 -2.3548
    2CHL1  H27C  148   3.499   2.706   7.631 -0.0780 -0.0209  0.5487
    3CHL1    C3  149   5.265   2.979   9.354 -0.2544 -0.0858 -0.1974
    3CHL1    H3  150   5.273   2.871   9.381  0.9412  0.2866  1.0611
    3CHL1    O3  151   5.302   3.047   9.474 -0.3269 -0.1882 -0.6739
    3CHL1   H3'  152   5.349   3.128   9.452  1.7039 -0.4578  2.1255
    3CHL1    C4  153   5.372   3.009   9.249  0.7548  0.1111  0.1811
    3CHL1   H4A  154   5.386   3.119   9.255 -0.3694  0.2198  1.1347
    3CHL1   H4B  155   5.471   2.967   9.280  0.0898 -0.0616  2.1832
    3CHL1    C5  156   5.340   2.965   9.109  0.4549  0.0341  0.3176
    3CHL1    C6  157   5.415   2.893   9.032 -0.2081  0.2137 -0.2526
    3CHL1    H6  158   5.510   2.865   9.080 -1.0916 -2.4369  0.1414
    3CHL1    C7  159   5.383   2.853   8.890 -0.5980 -0.3543 -0.1528
    3CHL1   H7A  160   5.469   2.857   8.820 -1.7122  0.0370 -1.5458
    3CHL1   H7B  161   5.350   2.748   8.904 -1.6868  0.1059  0.9901
    3CHL1    C8  162   5.268   2.938   8.821  1.2649  0.8416  0.3560
    3CHL1    H8  163   5.322   3.031   8.793  2.2266 -0.0484 -0.8699
    3CHL1   C14  164   5.214   2.872   8.691 -1.1133 -0.4482  0.5192
    3CHL1   H14  165   5.177   2.772   8.721 -2.5111  0.6460  2.6987
    3CHL1   C15  166   5.316   2.851   8.582  0.0946 -0.1427 -0.0968
    3CHL1  H15A  167   5.371   2.945   8.559 -2.3703  0.8568 -2.5574
    3CHL1  H15B  168   5.392   2.774   8.603 -0.4140 -0.0374  2.3947
    3CHL1   C16  169   5.213   2.814   8.470 -0.4519 -0.0037  0.1516
    3CHL1  H16A  170   5.245   2.860   8.374  0.6565  0.8212  0.8901
    3CHL1  H16B  171   5.219   2.705   8.452 -0.8713 -0.1128  0.6643
    3CHL1   C17  172   5.071   2.861   8.512 -0.2889  0.1255  0.3646
    3CHL1   H17  173   5.019   2.775   8.559 -1.0213 -0.6689 -1.7610
    3CHL1   C13  174   5.097   2.952   8.636 -0.1010 -0.1266 -0.2041
    3CHL1   C18  175   5.140   3.096   8.599  0.0927 -0.4905 -0.4314
    3CHL1  H18A  176   5.174   3.155   8.687  0.0653 -2.6447  1.1233
    3CHL1  H18B  177   5.218   3.086   8.520  0.5554 -0.6312  0.0324
    3CHL1  H18C  178   5.048   3.146   8.562  0.6555  0.2345 -0.8821
    3CHL1   C12  179   4.979   2.961   8.737 -0.5296  0.5060 -0.1724
    3CHL1  H12A  180   4.896   3.023   8.697 -0.2657  1.3840  0.5929
    3CHL1  H12B  181   4.946   2.856   8.751  0.6189  0.3761  2.2122
    3CHL1   C11  182   5.030   3.018   8.871 -0.4333  0.2178 -0.1173
    3CHL1  H11A  183   5.043   3.125   8.844  0.0505 -0.3368 -2.2897
    3CHL1  H11B  184   4.950   3.010   8.948  0.2272  0.6298  0.6204
    3CHL1    C9  185   5.158   2.954   8.930  0.5554 -0.3656  0.6669
    3CHL1    H9  186   5.124   2.851   8.951 -0.6020 -0.2881 -0.6746
    3CHL1   C10  187   5.206   3.016   9.063 -0.2785 -0.1485  0.2027
    3CHL1   C19  188   5.198   3.175   9.043 -0.1948 -0.1091  0.2850
    3CHL1  H19A  189   5.092   3.205   9.058 -0.1990  0.7682 -1.3458
    3CHL1  H19B  190   5.263   3.227   9.116 -2.0180  0.9949  1.2031
    3CHL1  H19C  191   5.221   3.199   8.937 -3.0033  1.0688 -0.1431
    3CHL1    C1  192   5.097   2.964   9.165 -0.1469 -0.7085  0.4366
    3CHL1   H1A  193   5.001   3.014   9.141 -1.0716 -2.4042  0.4586
    3CHL1   H1B  194   5.077   2.855   9.162 -1.5561 -0.4399 -0.6718
    3CHL1    C2  195   5.124   3.018   9.309 -0.0032  0.7106  0.1249
    3CHL1   H2A  196   5.053   2.966   9.376  2.0929 -0.0356  1.8889
    3CHL1   H2B  197   5.110   3.128   9.302 -1.1780  0.6205  0.8960
    3CHL1   C20  198   4.968   2.903   8.407  0.1987 -0.2775 -0.3756
    3CHL1   H20  199   4.877   2.943   8.457  0.1098  1.3439 -1.7372
    3CHL1   C21  200   4.909   2.776   8.342 -0.2088  0.3990 -0.2351
    3CHL1  H21A  201   4.876   2.711   8.426 -0.2897  1.9151  0.9564
    3CHL1  H21B  202   4.985   2.716   8.287 -2.3877 -0.3109 -2.6989
    3CHL1  H21C  203   4.820   2.791   8.277 -0.4326 -2.7819 -0.8482
    3CHL1   C22  204   5.017   3.005   8.301  0.2198  0.0512  0.3785
    3CHL1  H22A  205   5.019   3.100   8.359  1.5829  0.9430 -1.0643
    3CHL1  H22B  206   5.121   2.986   8.267  0.7044  1.5512  0.9457
    3CHL1   C23  207   4.927   3.014   8.182  0.8718  0.6243 -0.1231
    3CHL1  H23A  208   4.914   2.911   8.141 -1.2037  0.5665  0.5962
    3CHL1  H23B  209   4.831   3.050   8.224  1.1820  0.1461  1.0190
    3CHL1   C24  210   4.984   3.101   8.066 -0.5464  0.0989 -0.2785
    3CHL1  H24A  211   5.018   3.191   8.122  1.7645 -0.2178 -1.0576
    3CHL1  H24B  212   5.076   3.061   8.017  0.1640 -0.3527  1.3314
    3CHL1   C25  213   4.880   3.150   7.963  1.2991  0.3457  0.8141
    3CHL1   H25  214   4.928   3.220   7.891  1.2450 -0.2114  0.2241
    3CHL1   C26  215   4.829   3.027   7.880 -0.3566 -1.1272  0.0534
    3CHL1  H26A  216   4.748   3.059   7.812 -0.5338 -0.4759  0.5670
    3CHL1  H26B  217   4.913   2.981   7.823  0.6901 -0.4452  1.0069
    3CHL1  H26C  218   4.796   2.950   7.953 -0.5737 -1.7080 -0.6484
    3CHL1   C27  219   4.775   3.237   8.029 -0.5952 -0.2336 -0.7279
    3CHL1  H27A  220   4.829   3.319   8.080 -1.2167  0.2453 -0.8167
    3CHL1  H27B  221   4.713   3.278   7.946 -0.3381 -0.3708 -0.9899
    3CHL1  H27C  222   4.712   3.179   8.100  0.0416 -1.3436 -1.0608
    4CHL1    C3  223   4.820   3.594   9.285 -0.1282  0.2957 -0.4816
    4CHL1    H3  224   4.788   3.493   9.251  0.3864  0.0188 -0.1460
    4CHL1    O3  225   4.796   3.617   9.422  0.1681  0.0272  0.1016
    4CHL1   H3'  226   4.850   3.557   9.474 -2.5018 -0.8304  2.1344
    4CHL1    C4  227   4.971   3.606   9.248 -0.7069 -0.0793 -0.5113
    4CHL1   H4A  228   5.002   3.709   9.277 -2.3040  0.9420 -2.2311
    4CHL1   H4B  229   5.030   3.544   9.320 -0.7793 -0.4867 -0.7987
    4CHL1    C5  230   4.991   3.579   9.098 -0.4843 -0.2060  0.2253
    4CHL1    C6  231   5.086   3.495   9.050  0.1082  0.4028  0.0105
    4CHL1    H6  232   5.155   3.471   9.133 -3.6383 -1.2834  2.9753
    4CHL1    C7  233   5.122   3.476   8.909  0.2869 -0.3744  0.0450
    4CHL1   H7A  234   5.232   3.480   8.895  0.6286 -0.5451  2.3392
    4CHL1   H7B  235   5.089   3.375   8.879  0.2649 -0.0535 -1.0441
    4CHL1    C8  236   5.046   3.572   8.814  0.3139 -0.9293 -0.0949
    4CHL1    H8  237   5.104   3.667   8.807  3.1091 -2.6404 -2.2439
    4CHL1   C14  238   5.052   3.521   8.668 -0.5780 -0.8703 -1.1601
    4CHL1   H14  239   4.998   3.425   8.657 -0.0432 -1.3575  0.3531
    4CHL1   C15  240   5.186   3.488   8.599 -0.7868  0.1735  0.4786
    4CHL1  H15A  241   5.258   3.566   8.629 -1.2787  0.4139  1.0510
    4CHL1  H15B  242   5.213   3.383   8.624  1.7347  0.2817 -1.3988
    4CHL1   C16  243   5.147   3.493   8.446 -0.0689  0.1913  0.3833
    4CHL1  H16A  244   5.215   3.566   8.397  2.4010 -1.2921  1.4203
    4CHL1  H16B  245   5.157   3.392   8.401  0.1509  1.1161 -1.7574
    4CHL1   C17  246   5.001   3.538   8.432  0.3050  0.8445  0.4522
    4CHL1   H17  247   4.944   3.443   8.424  1.2365  0.2347  0.8522
    4CHL1   C13  248   4.975   3.616   8.571 -0.2009 -0.2152 -0.1644
    4CHL1   C18  249   5.057   3.750   8.553  0.4459 -0.0655  0.2204
    4CHL1  H18A  250   4.995   3.815   8.488 -0.7586 -0.6040  0.7952
    4CHL1  H18B  251   5.070   3.793   8.655  0.1197  1.4234 -0.3402
    4CHL1  H18C  252   5.161   3.731   8.519  0.3878 -1.1091  0.5798
    4CHL1   C12  253   4.830   3.629   8.625 -0.2892  0.1096 -0.8974
    4CHL1  H12A  254   4.767   3.694   8.561 -2.2726 -1.8000 -1.0153
    4CHL1  H12B  255   4.767   3.538   8.616 -0.8274  0.1677  1.5473
    4CHL1   C11  256   4.826   3.689   8.766 -0.4713 -0.6004 -0.0494
    4CHL1  H11A  257   4.871   3.791   8.762 -1.6745 -0.0901 -2.1594
    4CHL1  H11B  258   4.724   3.703   8.805  0.1715  1.7771  0.9280
    4CHL1    C9  259   4.905   3.608   8.862 -0.3790 -0.0249 -0.1442
    4CHL1    H9  260   4.851   3.511   8.872  0.8933 -0.6628  0.8108
    4CHL1   C10  261   4.893   3.659   9.007  0.3506 -0.8394 -0.2928
    4CHL1   C19  262   4.939   3.810   9.016  0.3295  0.8622 -0.1197
    4CHL1  H19A  263   4.856   3.874   8.978 -2.3352 -1.9297  0.5850
    4CHL1  H19B  264   4.966   3.843   9.118  1.6805  0.6021 -0.3753
    4CHL1  H19C  265   5.031   3.816   8.954  0.8787  2.2531  0.7756
    4CHL1    C1  266   4.743   3.658   9.062  0.4991 -0.5521  0.5795
    4CHL1   H1A  267   4.686   3.737   9.008  0.1142 -0.9534  0.3937
    4CHL1   H1B  268   4.700   3.558   9.039  0.6923 -0.9833  2.0129
    4CHL1    C2  269   4.732   3.687   9.210 -0.1079 -0.8723  0.6952
    4CHL1   H2A  270   4.629   3.684   9.252 -1.0570 -1.3993 -1.4848
    4CHL1   H2B  271   4.769   3.790   9.224 -0.0754 -0.8676  0.5785
    4CHL1   C20  272   4.969   3.614   8.304 -0.2025  0.0017  0.1070
    4CHL1   H20  273   5.007   3.718   8.309 -1.5261  0.5277 -0.5511
    4CHL1   C21  274   4.823   3.622   8.286  0.6502 -0.0234 -0.1139
    4CHL1  H21A  275   4.775   3.673   8.372 -0.4302  1.4119 -1.4985
    4CHL1  H21B  276   4.773   3.524   8.278  2.1954 -0.8586 -0.0127
    4CHL1  H21C  277   4.794   3.679   8.194 -0.5230  0.4909  0.5596
    4CHL1   C22  278   5.040   3.533   8.187  0.0286 -0.4216  1.1167
    4CHL1  H22A  279   5.150   3.549   8.178 -0.0237 -0.7257 -0.3809
    4CHL1  H22B  280   5.021   3.426   8.205  0.3560 -0.6661  0.1052
    4CHL1   C23  281   4.986   3.577   8.042 -0.6020  0.7527 -0.2596
    4CHL1  H23A  282   4.882   3.539   8.033 -0.9137  1.0553  1.6757
    4CHL1  H23B  283   4.984   3.688   8.048  0.6328  0.6913  2.1712
    4CHL1   C24  284   5.074   3.529   7.923  0.4623  0.0562 -0.6375
    4CHL1  H24A  285   5.178   3.557   7.947  1.0779 -1.9650 -0.7401
    4CHL1  H24B  286   5.057   3.419   7.919 -1.5415 -0.0150  3.5583
    4CHL1   C25  287   5.031   3.580   7.795  1.1619 -0.4136  0.1693
    4CHL1   H25  288   4.929   3.540   7.781  0.7452  0.7464 -0.2255
    4CHL1   C26  289   5.044   3.732   7.767 -0.1173  0.5257 -0.3065
    4CHL1  H26A  290   5.012   3.760   7.664  0.1270  0.6948 -0.3381
    4CHL1  H26B  291   4.982   3.788   7.841 -0.4708 -2.5855  1.9171
    4CHL1  H26C  292   5.153   3.750   7.774 -0.2402  1.2181 -0.0777
    4CHL1   C27  293   5.114   3.510   7.687  0.1445 -0.6491 -0.7478
    4CHL1  H27A  294   5.074   3.530   7.585 -0.8093 -1.8466 -0.6339
    4CHL1  H27B  295   5.216   3.553   7.695 -0.4492  0.8144 -0.7688
    4CHL1  H27C  296   5.118   3.399   7.692 -1.2319 -0.7468 -1.3266
    5CHL1    C3  297   4.604   2.578   9.270  0.0649  0.4700 -0.1326
    5CHL1    H3  298   4.525   2.500   9.261  1.2118 -0.5346 -2.1235
    5CHL1    O3  299   4.578   2.646   9.392  0.1693  0.2807  0.1851
    5CHL1   H3'  300   4.502   2.704   9.387 -1.5720 -1.4200  3.5913
    5CHL1    C4  301   4.745   2.510   9.276 -0.1569 -0.2086 -0.0840
    5CHL1   H4A  302   4.808   2.594   9.312 -0.2763 -0.4688  0.7418
    5CHL1   H4B  303   4.751   2.438   9.360 -0.2141  2.1317  2.0750
    5CHL1    C5  304   4.807   2.466   9.146 -0.6312 -0.1267  0.2426
    5CHL1    C6  305   4.872   2.351   9.141  0.1248 -0.3976  0.0317
    5CHL1    H6  306   4.877   2.297   9.237  1.5917 -2.2825 -1.0350
    5CHL1    C7  307   4.927   2.283   9.025  0.4509 -0.6819 -0.5435
    5CHL1   H7A  308   5.026   2.249   9.061  0.7872  0.0125 -0.7924
    5CHL1   H7B  309   4.873   2.189   9.003 -1.0548 -0.0398  0.2473
    5CHL1    C8  310   4.929   2.383   8.907  0.1657 -0.2502 -0.5831
    5CHL1    H8  311   5.019   2.437   8.943 -0.8142 -0.7260  2.9177
    5CHL1   C14  312   4.939   2.303   8.781 -0.3682 -0.2870 -0.7828
    5CHL1   H14  313   4.839   2.256   8.767  0.9021 -2.8033 -2.0846
    5CHL1   C15  314   5.035   2.191   8.784 -0.0845 -0.4022 -0.6993
    5CHL1  H15A  315   5.131   2.223   8.831 -1.2205  0.3751  1.2256
    5CHL1  H15B  316   4.986   2.110   8.842  0.8758  0.1536  0.9685
    5CHL1   C16  317   5.063   2.164   8.640  0.4584  0.0403 -0.1082
    5CHL1  H16A  318   5.173   2.161   8.633  0.4589 -1.3281  0.3283
    5CHL1  H16B  319   5.025   2.068   8.600 -0.3400  0.0638  0.5535
    5CHL1   C17  320   4.981   2.267   8.562  0.4268  0.6756 -0.7066
    5CHL1   H17  321   4.878   2.230   8.550  1.0351 -1.2964 -0.1527
    5CHL1   C13  322   4.971   2.385   8.658 -0.3962 -0.2415 -0.3896
    5CHL1   C18  323   5.105   2.463   8.668  0.3069 -0.0534  0.4063
    5CHL1  H18A  324   5.194   2.397   8.662  0.0765 -0.3202 -0.1475
    5CHL1  H18B  325   5.110   2.549   8.598  1.5056 -0.2050  0.2960
    5CHL1  H18C  326   5.115   2.508   8.769 -1.3646 -1.6685  1.3589
    5CHL1   C12  327   4.848   2.483   8.641  0.0168  0.3113 -0.4077
    5CHL1  H12A  328   4.852   2.558   8.560 -1.3768  1.3051  0.3990
    5CHL1  H12B  329   4.754   2.426   8.623 -0.3858  0.4793  1.0485
    5CHL1   C11  330   4.830   2.569   8.774  0.0168 -0.3652  0.0461
    5CHL1  H11A  331   4.913   2.641   8.791 -0.5341  0.2718  0.0700
    5CHL1  H11B  332   4.735   2.622   8.754  0.2359  0.1486  0.3282
    5CHL1    C9  333   4.816   2.479   8.899 -0.0790 -0.1735  0.2076
    5CHL1    H9  334   4.734   2.406   8.880  1.6886 -1.9142 -1.2013
    5CHL1   C10  335   4.787   2.555   9.026  0.2249 -0.5554 -0.6321
    5CHL1   C19  336   4.875   2.678   9.039 -0.2645  0.3883  0.3200
    5CHL1  H19A  337   4.871   2.720   9.142 -0.5708 -0.4118  0.6429
    5CHL1  H19B  338   4.981   2.647   9.030 -0.3871  0.3544 -1.2241
    5CHL1  H19C  339   4.860   2.761   8.967 -0.0975  1.2953  1.3110
    5CHL1    C1  340   4.642   2.609   9.020  0.6895  0.6467 -0.3667
    5CHL1   H1A  341   4.626   2.686   8.942  0.5938 -0.2946 -1.3116
    5CHL1   H1B  342   4.576   2.528   8.982 -2.8114  3.4531 -0.7826
    5CHL1    C2  343   4.581   2.671   9.152  0.5875  0.2551  0.3304
    5CHL1   H2A  344   4.474   2.702   9.142  0.3960 -0.4225  0.1843
    5CHL1   H2B  345   4.629   2.769   9.172  0.5311  0.5871 -1.0838
    5CHL1   C20  346   5.033   2.281   8.419 -0.2394 -0.1385  0.3481
    5CHL1   H20  347   5.136   2.322   8.426  0.1017 -0.7237 -1.0462
    5CHL1   C21  348   4.949   2.385   8.340  0.0753  0.0931 -0.1878
    5CHL1  H21A  349   4.961   2.491   8.372  2.2408  0.1573 -1.0765
    5CHL1  H21B  350   4.840   2.372   8.362  0.0515  2.2740  1.3212
    5CHL1  H21C  351   4.965   2.378   8.230  2.2046  1.0061  0.0185
    5CHL1   C22  352   5.043   2.142   8.353  0.0641  0.4468 -0.3007
    5CHL1  H22A  353   5.102   2.073   8.417 -0.0275  0.1158 -0.5710
    5CHL1  H22B  354   4.939   2.106   8.343  0.8921 -3.1270  2.1351
    5CHL1   C23  355   5.122   2.140   8.216 -0.7183  0.4135  0.0077
    5CHL1  H23A  356   5.068   2.210   8.149  0.2296  1.0577 -0.0997
    5CHL1  H23B  357   5.226   2.175   8.235 -0.2820  0.6664 -2.5228
    5CHL1   C24  358   5.142   2.009   8.157 -0.6443  0.6181  0.3980
    5CHL1  H24A  359   5.174   1.927   8.224 -0.1946  0.5534  0.1115
    5CHL1  H24B  360   5.043   1.974   8.121  0.1455 -1.9203  0.5165
    5CHL1   C25  361   5.237   1.999   8.033  0.3115  0.1866 -0.2491
    5CHL1   H25  362   5.218   1.896   7.994 -2.9492  0.4497  0.3392
    5CHL1   C26  363   5.211   2.105   7.921 -0.3855  0.2641 -0.1746
    5CHL1  H26A  364   5.267   2.085   7.828 -0.2836  0.4449 -0.1531
    5CHL1  H26B  365   5.101   2.099   7.902 -0.3129 -0.5424 -0.3620
    5CHL1  H26C  366   5.246   2.207   7.949  2.1037 -0.2804 -1.1006
    5CHL1   C27  367   5.380   2.005   8.087  0.4182 -0.4475  0.1367
    5CHL1  H27A  368   5.397   2.101   8.140  0.8621 -1.4015  1.8139
    5CHL1  H27B  369   5.384   1.930   8.170  0.7083 -2.4366 -1.5932
    5CHL1  H27C  370   5.454   2.003   8.004  0.1395 -0.4977 -0.1118
    6CHL1    C3  371   2.821   5.891   9.405  0.3093 -0.1587  0.5577
    6CHL1    H3  372   2.846   5.785   9.380  0.3769  0.0580 -0.3079
    6CHL1    O3  373   2.828   5.880   9.544  0.3184  0.1859 -0.6213
    6CHL1   H3'  374   2.780   5.798   9.557 -0.0287  0.7009  1.9970
    6CHL1    C4  375   2.921   5.992   9.350 -0.8327 -0.4254  0.1378
    6CHL1   H4A  376   2.899   6.092   9.392 -0.0169  0.1139 -0.6725
    6CHL1   H4B  377   3.022   5.961   9.385 -0.8228 -0.4159  0.1169
    6CHL1    C5  378   2.929   6.002   9.203  0.1094 -0.1588  0.0198
    6CHL1    C6  379   3.045   5.994   9.130 -0.8383 -0.2026  0.2916
    6CHL1    H6  380   3.142   5.985   9.181 -0.0808  0.0213 -1.0756
    6CHL1    C7  381   3.051   6.008   8.980  0.4589  0.2727  0.3550
    6CHL1   H7A  382   3.124   6.087   8.953 -1.2320  1.7288 -0.1333
    6CHL1   H7B  383   3.069   5.906   8.939 -1.8699 -0.1577  0.3070
    6CHL1    C8  384   2.919   6.053   8.911  0.3475  0.2667 -0.0640
    6CHL1    H8  385   2.916   6.164   8.918  0.2957  0.3928 -1.7664
    6CHL1   C14  386   2.926   6.017   8.768  0.1779 -0.1376 -0.6232
    6CHL1   H14  387   2.935   5.907   8.759 -1.3228 -0.2816 -0.6766
    6CHL1   C15  388   3.053   6.062   8.687 -0.5130 -0.6035  0.3706
    6CHL1  H15A  389   3.079   6.166   8.714  0.2898 -0.7874  0.3428
    6CHL1  H15B  390   3.132   5.987   8.708  0.4734  0.2020 -0.3392
    6CHL1   C16  391   3.010   6.059   8.545 -0.2174 -0.4258  0.2887
    6CHL1  H16A  392   3.009   6.158   8.496  2.1955 -0.5065 -0.0454
    6CHL1  H16B  393   3.073   5.990   8.485  2.0806  1.9087 -0.1338
    6CHL1   C17  394   2.857   6.010   8.543  0.1023  0.8116  0.5833
    6CHL1   H17  395   2.862   5.899   8.538 -2.7837  0.6445 -0.2918
    6CHL1   C13  396   2.803   6.052   8.682  0.1239  0.3488 -0.8130
    6CHL1   C18  397   2.763   6.197   8.697 -0.0680 -0.9015  0.4230
    6CHL1  H18A  398   2.660   6.205   8.655 -0.2033  1.5789  1.0370
    6CHL1  H18B  399   2.755   6.235   8.801  1.1730 -0.4418  0.3638
    6CHL1  H18C  400   2.839   6.250   8.635 -1.3206  0.4882  0.0092
    6CHL1   C12  401   2.690   5.963   8.743 -0.5417  0.1562  0.4584
    6CHL1  H12A  402   2.591   5.955   8.695  0.0464 -1.6566 -0.5808
    6CHL1  H12B  403   2.728   5.858   8.737 -2.7038 -0.7236  1.0973
    6CHL1   C11  404   2.672   6.004   8.888  0.2460 -0.5031  0.5075
    6CHL1  H11A  405   2.629   6.106   8.889 -2.0385 -1.4034  0.9665
    6CHL1  H11B  406   2.593   5.939   8.933  1.9295 -2.0642  1.3135
    6CHL1    C9  407   2.800   5.985   8.974 -0.3123 -0.4317 -0.8550
    6CHL1    H9  408   2.819   5.876   8.967  1.3836 -0.1708 -0.6770
    6CHL1   C10  409   2.790   6.014   9.127  0.2673 -0.0348 -0.2211
    6CHL1   C19  410   2.749   6.159   9.137 -0.2953  0.5135 -0.2285
    6CHL1  H19A  411   2.649   6.173   9.093 -0.8621 -2.9213 -0.2773
    6CHL1  H19B  412   2.729   6.193   9.241  0.6054 -1.4416  0.6452
    6CHL1  H19C  413   2.815   6.230   9.081  0.5291 -0.9016 -1.1106
    6CHL1    C1  414   2.683   5.917   9.201 -0.6033  0.3130 -0.6426
    6CHL1   H1A  415   2.578   5.931   9.168 -0.5897 -0.2439 -0.9393
    6CHL1   H1B  416   2.722   5.818   9.167  0.5703  1.2397 -2.1855
    6CHL1    C2  417   2.685   5.916   9.352 -0.2615  0.3216  0.3467
    6CHL1   H2A  418   2.604   5.858   9.402  1.1938  1.2363  4.1057
    6CHL1   H2B  419   2.667   6.018   9.391  1.7287  0.0584  2.1961
    6CHL1   C20  420   2.783   6.060   8.420  0.0610  0.2440  0.6223
    6CHL1   H20  421   2.774   6.170   8.427  1.6537  0.3244  2.0448
    6CHL1   C21  422   2.641   6.004   8.422  0.7275 -0.0732 -0.0819
    6CHL1  H21A  423   2.576   6.042   8.503 -0.4673  0.2528 -1.1589
    6CHL1  H21B  424   2.653   5.895   8.443  1.6240  0.1015  0.3610
    6CHL1  H21C  425   2.591   6.010   8.322 -0.5829 -1.4969  0.4509
    6CHL1   C22  426   2.860   6.042   8.285 -0.0500  0.4763  0.1442
    6CHL1  H22A  427   2.969   6.061   8.293  0.2789 -0.5245 -1.4681
    6CHL1  H22B  428   2.860   5.935   8.253 -0.2713  1.4457 -3.5182
    6CHL1   C23  429   2.809   6.116   8.167 -0.2472  0.2774  0.4632
    6CHL1  H23A  430   2.846   6.064   8.076  2.3607  0.6559  1.2186
    6CHL1  H23B  431   2.699   6.113   8.158 -0.3931  0.1564  2.1082
    6CHL1   C24  432   2.855   6.266   8.175 -0.3933  0.4916  0.1527
    6CHL1  H24A  433   2.803   6.296   8.268 -1.3343 -1.7586  0.4187
    6CHL1  H24B  434   2.964   6.274   8.193 -0.2590 -1.0756  0.1805
    6CHL1   C25  435   2.800   6.345   8.057 -0.0591 -0.1481  0.7296
    6CHL1   H25  436   2.689   6.341   8.060 -0.1560 -2.5022 -1.5864
    6CHL1   C26  437   2.844   6.490   8.074 -0.1870 -0.5570 -0.0392
    6CHL1  H26A  438   2.789   6.554   8.001  1.7086  1.7693  0.4519
    6CHL1  H26B  439   2.816   6.523   8.176  1.6299 -0.4092  0.4456
    6CHL1  H26C  440   2.952   6.513   8.062 -0.0775 -0.8630  0.3546
    6CHL1   C27  441   2.837   6.301   7.919  0.3627  0.1602  0.7667
    6CHL1  H27A  442   2.943   6.313   7.888  0.5599 -4.7726 -1.3400
    6CHL1  H27B  443   2.805   6.201   7.885  4.0560  0.3097 -4.2185
    6CHL1  H27C  444   2.786   6.365   7.844  2.2594 -0.2834 -0.9630
    7CHL1    C3  445   4.634   1.566   9.258 -0.5480 -0.3277 -0.8495
    7CHL1    H3  446   4.739   1.529   9.261 -0.6113 -0.5842  3.0481
    7CHL1    O3  447   4.591   1.578   9.397  0.4724  0.0707 -0.1862
    7CHL1   H3'  448   4.510   1.527   9.404  1.4905 -1.5647  0.3218
    7CHL1    C4  449   4.629   1.703   9.191 -0.3524  0.2571 -0.1184
    7CHL1   H4A  450   4.527   1.748   9.196 -0.4317  0.0342  0.2912
    7CHL1   H4B  451   4.691   1.772   9.252 -0.1269  0.7002 -0.8396
    7CHL1    C5  452   4.684   1.710   9.051 -0.4555  0.4177  0.3008
    7CHL1    C6  453   4.790   1.778   9.019 -0.8532 -0.4975  0.9441
    7CHL1    H6  454   4.839   1.845   9.092  0.6710 -0.0207 -0.4565
    7CHL1    C7  455   4.840   1.785   8.883  0.0722 -0.6097  0.0843
    7CHL1   H7A  456   4.886   1.883   8.858 -0.0472 -0.7006 -0.4977
    7CHL1   H7B  457   4.925   1.714   8.874  1.0728  0.1683  2.5044
    7CHL1    C8  458   4.734   1.742   8.780 -0.1153 -0.1632  0.3348
    7CHL1    H8  459   4.657   1.821   8.775  0.3041  0.1745 -1.8395
    7CHL1   C14  460   4.796   1.710   8.646 -0.2925 -0.1834 -0.1401
    7CHL1   H14  461   4.873   1.631   8.659  2.4369  2.5082  1.2779
    7CHL1   C15  462   4.882   1.817   8.570 -0.5557  0.8239  0.1952
    7CHL1  H15A  463   4.847   1.918   8.599  1.2097  0.8464  2.5482
    7CHL1  H15B  464   4.989   1.808   8.596 -0.8183  1.2106  1.4939
    7CHL1   C16  465   4.856   1.802   8.419 -0.2883 -0.1942  0.7212
    7CHL1  H16A  466   4.797   1.889   8.384 -2.9644 -1.3576  2.0848
    7CHL1  H16B  467   4.953   1.793   8.366  0.7141  2.6295  1.8850
    7CHL1   C17  468   4.761   1.680   8.407 -0.3458 -0.6601 -0.6627
    7CHL1   H17  469   4.835   1.598   8.411  0.2123 -0.1632  3.0818
    7CHL1   C13  470   4.690   1.667   8.539  0.3680  0.2869 -0.0369
    7CHL1   C18  471   4.567   1.770   8.534 -0.3446 -0.0094 -0.0093
    7CHL1  H18A  472   4.592   1.874   8.504 -0.2285 -0.2961 -0.9454
    7CHL1  H18B  473   4.481   1.729   8.476  0.0157 -4.6654  2.2751
    7CHL1  H18C  474   4.527   1.760   8.637  0.0893 -1.9854  0.0089
    7CHL1   C12  475   4.641   1.525   8.568 -0.2435 -0.3865  0.2136
    7CHL1  H12A  476   4.559   1.498   8.497 -2.0737  0.5263  1.8813
    7CHL1  H12B  477   4.722   1.450   8.557 -1.2010 -1.6332  1.2760
    7CHL1   C11  478   4.594   1.527   8.717  0.2088  0.1880 -0.2210
    7CHL1  H11A  479   4.498   1.583   8.712  1.5728  2.6328 -0.8647
    7CHL1  H11B  480   4.562   1.428   8.756 -1.7167  0.7130 -0.3465
    7CHL1    C9  481   4.677   1.606   8.818 -0.2346  0.8216 -0.3980
    7CHL1    H9  482   4.773   1.554   8.836  1.7463  3.0451 -3.5655
    7CHL1   C10  483   4.607   1.618   8.954  0.1622 -0.0305  0.2888
    7CHL1   C19  484   4.473   1.686   8.933  0.1968  0.3547 -0.3870
    7CHL1  H19A  485   4.475   1.779   8.874  0.3627  0.8461  0.3756
    7CHL1  H19B  486   4.406   1.616   8.878  2.0500 -2.1288  0.2949
    7CHL1  H19C  487   4.419   1.711   9.027  1.9120  0.0630  0.7181
    7CHL1    C1  488   4.586   1.475   9.027 -0.0167  0.5631 -0.5554
    7CHL1   H1A  489   4.514   1.413   8.971  1.6173 -0.7069 -1.3531
    7CHL1   H1B  490   4.680   1.414   9.022 -0.5755 -0.2789 -1.0706
    7CHL1    C2  491   4.542   1.473   9.179 -0.4163  0.6268 -0.6094
    7CHL1   H2A  492   4.539   1.367   9.214  0.7264  0.5271 -0.7547
    7CHL1   H2B  493   4.440   1.515   9.184 -0.2905  0.9463 -0.6756
    7CHL1   C20  494   4.686   1.653   8.280  0.1439 -0.1464  0.2706
    7CHL1   H20  495   4.602   1.581   8.293  0.0392 -0.5680 -2.2250
    7CHL1   C21  496   4.789   1.577   8.189 -0.3186  0.1956  0.1424
    7CHL1  H21A  497   4.873   1.645   8.165  1.2992 -1.2720  1.3242
    7CHL1  H21B  498   4.740   1.540   8.097  1.8842 -1.3136 -0.5211
    7CHL1  H21C  499   4.827   1.488   8.245 -2.3791  0.0777  1.4458
    7CHL1   C22  500   4.629   1.780   8.206  0.1057 -0.8348  0.2905
    7CHL1  H22A  501   4.591   1.851   8.282  1.2160  1.1545 -0.9172
    7CHL1  H22B  502   4.719   1.826   8.158  0.8832 -3.4182 -0.9313
    7CHL1   C23  503   4.519   1.743   8.106 -0.8472  0.1949 -0.3594
    7CHL1  H23A  504   4.566   1.679   8.029  2.3397  3.0552 -1.0308
    7CHL1  H23B  505   4.457   1.669   8.162  0.3167 -0.7118 -0.2451
    7CHL1   C24  506   4.440   1.857   8.043 -0.2985 -0.4437  0.3272
    7CHL1  H24A  507   4.392   1.909   8.128 -1.1335  1.2077 -1.0791
    7CHL1  H24B  508   4.505   1.933   7.995  1.7656 -0.9057  2.2345
    7CHL1   C25  509   4.344   1.814   7.931 -0.4673  1.0119  0.9090
    7CHL1   H25  510   4.268   1.744   7.973  1.5204 -1.7355  0.2466
    7CHL1   C26  511   4.257   1.934   7.892 -0.1205 -0.6151 -0.3680
    7CHL1  H26A  512   4.231   1.983   7.989 -0.2381 -0.6868 -0.3633
    7CHL1  H26B  513   4.317   2.004   7.830 -1.3470  2.4903  1.7237
    7CHL1  H26C  514   4.156   1.900   7.862 -1.2116  1.1517  1.0907
    7CHL1   C27  515   4.418   1.756   7.805  0.0949 -0.4763 -0.4909
    7CHL1  H27A  516   4.347   1.758   7.718 -0.4209  0.4140 -0.0669
    7CHL1  H27B  517   4.501   1.825   7.779 -0.1423  0.3976  0.9776
    7CHL1  H27C  518   4.463   1.660   7.836  2.1149  1.3619  2.8399
    8CHL1    C3  519   5.590   3.658   9.353  0.4575  0.5031 -0.0224
    8CHL1    H3  520   5.696   3.625   9.351 -0.1867 -1.7815  0.5929
    8CHL1    O3  521   5.553   3.656   9.493 -0.0465  0.1972 -0.2005
    8CHL1   H3'  522   5.564   3.563   9.513  2.8087  0.3612 -0.5925
    8CHL1    C4  523   5.581   3.798   9.294 -0.4555 -0.1700 -0.1823
    8CHL1   H4A  524   5.472   3.817   9.306 -0.8128 -1.7387 -0.7559
    8CHL1   H4B  525   5.638   3.873   9.352 -1.6737  0.2840  0.4817
    8CHL1    C5  526   5.606   3.800   9.143 -0.5278  0.0411 -0.3556
    8CHL1    C6  527   5.710   3.877   9.106 -0.0367  0.3044 -0.3036
    8CHL1    H6  528   5.771   3.921   9.186  0.7487 -1.1621 -0.0430
    8CHL1    C7  529   5.750   3.884   8.964  0.7399 -0.0121  0.1187
    8CHL1   H7A  530   5.780   3.989   8.942 -0.3633  0.0315 -1.2954
    8CHL1   H7B  531   5.844   3.827   8.949  0.3244 -0.6152 -0.2595
    8CHL1    C8  532   5.632   3.836   8.871  0.4753 -0.8172  0.0568
    8CHL1    H8  533   5.552   3.913   8.876  0.9111 -0.4067  0.8806
    8CHL1   C14  534   5.683   3.814   8.730 -0.2042 -0.2415 -0.4904
    8CHL1   H14  535   5.766   3.740   8.733 -0.1846 -0.1858  0.7154
    8CHL1   C15  536   5.766   3.923   8.656 -0.0494  0.4358  0.1136
    8CHL1  H15A  537   5.714   4.020   8.673  0.0448  0.8241 -1.6049
    8CHL1  H15B  538   5.870   3.941   8.692 -0.1014 -0.3121  0.6410
    8CHL1   C16  539   5.754   3.896   8.505 -0.5354  0.0240  0.0624
    8CHL1  H16A  540   5.714   3.985   8.453 -0.5844 -0.3811 -0.5973
    8CHL1  H16B  541   5.856   3.873   8.467 -0.0716 -0.5165  1.5606
    8CHL1   C17  542   5.657   3.767   8.499  0.2296  0.1088  0.2661
    8CHL1   H17  543   5.732   3.687   8.516 -3.0212 -3.2360  0.3689
    8CHL1   C13  544   5.578   3.766   8.632  0.0683 -0.0396  0.5326
    8CHL1   C18  545   5.465   3.864   8.623  0.5967 -0.4817  0.4623
    8CHL1  H18A  546   5.406   3.868   8.717  1.4396  2.6267  0.9654
    8CHL1  H18B  547   5.501   3.967   8.602  1.3387 -0.5849  1.1986
    8CHL1  H18C  548   5.392   3.822   8.551  1.0472 -1.9405  0.8264
    8CHL1   C12  549   5.540   3.622   8.677  0.7032  0.1382 -0.0237
    8CHL1  H12A  550   5.467   3.585   8.602 -0.3911 -0.7203  1.4055
    8CHL1  H12B  551   5.633   3.562   8.671  0.4161 -0.2462 -0.7490
    8CHL1   C11  552   5.487   3.627   8.817  0.8872 -0.4239  0.4063
    8CHL1  H11A  553   5.386   3.672   8.809  1.2799  0.3040 -0.6188
    8CHL1  H11B  554   5.465   3.526   8.858 -1.4218  0.2965  1.0838
    8CHL1    C9  555   5.581   3.700   8.920  0.3384 -0.5150 -0.0067
    8CHL1    H9  556   5.671   3.634   8.926  1.1240  0.5978  1.0107
    8CHL1   C10  557   5.521   3.702   9.065 -0.3287 -0.8762 -0.2176
    8CHL1   C19  558   5.381   3.762   9.065 -0.4890 -0.3213  0.3676
    8CHL1  H19A  559   5.381   3.867   9.030  0.2645 -0.4843 -0.1403
    8CHL1  H19B  560   5.327   3.704   8.987  0.8630 -4.5003  2.2576
    8CHL1  H19C  561   5.318   3.745   9.155 -0.2723 -0.1953  0.5451
    8CHL1    C1  562   5.519   3.557   9.120  0.0863 -0.4272 -0.5312
    8CHL1   H1A  563   5.444   3.496   9.066 -0.8600 -0.2978  0.6100
    8CHL1   H1B  564   5.623   3.520   9.109  0.3969 -0.6988  2.5098
    8CHL1    C2  565   5.504   3.553   9.280  1.0130  0.3108 -0.4179
    8CHL1   H2A  566   5.546   3.459   9.322  1.2370  1.0220  1.0100
    8CHL1   H2B  567   5.396   3.556   9.307  0.7121  0.7698 -1.6232
    8CHL1   C20  568   5.586   3.740   8.362 -0.6995 -0.4338  0.4290
    8CHL1   H20  569   5.499   3.671   8.372 -0.6901 -0.6317 -0.7319
    8CHL1   C21  570   5.690   3.671   8.275  0.1376 -0.0211 -0.1573
    8CHL1  H21A  571   5.777   3.737   8.255 -1.2195  1.3950 -1.8460
    8CHL1  H21B  572   5.654   3.629   8.179  1.6442 -1.7711 -0.0072
    8CHL1  H21C  573   5.718   3.579   8.330 -0.8158 -1.9869 -2.7607
    8CHL1   C22  574   5.540   3.875   8.292 -0.6200  0.0194 -0.3482
    8CHL1  H22A  575   5.495   3.938   8.371  0.2078 -0.5651  0.6075
    8CHL1  H22B  576   5.628   3.930   8.253  2.2752 -2.0194  2.7869
    8CHL1   C23  577   5.437   3.831   8.183  0.0117 -0.7828  0.2896
    8CHL1  H23A  578   5.489   3.752   8.126 -0.8371  0.0732 -1.7903
    8CHL1  H23B  579   5.352   3.784   8.238  0.3536 -1.2040  0.4593
    8CHL1   C24  580   5.409   3.958   8.096 -0.1682  0.5890 -0.2459
    8CHL1  H24A  581   5.338   4.019   8.156  0.8517 -0.0595  1.6975
    8CHL1  H24B  582   5.509   4.005   8.078  1.7296 -3.5700 -1.8705
    8CHL1   C25  583   5.341   3.922   7.966  0.6429 -0.0966 -0.0154
    8CHL1   H25  584   5.282   3.829   7.979  0.4266 -0.2318 -1.7213
    8CHL1   C26  585   5.236   4.034   7.923 -0.5679  0.7078  0.0022
    8CHL1  H26A  586   5.186   3.996   7.831  2.3513 -0.9382 -1.0414
    8CHL1  H26B  587   5.156   4.038   8.001 -1.0788  0.8321 -0.5230
    8CHL1  H26C  588   5.283   4.134   7.917  0.1188  0.4402  0.7458
    8CHL1   C27  589   5.448   3.913   7.863  0.3662 -0.0408 -0.3856
    8CHL1  H27A  590   5.506   4.006   7.842 -2.2152  1.6320 -0.5890
    8CHL1  H27B  591   5.524   3.836   7.889 -1.6602 -1.6643  1.0599
    8CHL1  H27C  592   5.407   3.888   7.763 -0.0617 -1.3726  0.1083
    9CHL1    C3  593   2.761   6.521   9.352 -0.1375  0.1631  0.0433
    9CHL1    H3  594   2.771   6.414   9.323 -0.7454  0.1347 -0.0812
    9CHL1    O3  595   2.687   6.546   9.470  0.0112  0.4714  0.4487
    9CHL1   H3'  596   2.653   6.634   9.451  2.3785  1.4989  0.6704
    9CHL1    C4  597   2.903   6.586   9.366  0.6841 -0.3961 -0.0228
    9CHL1   H4A  598   2.882   6.695   9.375 -0.5907 -0.6817  0.8779
    9CHL1   H4B  599   2.951   6.533   9.451  2.5876 -0.2084 -0.9301
    9CHL1    C5  600   2.970   6.550   9.233  0.2413 -0.6171  0.9849
    9CHL1    C6  601   3.080   6.471   9.227  0.5942 -0.7745  0.2589
    9CHL1    H6  602   3.128   6.448   9.323  0.8421  0.0968  0.3541
    9CHL1    C7  603   3.143   6.438   9.092 -1.1918 -0.0134 -0.7901
    9CHL1   H7A  604   3.254   6.441   9.092 -1.1861  1.3492 -2.1176
    9CHL1   H7B  605   3.119   6.332   9.073 -1.0851 -0.3696  0.9117
    9CHL1    C8  606   3.103   6.524   8.972 -0.4364  0.5302 -0.3296
    9CHL1    H8  607   3.155   6.621   8.989  0.4755 -0.1105  0.6501
    9CHL1   C14  608   3.143   6.460   8.841  0.2280 -0.2340 -0.8630
    9CHL1   H14  609   3.074   6.378   8.813  0.1381  0.3345 -2.4100
    9CHL1   C15  610   3.281   6.400   8.828  0.0383  0.3409 -0.2631
    9CHL1  H15A  611   3.355   6.473   8.866  1.6430 -0.4005 -1.7634
    9CHL1  H15B  612   3.277   6.300   8.875  0.9010 -1.3500 -3.4375
    9CHL1   C16  613   3.302   6.385   8.676  0.0995 -0.0405  0.1041
    9CHL1  H16A  614   3.391   6.446   8.650 -0.7002  0.4685 -1.5211
    9CHL1  H16B  615   3.323   6.281   8.645  2.4900  0.8432 -1.4985
    9CHL1   C17  616   3.180   6.456   8.609 -0.3146  0.9702 -0.0458
    9CHL1   H17  617   3.111   6.370   8.593  1.1926  0.0037 -1.6825
    9CHL1   C13  618   3.118   6.543   8.715  0.7454  0.1016  0.6878
    9CHL1   C18  619   3.201   6.676   8.716 -0.2598  0.3330  0.4301
    9CHL1  H18A  620   3.306   6.663   8.750  0.2080  2.1146 -0.2225
    9CHL1  H18B  621   3.207   6.720   8.614  1.6937  3.2921  1.6685
    9CHL1  H18C  622   3.144   6.744   8.782 -0.5311 -0.0101  0.5471
    9CHL1   C12  623   2.961   6.567   8.709 -0.2869 -0.2936  0.8795
    9CHL1  H12A  624   2.948   6.633   8.620  0.8983 -2.8505 -1.3596
    9CHL1  H12B  625   2.914   6.470   8.680 -0.2541 -0.1945  0.4905
    9CHL1   C11  626   2.904   6.620   8.844 -0.1491  0.6015 -0.2786
    9CHL1  H11A  627   2.942   6.725   8.845  1.1984  0.1498 -0.8166
    9CHL1  H11B  628   2.795   6.630   8.827  0.3173  1.0424 -3.7750
    9CHL1    C9  629   2.956   6.542   8.974 -0.3872 -0.3466 -0.4968
    9CHL1    H9  630   2.904   6.445   8.962 -2.7220  0.6288  0.9870
    9CHL1   C10  631   2.900   6.606   9.103 -0.1623  0.2906 -0.4575
    9CHL1   C19  632   2.930   6.756   9.104 -0.1647  0.0738  0.6709
    9CHL1  H19A  633   3.036   6.779   9.079  0.0407  0.7877  2.0990
    9CHL1  H19B  634   2.864   6.803   9.028  1.3897  1.4185  0.1041
    9CHL1  H19C  635   2.903   6.804   9.201  1.2490  2.2694  0.0562
    9CHL1    C1  636   2.747   6.575   9.104 -0.3427  0.2549  1.0821
    9CHL1   H1A  637   2.689   6.644   9.039 -0.4055 -0.7837 -0.0043
    9CHL1   H1B  638   2.734   6.473   9.061  2.7948  0.6704 -1.2254
    9CHL1    C2  639   2.679   6.586   9.240  0.1102 -0.0263 -0.4185
    9CHL1   H2A  640   2.573   6.551   9.244 -0.2701  0.7452 -2.4542
    9CHL1   H2B  641   2.676   6.694   9.265 -1.0343 -0.1659  0.1303
    9CHL1   C20  642   3.196   6.503   8.461 -0.7561  0.5376 -0.4574
    9CHL1   H20  643   3.262   6.593   8.461  0.4440 -0.3140 -1.5008
    9CHL1   C21  644   3.063   6.535   8.395  0.5186 -0.1241  0.5422
    9CHL1  H21A  645   2.988   6.457   8.419  0.7186 -0.5711 -0.2589
    9CHL1  H21B  646   3.065   6.557   8.286  1.2373  0.9744  0.7696
    9CHL1  H21C  647   3.032   6.632   8.438 -0.1821 -0.0983 -0.0027
    9CHL1   C22  648   3.275   6.402   8.373  0.5577  0.0376 -0.2862
    9CHL1  H22A  649   3.366   6.369   8.427 -0.4750 -1.5684  0.5658
    9CHL1  H22B  650   3.203   6.317   8.364  0.3169  0.3524 -1.5420
    9CHL1   C23  651   3.310   6.457   8.236  0.5041  0.8636  0.5979
    9CHL1  H23A  652   3.279   6.562   8.220 -1.0473  0.3206 -0.2775
    9CHL1  H23B  653   3.420   6.446   8.223  0.6237 -0.7282  2.4375
    9CHL1   C24  654   3.246   6.379   8.116  0.3840 -0.1109  0.2770
    9CHL1  H24A  655   3.284   6.274   8.116  0.7721 -0.0157 -1.7475
    9CHL1  H24B  656   3.135   6.372   8.116  0.2351  1.0700 -2.0826
    9CHL1   C25  657   3.291   6.440   7.986 -0.8150 -1.1656 -0.0694
    9CHL1   H25  658   3.288   6.551   7.998 -0.8586 -0.9443 -1.7773
    9CHL1   C26  659   3.436   6.402   7.947  0.3325 -0.4671 -0.0716
    9CHL1  H26A  660   3.477   6.454   7.858  0.9702  0.9692  1.0177
    9CHL1  H26B  661   3.509   6.418   8.030 -1.7911 -0.8507  2.0072
    9CHL1  H26C  662   3.436   6.293   7.927 -0.5686 -0.5262  0.1587
    9CHL1   C27  663   3.203   6.411   7.871  0.3441 -0.2793 -0.0801
    9CHL1  H27A  664   3.103   6.459   7.878  1.5227  2.6275 -1.4279
    9CHL1  H27B  665   3.250   6.456   7.781  1.1743  2.1133  1.4532
    9CHL1  H27C  666   3.192   6.301   7.865  2.3449 -0.9077  4.1381
   10CHL1    C3  667   0.836   4.412   9.516  0.0603 -0.2483  0.2934
   10CHL1    H3  668   0.754   4.352   9.472 -1.7117  2.2931 -0.1624
   10CHL1    O3  669   0.813   4.409   9.655 -0.6791 -0.7265  0.3374
   10CHL1   H3'  670   0.883   4.451   9.706 -0.5625  0.8078 -0.9896
   10CHL1    C4  671   0.967   4.355   9.479  0.0098 -0.1413  0.3170
   10CHL1   H4A  672   1.045   4.412   9.535 -0.3853 -0.1559  0.8892
   10CHL1   H4B  673   0.977   4.252   9.520  2.0013 -0.3198 -0.5096
   10CHL1    C5  674   0.983   4.357   9.328  0.2573  1.4627 -0.7027
   10CHL1    C6  675   0.990   4.242   9.259  0.3412 -0.1711  1.1746
   10CHL1    H6  676   0.981   4.146   9.311 -2.6563  0.8466  2.7772
   10CHL1    C7  677   1.023   4.230   9.110 -0.2106  0.0298 -0.1083
   10CHL1   H7A  678   1.115   4.168   9.105 -2.1672 -3.0968 -0.2566
   10CHL1   H7B  679   0.951   4.173   9.048 -0.3130  0.0269  0.0129
   10CHL1    C8  680   1.054   4.372   9.048 -0.0064  0.7035 -0.1109
   10CHL1    H8  681   1.154   4.410   9.079  0.0746 -0.2012  0.7814
   10CHL1   C14  682   1.047   4.364   8.899  0.1941 -0.4972  0.1810
   10CHL1   H14  683   0.942   4.342   8.871  1.0414 -2.6976 -1.6489
   10CHL1   C15  684   1.124   4.254   8.823  0.5101 -0.1434 -0.4978
   10CHL1  H15A  685   1.230   4.243   8.856  0.0683  0.8846  1.3964
   10CHL1  H15B  686   1.068   4.159   8.835 -0.0585  0.3395  0.9004
   10CHL1   C16  687   1.115   4.313   8.675 -0.2270  0.1074  0.1058
   10CHL1  H16A  688   1.212   4.304   8.621 -0.7129 -0.2517 -0.7379
   10CHL1  H16B  689   1.027   4.257   8.637 -0.9536  0.3043  1.4627
   10CHL1   C17  690   1.080   4.460   8.674  0.1821  0.1397 -0.2831
   10CHL1   H17  691   0.976   4.462   8.637  0.2438 -0.3294 -0.4829
   10CHL1   C13  692   1.081   4.498   8.831 -0.9149  0.7296 -0.2655
   10CHL1   C18  693   1.228   4.546   8.877  0.1724  0.3972 -0.5121
   10CHL1  H18A  694   1.265   4.639   8.827 -0.7959  0.6583 -0.7702
   10CHL1  H18B  695   1.229   4.565   8.986  0.3876 -1.1240 -0.2296
   10CHL1  H18C  696   1.296   4.459   8.868 -0.7836 -0.2869 -1.3293
   10CHL1   C12  697   0.982   4.605   8.871 -0.0983 -0.0204 -0.4620
   10CHL1  H12A  698   0.989   4.704   8.821 -2.2557  0.1904 -0.4154
   10CHL1  H12B  699   0.882   4.566   8.843 -1.1842  2.8352 -0.8394
   10CHL1   C11  700   0.977   4.617   9.027 -0.6600 -0.0393 -1.1847
   10CHL1  H11A  701   1.062   4.682   9.058 -2.8965  1.3864  2.7214
   10CHL1  H11B  702   0.892   4.686   9.046 -0.5869 -0.3082  0.2963
   10CHL1    C9  703   0.966   4.484   9.106  0.0141 -0.1561  0.0272
   10CHL1    H9  704   0.865   4.441   9.088 -0.2733 -0.0734  1.3958
   10CHL1   C10  705   0.976   4.495   9.261  0.1965 -0.3359  0.1009
   10CHL1   C19  706   1.084   4.595   9.308  0.0402 -0.2296  0.1207
   10CHL1  H19A  707   1.065   4.697   9.268  2.0381  0.4667  0.8552
   10CHL1  H19B  708   1.099   4.613   9.417 -2.6918  0.6184  0.4382
   10CHL1  H19C  709   1.183   4.574   9.263  0.7307  1.6558  0.6821
   10CHL1    C1  710   0.836   4.555   9.306  0.2534 -0.3819 -0.0898
   10CHL1   H1A  711   0.819   4.662   9.280  1.0504 -0.0540  0.6646
   10CHL1   H1B  712   0.753   4.497   9.261 -1.5795  1.0319  1.2857
   10CHL1    C2  713   0.819   4.550   9.463  0.5457 -0.5102  0.8154
   10CHL1   H2A  714   0.719   4.591   9.485  0.9071  0.4502  0.6984
   10CHL1   H2B  715   0.895   4.616   9.510 -0.3890  0.6599  0.7328
   10CHL1   C20  716   1.161   4.557   8.583  1.2877 -0.1806 -0.8500
   10CHL1   H20  717   1.267   4.568   8.617  1.4094 -0.5481 -1.1016
   10CHL1   C21  718   1.083   4.699   8.594 -0.2594  0.0459 -0.4451
   10CHL1  H21A  719   1.110   4.763   8.508  1.0830  1.2162  0.8060
   10CHL1  H21B  720   1.119   4.750   8.685 -3.2470  0.2620  0.7346
   10CHL1  H21C  721   0.973   4.686   8.605  0.1495 -1.0937  4.8975
   10CHL1   C22  722   1.168   4.515   8.438  1.3662  0.3098  0.2686
   10CHL1  H22A  723   1.194   4.607   8.381 -0.5139  1.5263  1.2636
   10CHL1  H22B  724   1.242   4.435   8.418  0.1876 -0.7413 -0.0422
   10CHL1   C23  725   1.043   4.452   8.371  1.0661  0.1309 -0.9360
   10CHL1  H23A  726   1.035   4.343   8.395  1.5156 -0.2169 -2.2809
   10CHL1  H23B  727   0.949   4.505   8.397 -0.0771 -1.9369 -0.5692
   10CHL1   C24  728   1.055   4.472   8.218 -0.9353  0.5340 -0.4160
   10CHL1  H24A  729   1.049   4.580   8.193  1.4947  0.6053 -0.9582
   10CHL1  H24B  730   1.156   4.436   8.188  0.4955  1.9417  2.2856
   10CHL1   C25  731   0.948   4.387   8.142 -0.1350  0.1959  0.6711
   10CHL1   H25  732   0.854   4.389   8.201 -0.7102 -2.1480 -0.0586
   10CHL1   C26  733   0.933   4.454   8.000 -0.4224  0.1610  0.0624
   10CHL1  H26A  734   0.831   4.432   7.962 -1.6586  1.1442  2.6047
   10CHL1  H26B  735   0.925   4.564   8.012 -0.0814 -0.0341  2.7136
   10CHL1  H26C  736   1.005   4.411   7.927 -0.5197 -2.2641  1.2953
   10CHL1   C27  737   0.993   4.237   8.129  0.2097  0.0824  0.1222
   10CHL1  H27A  738   1.078   4.222   8.059 -0.1756 -1.5041 -0.0489
   10CHL1  H27B  739   1.031   4.204   8.228 -1.2484 -2.0671  0.0416
   10CHL1  H27C  740   0.912   4.168   8.098  1.0088 -1.6770  1.6758
   11CHL1    C3  741   2.859   1.116   9.272 -0.3710  0.5309 -0.2512
   11CHL1    H3  742   2.769   1.177   9.294 -1.0981  0.0120 -1.6322
   11CHL1    O3  743   2.951   1.118   9.382  0.1731  0.4737 -0.4544
   11CHL1   H3'  744   2.950   1.212   9.400 -0.8036  0.6915 -1.5185
   11CHL1    C4  745   2.831   0.967   9.227  0.5259 -0.1693 -0.1583
   11CHL1   H4A  746   2.932   0.920   9.222 -0.2082 -1.7449 -1.5459
   11CHL1   H4B  747   2.784   0.908   9.308 -2.0806  1.1387 -0.6225
   11CHL1    C5  748   2.760   0.953   9.090 -0.3238 -0.0209  0.5498
   11CHL1    C6  749   2.640   0.896   9.083  0.8198 -0.3283  0.0024
   11CHL1    H6  750   2.596   0.834   9.162  0.9118 -1.1095 -0.5529
   11CHL1    C7  751   2.566   0.878   8.948 -0.4042 -0.0496 -1.1413
   11CHL1   H7A  752   2.531   0.773   8.954 -1.8388  0.4681  1.1795
   11CHL1   H7B  753   2.483   0.952   8.945 -1.7783 -1.2626  2.0001
   11CHL1    C8  754   2.647   0.917   8.825 -0.3868  0.4234  0.9460
   11CHL1    H8  755   2.725   0.840   8.809  1.8545  2.4462  1.5916
   11CHL1   C14  756   2.555   0.939   8.700 -0.1245  0.2309 -0.0761
   11CHL1   H14  757   2.488   1.025   8.718 -0.5376 -0.4205  1.7403
   11CHL1   C15  758   2.462   0.822   8.658 -0.3010  0.6772 -0.4482
   11CHL1  H15A  759   2.521   0.729   8.664  0.1048  0.7845 -2.1555
   11CHL1  H15B  760   2.367   0.803   8.712  0.1317 -1.0391 -0.2267
   11CHL1   C16  761   2.429   0.865   8.511  0.1009  0.4564 -0.9847
   11CHL1  H16A  762   2.448   0.778   8.444  0.3254 -1.8249  1.8225
   11CHL1  H16B  763   2.319   0.878   8.502 -0.1543 -1.5007 -1.1649
   11CHL1   C17  764   2.517   0.986   8.467 -0.0524  0.7252  1.0208
   11CHL1   H17  765   2.459   1.079   8.487 -2.3701 -0.7360  1.4846
   11CHL1   C13  766   2.636   0.979   8.566  0.3445  1.1037 -0.0078
   11CHL1   C18  767   2.734   0.863   8.533 -0.4517 -0.0252  0.0402
   11CHL1  H18A  768   2.787   0.885   8.438 -2.2082  1.1443 -0.7052
   11CHL1  H18B  769   2.806   0.850   8.617  0.7943 -2.1576 -1.2503
   11CHL1  H18C  770   2.683   0.765   8.514 -0.3453  0.2375 -1.8130
   11CHL1   C12  771   2.710   1.114   8.600  0.1288  0.2438 -0.4263
   11CHL1  H12A  772   2.765   1.158   8.514 -3.4070  1.2631 -2.3771
   11CHL1  H12B  773   2.629   1.190   8.610 -1.1076 -0.9050 -1.4320
   11CHL1   C11  774   2.802   1.099   8.725  0.2940 -0.2298 -0.2580
   11CHL1  H11A  775   2.880   1.036   8.679 -0.0680  0.6238 -2.1232
   11CHL1  H11B  776   2.858   1.194   8.740  0.1239 -0.1944  0.1709
   11CHL1    C9  777   2.726   1.045   8.849 -0.1762  0.8943  0.1780
   11CHL1    H9  778   2.643   1.116   8.869 -2.0572 -1.6156  1.8584
   11CHL1   C10  779   2.819   1.029   8.973  0.3873  0.8337 -0.2907
   11CHL1   C19  780   2.959   0.963   8.926  0.1015  0.0177  0.0070
   11CHL1  H19A  781   3.015   0.938   9.019  0.8074  0.7458 -0.2053
   11CHL1  H19B  782   2.936   0.871   8.869 -2.4179  1.4778 -1.5527
   11CHL1  H19C  783   3.016   1.039   8.868 -1.1954  0.4332 -0.7744
   11CHL1    C1  784   2.848   1.176   9.018  0.1433 -0.1719  0.3790
   11CHL1   H1A  785   2.904   1.228   8.937 -0.0975  0.5551  0.6737
   11CHL1   H1B  786   2.745   1.217   9.028 -0.5924 -1.5821 -1.0692
   11CHL1    C2  787   2.926   1.194   9.150 -0.6652  0.0751 -0.0035
   11CHL1   H2A  788   2.957   1.299   9.169  2.5016 -0.7348 -0.0668
   11CHL1   H2B  789   3.022   1.140   9.136 -0.2389  0.8558 -0.1571
   11CHL1   C20  790   2.550   0.985   8.310 -0.3258 -0.3448  1.0214
   11CHL1   H20  791   2.580   0.881   8.285  1.1750  0.3036 -0.0833
   11CHL1   C21  792   2.663   1.083   8.268 -0.2910  0.3776 -0.1162
   11CHL1  H21A  793   2.757   1.057   8.322 -0.9020  2.7210  2.3142
   11CHL1  H21B  794   2.636   1.186   8.300 -1.3856  0.0136  0.1500
   11CHL1  H21C  795   2.685   1.082   8.160  0.5696  2.1848  0.0034
   11CHL1   C22  796   2.414   1.023   8.248  0.1827 -0.1184 -0.1894
   11CHL1  H22A  797   2.345   0.938   8.267 -0.3777  0.5829  1.0453
   11CHL1  H22B  798   2.369   1.110   8.301  0.3990 -0.8805  1.2905
   11CHL1   C23  799   2.420   1.046   8.096  0.8621  0.0557 -0.2204
   11CHL1  H23A  800   2.466   1.147   8.095  0.3454  0.2924 -0.5712
   11CHL1  H23B  801   2.493   0.975   8.051  2.1408 -1.0273  3.2448
   11CHL1   C24  802   2.284   1.038   8.019  0.3889  0.4825  0.4090
   11CHL1  H24A  803   2.247   0.935   7.996 -0.8241  0.3934  2.4723
   11CHL1  H24B  804   2.210   1.092   8.082  0.3205  0.2214  0.5570
   11CHL1   C25  805   2.288   1.119   7.890  0.2042 -0.1646  0.3827
   11CHL1   H25  806   2.395   1.130   7.861  0.8440  1.3560  2.9717
   11CHL1   C26  807   2.220   1.047   7.773  0.4261 -0.3972  0.5125
   11CHL1  H26A  808   2.250   0.941   7.771  1.2524 -0.2222  2.0583
   11CHL1  H26B  809   2.110   1.045   7.785  0.5534 -2.8630  1.9957
   11CHL1  H26C  810   2.240   1.104   7.680  3.4368 -0.3373  1.0889
   11CHL1   C27  811   2.235   1.255   7.927  0.4094  0.3496 -0.6245
   11CHL1  H27A  812   2.128   1.240   7.952  0.6294 -1.8752 -0.7659
   11CHL1  H27B  813   2.288   1.307   8.009 -1.2827  2.9002 -1.0377
   11CHL1  H27C  814   2.223   1.317   7.835  0.6916  2.0510  0.4382
   12CHL1    C3  815   0.390   2.917   9.535  0.0751  0.0065 -0.7907
   12CHL1    H3  816   0.376   3.027   9.526 -1.2843 -0.2265 -1.7314
   12CHL1    O3  817   0.408   2.902   9.679 -0.9609 -0.1862  0.2528
   12CHL1   H3'  818   0.333   2.856   9.715  0.3736 -0.5484  2.8053
   12CHL1    C4  819   0.261   2.851   9.485  0.3160 -0.3012  0.0598
   12CHL1   H4A  820   0.255   2.745   9.519  0.6086  0.3815  2.4455
   12CHL1   H4B  821   0.168   2.886   9.534  0.3120  1.3093 -1.0385
   12CHL1    C5  822   0.250   2.856   9.330  0.0344  0.0808  0.5701
   12CHL1    C6  823   0.141   2.905   9.262 -0.0459 -0.5326  1.2316
   12CHL1    H6  824   0.047   2.933   9.313 -1.4358 -0.2831 -1.3205
   12CHL1    C7  825   0.129   2.894   9.112  0.3172 -0.3578 -0.5604
   12CHL1   H7A  826   0.024   2.864   9.091  0.8283 -2.7734  0.0709
   12CHL1   H7B  827   0.156   2.992   9.068 -1.3486  0.4887  0.1826
   12CHL1    C8  828   0.224   2.786   9.044  0.1908  0.6998 -0.3987
   12CHL1    H8  829   0.192   2.686   9.080  0.0930  0.2315 -1.7212
   12CHL1   C14  830   0.228   2.789   8.896  0.4947  0.5000  0.2701
   12CHL1   H14  831   0.243   2.894   8.865  2.2068  0.3486  0.4911
   12CHL1   C15  832   0.096   2.756   8.827  0.3710  0.2884  0.0801
   12CHL1  H15A  833   0.050   2.662   8.865  2.9615 -2.7175 -3.5107
   12CHL1  H15B  834   0.020   2.838   8.829 -1.2557 -1.0718 -1.7171
   12CHL1   C16  835   0.132   2.719   8.684  0.1103 -0.0179  0.2745
   12CHL1  H16A  836   0.084   2.621   8.662  1.5208 -0.7164  0.2212
   12CHL1  H16B  837   0.111   2.792   8.604  0.3785 -3.0293 -2.7772
   12CHL1   C17  838   0.290   2.703   8.684 -1.0989 -0.6654 -0.2028
   12CHL1   H17  839   0.331   2.803   8.657  1.7583 -1.2344  1.7002
   12CHL1   C13  840   0.336   2.695   8.827  0.3035 -0.0967 -0.2550
   12CHL1   C18  841   0.320   2.547   8.869 -0.0229 -0.2378 -1.0018
   12CHL1  H18A  842   0.219   2.513   8.840  0.2174 -2.5213  0.5937
   12CHL1  H18B  843   0.393   2.488   8.809 -0.6183 -0.9345 -1.0517
   12CHL1  H18C  844   0.325   2.527   8.978 -1.1482 -1.0434 -1.0787
   12CHL1   C12  845   0.472   2.751   8.868  0.2770 -0.2339 -0.1369
   12CHL1  H12A  846   0.559   2.707   8.816 -0.2421  0.7550 -1.9261
   12CHL1  H12B  847   0.464   2.856   8.832 -1.5589 -0.3395 -0.1303
   12CHL1   C11  848   0.494   2.750   9.024  0.8773 -0.2871  0.3636
   12CHL1  H11A  849   0.500   2.641   9.045 -1.0182 -0.2092  1.4812
   12CHL1  H11B  850   0.589   2.796   9.060  0.8550 -1.4941  2.1118
   12CHL1    C9  851   0.366   2.814   9.099 -0.1713  0.0080  0.0235
   12CHL1    H9  852   0.380   2.924   9.090  0.8105 -0.0455  0.7592
   12CHL1   C10  853   0.370   2.799   9.252 -0.4447 -0.3150 -0.7437
   12CHL1   C19  854   0.381   2.647   9.289 -0.7264 -0.2739 -0.8737
   12CHL1  H19A  855   0.409   2.638   9.396 -0.1417 -0.4812 -1.0444
   12CHL1  H19B  856   0.294   2.583   9.263 -1.2077  0.6744 -1.6757
   12CHL1  H19C  857   0.468   2.614   9.229 -1.2919 -1.2983 -1.1497
   12CHL1    C1  858   0.492   2.874   9.310  0.3851  0.0962 -0.2148
   12CHL1   H1A  859   0.581   2.826   9.264  0.9369 -1.0660  1.9423
   12CHL1   H1B  860   0.489   2.981   9.280 -0.2728 -0.1538 -1.0769
   12CHL1    C2  861   0.509   2.871   9.462  0.3831  0.1525  0.1330
   12CHL1   H2A  862   0.595   2.937   9.485 -0.9682  1.5396  1.4394
   12CHL1   H2B  863   0.543   2.770   9.494 -1.0575 -0.4897 -0.2531
   12CHL1   C20  864   0.337   2.602   8.570  0.2394 -0.6810 -0.3005
   12CHL1   H20  865   0.283   2.505   8.582  1.0186 -1.2239 -1.0483
   12CHL1   C21  866   0.494   2.592   8.576 -0.6659  0.1729  0.5106
   12CHL1  H21A  867   0.542   2.690   8.555  0.2479 -0.5326 -0.8020
   12CHL1  H21B  868   0.526   2.527   8.492 -0.5250  0.1398  0.5907
   12CHL1  H21C  869   0.539   2.547   8.667 -0.5662 -0.2139  0.2726
   12CHL1   C22  870   0.289   2.664   8.430 -0.6081 -0.2792 -0.5570
   12CHL1  H22A  871   0.179   2.674   8.439 -0.3783  1.2012  1.2907
   12CHL1  H22B  872   0.326   2.769   8.421 -1.5981  0.3589  1.9285
   12CHL1   C23  873   0.320   2.575   8.319  0.2649 -0.1241 -0.3790
   12CHL1  H23A  874   0.428   2.550   8.312  0.6648  1.8917 -3.4544
   12CHL1  H23B  875   0.273   2.480   8.351  0.1142  0.0225 -0.1601
   12CHL1   C24  876   0.263   2.626   8.186  0.5177 -0.3882  0.2767
   12CHL1  H24A  877   0.155   2.645   8.202  0.7630  1.5095 -0.1940
   12CHL1  H24B  878   0.306   2.720   8.147 -0.4721 -0.4293 -0.9694
   12CHL1   C25  879   0.273   2.526   8.070  0.1155 -0.2525 -0.0145
   12CHL1   H25  880   0.378   2.528   8.033 -0.1728  0.7758 -0.8157
   12CHL1   C26  881   0.250   2.384   8.121  0.8390 -0.0372 -0.2088
   12CHL1  H26A  882   0.171   2.374   8.198  0.6065  0.2481 -0.4071
   12CHL1  H26B  883   0.228   2.313   8.038 -1.2760  0.1434  0.1547
   12CHL1  H26C  884   0.345   2.346   8.164  1.2161  0.2055 -0.8204
   12CHL1   C27  885   0.175   2.552   7.963  0.0772  0.1598 -0.5726
   12CHL1  H27A  886   0.201   2.647   7.910  0.4510 -0.9713 -2.5115
   12CHL1  H27B  887   0.173   2.481   7.878  0.1473 -0.4556 -0.0594
   12CHL1  H27C  888   0.078   2.558   8.016 -0.6736 -1.2862 -1.7142
   13CHL1    C3  889   6.152   4.355   9.332 -0.3781 -0.4316  0.1384
   13CHL1    H3  890   6.185   4.461   9.336  2.0355 -1.1423  1.3559
   13CHL1    O3  891   6.136   4.307   9.464  0.5395  0.2255  0.2754
   13CHL1   H3'  892   6.216   4.314   9.517  2.0100 -0.1783 -1.7650
   13CHL1    C4  893   6.017   4.350   9.277  0.5282  0.0043  0.3756
   13CHL1   H4A  894   5.988   4.244   9.261  0.9840 -0.1507  0.5635
   13CHL1   H4B  895   5.935   4.393   9.339 -1.4765  0.8518 -2.6332
   13CHL1    C5  896   6.021   4.427   9.148 -0.2566 -0.3521  0.7406
   13CHL1    C6  897   5.936   4.529   9.132  0.2060 -0.0715  0.3928
   13CHL1    H6  898   5.864   4.546   9.213  2.5011 -2.8871  3.2649
   13CHL1    C7  899   5.927   4.613   9.013  0.1729  0.1764 -0.2521
   13CHL1   H7A  900   5.826   4.651   8.987  0.6406  2.3153  0.8191
   13CHL1   H7B  901   5.991   4.702   9.031  0.3761 -0.0755  0.2991
   13CHL1    C8  902   5.989   4.535   8.892 -0.0972  0.0620 -0.4940
   13CHL1    H8  903   5.911   4.458   8.873 -0.6420  0.6249 -0.5519
   13CHL1   C14  904   5.998   4.621   8.768  0.5220 -0.4283 -0.9888
   13CHL1   H14  905   6.070   4.701   8.795 -0.5523  0.5929 -1.0871
   13CHL1   C15  906   5.872   4.691   8.726 -0.4259  0.1793  0.4880
   13CHL1  H15A  907   5.788   4.620   8.742  1.3609 -1.8957  0.9843
   13CHL1  H15B  908   5.855   4.789   8.777 -1.4966  1.9105 -2.8651
   13CHL1   C16  909   5.891   4.715   8.575  0.3206 -0.0749  0.1916
   13CHL1  H16A  910   5.803   4.670   8.525 -0.8003 -0.3552  2.3419
   13CHL1  H16B  911   5.884   4.822   8.546  2.2247 -0.9496 -4.4394
   13CHL1   C17  912   6.030   4.668   8.536  0.0783 -0.5780  0.4377
   13CHL1   H17  913   6.097   4.753   8.558  1.3306 -1.9811  2.3784
   13CHL1   C13  914   6.057   4.558   8.640 -0.2498  1.1191  0.4688
   13CHL1   C18  915   5.971   4.435   8.597  0.0656 -0.1874  0.5549
   13CHL1  H18A  916   5.965   4.372   8.688  0.3715 -1.9876 -0.6210
   13CHL1  H18B  917   5.866   4.460   8.573  0.2960  2.2893  1.7688
   13CHL1  H18C  918   6.016   4.381   8.511 -0.6475 -1.0145  0.6940
   13CHL1   C12  919   6.205   4.522   8.675  0.6167 -0.0662 -0.1581
   13CHL1  H12A  920   6.251   4.457   8.598  1.5319 -0.0855  0.3932
   13CHL1  H12B  921   6.256   4.620   8.684  2.0672 -0.8305  0.3396
   13CHL1   C11  922   6.211   4.433   8.800  0.2380 -0.3223 -0.7879
   13CHL1  H11A  923   6.172   4.337   8.760  0.4373 -0.2609 -1.1366
   13CHL1  H11B  924   6.316   4.417   8.831  0.2843 -0.4235 -0.9958
   13CHL1    C9  925   6.127   4.481   8.924 -0.0209  0.4700  0.2214
   13CHL1    H9  926   6.188   4.570   8.950  1.2189 -0.4635  0.6153
   13CHL1   C10  927   6.121   4.381   9.040 -0.3139  0.1625  0.3147
   13CHL1   C19  928   6.069   4.245   8.999 -0.7865  0.0797 -0.4876
   13CHL1  H19A  929   5.969   4.237   8.951 -0.9691 -0.4975 -0.0186
   13CHL1  H19B  930   6.139   4.208   8.920 -0.3282  1.0527 -0.5607
   13CHL1  H19C  931   6.066   4.165   9.076 -2.2087  0.6075  0.0269
   13CHL1    C1  932   6.263   4.366   9.110  1.0676 -0.3416 -0.5043
   13CHL1   H1A  933   6.323   4.297   9.046 -2.3997 -2.3788 -1.7974
   13CHL1   H1B  934   6.311   4.466   9.122  1.6589 -0.5250 -1.2699
   13CHL1    C2  935   6.260   4.288   9.246 -0.1503 -0.4164 -0.1764
   13CHL1   H2A  936   6.352   4.305   9.306 -0.0916  0.2838 -0.4524
   13CHL1   H2B  937   6.242   4.179   9.243  2.6362 -0.9334 -0.2473
   13CHL1   C20  938   6.034   4.626   8.392 -0.0288 -0.0182  0.8710
   13CHL1   H20  939   5.953   4.556   8.362  0.7542  0.0507 -1.5299
   13CHL1   C21  940   6.175   4.567   8.366 -0.1582  0.6733  0.0892
   13CHL1  H21A  941   6.197   4.558   8.257 -0.6613 -0.2500  0.0592
   13CHL1  H21B  942   6.184   4.466   8.410  0.3554  1.3673  1.6716
   13CHL1  H21C  943   6.247   4.633   8.420 -1.3296  0.2957  2.2022
   13CHL1   C22  944   6.027   4.746   8.290 -0.5176 -0.8707  0.0209
   13CHL1  H22A  945   5.972   4.831   8.336  0.7263 -0.3347  0.5546
   13CHL1  H22B  946   6.133   4.775   8.274 -0.5159  1.0988  2.9331
   13CHL1   C23  947   5.945   4.712   8.166 -0.0546  0.0453 -0.3338
   13CHL1  H23A  948   5.843   4.680   8.193  0.4190 -1.0697  0.1859
   13CHL1  H23B  949   5.923   4.805   8.109  0.9305  0.1793 -0.5116
   13CHL1   C24  950   5.998   4.606   8.071  0.0222  0.3299  0.0177
   13CHL1  H24A  951   6.107   4.621   8.054  0.3604 -2.7311 -1.2943
   13CHL1  H24B  952   5.990   4.506   8.120  1.5834 -1.0616 -2.3860
   13CHL1   C25  953   5.945   4.619   7.926 -0.2706  0.6817  0.2412
   13CHL1   H25  954   5.834   4.614   7.931 -0.2289 -2.0754  0.1737
   13CHL1   C26  955   5.992   4.740   7.848 -0.6393 -0.3537  0.0355
   13CHL1  H26A  956   5.974   4.839   7.896  2.3174  0.1194  0.3439
   13CHL1  H26B  957   6.101   4.730   7.832 -0.0189 -0.7439  3.5869
   13CHL1  H26C  958   5.936   4.743   7.752  0.8450 -2.4490 -0.9640
   13CHL1   C27  959   5.978   4.489   7.834  0.5459  0.0211  0.4308
   13CHL1  H27A  960   6.005   4.412   7.910 -1.2536  1.8516  3.1221
   13CHL1  H27B  961   5.892   4.454   7.773  0.8061 -0.8353  0.5379
   13CHL1  H27C  962   6.049   4.527   7.758 -0.0904  0.2316 -0.0670
   14CHL1    C3  963   4.426   0.823   9.457  0.3350  0.1477  0.3547
   14CHL1    H3  964   4.521   0.881   9.464  0.0135  0.5662  1.5831
   14CHL1    O3  965   4.378   0.786   9.582  0.4948  0.4435  0.2833
   14CHL1   H3'  966   4.378   0.866   9.635  1.2062  0.7789 -0.2026
   14CHL1    C4  967   4.324   0.925   9.395  0.2376  0.8371  0.4477
   14CHL1   H4A  968   4.227   0.871   9.387  1.0967 -0.7548  0.3782
   14CHL1   H4B  969   4.321   1.016   9.458  0.6151  0.2960  1.2724
   14CHL1    C5  970   4.348   0.964   9.250  0.4859  0.9672 -0.4788
   14CHL1    C6  971   4.352   1.091   9.211 -0.6244 -0.4857  0.4232
   14CHL1    H6  972   4.345   1.164   9.293  2.6633 -1.0294  1.3654
   14CHL1    C7  973   4.369   1.137   9.072 -0.0513 -0.2257  0.1509
   14CHL1   H7A  974   4.292   1.208   9.036 -0.1602 -0.1848  0.4638
   14CHL1   H7B  975   4.465   1.191   9.068 -0.2533  0.0844 -0.6084
   14CHL1    C8  976   4.362   1.017   8.970 -0.5822 -0.2780  0.2254
   14CHL1    H8  977   4.255   0.990   8.961 -0.8288  0.8951 -0.6431
   14CHL1   C14  978   4.418   1.060   8.831  0.2184 -0.4673  0.8172
   14CHL1   H14  979   4.528   1.066   8.840  0.1018 -0.8855  3.6268
   14CHL1   C15  980   4.375   1.196   8.780 -0.0992  0.5254  0.0579
   14CHL1  H15A  981   4.264   1.200   8.781 -0.4000 -2.5060 -2.8068
   14CHL1  H15B  982   4.425   1.273   8.842  0.3353 -1.7770  2.8242
   14CHL1   C16  983   4.413   1.196   8.629 -0.0040  0.1406  0.2921
   14CHL1  H16A  984   4.327   1.238   8.573  0.3012 -0.2135 -0.4678
   14CHL1  H16B  985   4.489   1.276   8.621 -0.3580  0.6326  1.6349
   14CHL1   C17  986   4.455   1.047   8.598  0.7430  0.3629  0.5030
   14CHL1   H17  987   4.565   1.048   8.618  0.4456  1.8657  2.3337
   14CHL1   C13  988   4.400   0.962   8.716 -0.0434 -0.5074 -0.9299
   14CHL1   C18  989   4.255   0.932   8.685  0.4166 -0.6463 -0.2829
   14CHL1  H18A  990   4.208   1.024   8.644  1.3916  0.5180  1.1261
   14CHL1  H18B  991   4.251   0.854   8.605  0.2438 -1.7114  0.7468
   14CHL1  H18C  992   4.196   0.911   8.776 -0.2807  0.3442 -0.4839
   14CHL1   C12  993   4.475   0.833   8.759  0.2344 -0.0887  0.3880
   14CHL1  H12A  994   4.466   0.747   8.689 -1.7289  2.2966 -2.5470
   14CHL1  H12B  995   4.582   0.861   8.762  0.0426  0.9694 -1.3545
   14CHL1   C11  996   4.435   0.784   8.903  0.1592  0.2166 -0.0574
   14CHL1  H11A  997   4.329   0.756   8.884  0.4402 -0.5203 -0.5596
   14CHL1  H11B  998   4.493   0.696   8.936 -0.9929 -0.2671  0.7407
   14CHL1    C9  999   4.432   0.889   9.021  0.5468  0.1989 -0.3470
   14CHL1    H9 1000   4.536   0.918   9.046  0.2249 -0.8059  2.5488
   14CHL1   C10 1001   4.368   0.844   9.163  0.0894 -0.3110 -0.0803
   14CHL1   C19 1002   4.228   0.770   9.136  0.6159  0.3848  0.0417
   14CHL1  H19A 1003   4.250   0.683   9.070  2.5834 -2.4471  3.9864
   14CHL1  H19B 1004   4.172   0.738   9.227  2.1694  0.5901  1.1152
   14CHL1  H19C 1005   4.166   0.842   9.079  1.1794 -0.9918 -2.4286
   14CHL1    C1 1006   4.468   0.736   9.225  0.1790 -0.3671 -1.0524
   14CHL1   H1A 1007   4.466   0.642   9.167  1.4990 -1.9365  1.2726
   14CHL1   H1B 1008   4.567   0.783   9.206 -0.7771  1.6416 -1.3533
   14CHL1    C2 1009   4.440   0.695   9.370  0.0429  0.8962  0.5536
   14CHL1   H2A 1010   4.526   0.645   9.420  1.1694  2.1543 -0.0751
   14CHL1   H2B 1011   4.346   0.635   9.362 -0.2920  1.5411 -0.5682
   14CHL1   C20 1012   4.429   0.995   8.451  0.1659  0.3559 -0.2180
   14CHL1   H20 1013   4.319   1.001   8.438  0.0721  0.6881  0.7191
   14CHL1   C21 1014   4.495   0.854   8.428  0.2667 -0.1535 -0.4380
   14CHL1  H21A 1015   4.436   0.777   8.483  1.5002 -1.1128 -0.4256
   14CHL1  H21B 1016   4.600   0.850   8.465 -0.3709 -0.0943  1.5317
   14CHL1  H21C 1017   4.484   0.817   8.324  0.4088 -0.8976 -0.1955
   14CHL1   C22 1018   4.496   1.099   8.358  0.5604  0.3874  0.6941
   14CHL1  H22A 1019   4.451   1.200   8.369  0.8105  0.5976 -0.1450
   14CHL1  H22B 1020   4.604   1.114   8.378  0.4861  2.8857 -0.3544
   14CHL1   C23 1021   4.482   1.069   8.210  0.4220  0.3890 -0.3040
   14CHL1  H23A 1022   4.546   0.979   8.201 -0.6506 -0.3184 -1.0589
   14CHL1  H23B 1023   4.376   1.039   8.193 -0.0754  0.9777  1.4853
   14CHL1   C24 1024   4.548   1.175   8.125  0.1817 -0.0322 -0.0503
   14CHL1  H24A 1025   4.494   1.270   8.142  1.8710  0.7564  1.2095
   14CHL1  H24B 1026   4.656   1.188   8.148  0.5387 -0.4066 -1.3945
   14CHL1   C25 1027   4.560   1.135   7.980 -0.7068  0.4886 -0.2116
   14CHL1   H25 1028   4.600   1.032   7.979 -0.0626  0.6073  2.9767
   14CHL1   C26 1029   4.423   1.122   7.910 -0.6361  0.0502  0.4100
   14CHL1  H26A 1030   4.431   1.098   7.802  0.0711  0.9992  0.2407
   14CHL1  H26B 1031   4.359   1.058   7.975 -0.5259  0.5530  1.0307
   14CHL1  H26C 1032   4.377   1.223   7.917  0.5766  0.5852  0.9091
   14CHL1   C27 1033   4.655   1.228   7.897  0.0753  0.9022 -0.0044
   14CHL1  H27A 1034   4.753   1.209   7.945 -0.6039  0.3905  1.2100
   14CHL1  H27B 1035   4.657   1.192   7.792  1.0298 -0.1222  0.3461
   14CHL1  H27C 1036   4.623   1.335   7.895 -1.0255  0.5871  0.0884
   15CHL1    C3 1037   3.820   0.461   9.241  0.4141  0.3080  0.2022
   15CHL1    H3 1038   3.758   0.552   9.234 -2.6634 -1.7232 -1.3085
   15CHL1    O3 1039   3.810   0.407   9.379 -0.0455 -0.3107  0.8772
   15CHL1   H3' 1040   3.820   0.487   9.432 -0.4634 -0.5373  1.3042
   15CHL1    C4 1041   3.762   0.350   9.140 -0.3580  0.3531 -0.6465
   15CHL1   H4A 1042   3.844   0.278   9.159  0.8568  1.8221 -0.1179
   15CHL1   H4B 1043   3.669   0.299   9.174  0.7639 -0.3201  1.5743
   15CHL1    C5 1044   3.766   0.397   8.997  1.1301  0.4991  0.6410
   15CHL1    C6 1045   3.661   0.388   8.916  0.5917 -0.0233  0.0632
   15CHL1    H6 1046   3.564   0.355   8.957  0.4528  1.5035  1.0597
   15CHL1    C7 1047   3.670   0.417   8.762  0.0404 -0.7599  0.3102
   15CHL1   H7A 1048   3.619   0.332   8.711 -1.0370 -0.8653  1.5170
   15CHL1   H7B 1049   3.615   0.509   8.735  0.5369 -0.1707  1.2380
   15CHL1    C8 1050   3.819   0.434   8.702 -0.9501  0.0761  0.0432
   15CHL1    H8 1051   3.855   0.330   8.685 -0.2811  0.4463 -0.8938
   15CHL1   C14 1052   3.825   0.516   8.571 -0.7264 -0.0111 -0.8818
   15CHL1   H14 1053   3.780   0.616   8.593 -1.6536 -0.6204  0.0906
   15CHL1   C15 1054   3.737   0.462   8.456  0.7188  0.0622 -0.2536
   15CHL1  H15A 1055   3.746   0.352   8.453  0.7238  0.0238  0.8121
   15CHL1  H15B 1056   3.632   0.497   8.464  1.3376  2.1299 -0.5237
   15CHL1   C16 1057   3.798   0.527   8.334 -1.4237 -0.5910  0.0826
   15CHL1  H16A 1058   3.836   0.444   8.270 -0.8005 -1.3848  1.4439
   15CHL1  H16B 1059   3.730   0.598   8.282 -0.2221 -0.3193 -1.1785
   15CHL1   C17 1060   3.925   0.603   8.378  0.3729  0.2503 -0.2720
   15CHL1   H17 1061   3.895   0.705   8.411 -1.6897 -0.8435  1.4906
   15CHL1   C13 1062   3.968   0.540   8.515  0.4217  0.6764  0.2834
   15CHL1   C18 1063   4.033   0.402   8.481  0.2872 -0.5965 -0.1673
   15CHL1  H18A 1064   4.046   0.342   8.574 -0.2706  1.2716  1.1751
   15CHL1  H18B 1065   3.973   0.338   8.411 -0.3736 -3.0551  2.4509
   15CHL1  H18C 1066   4.130   0.417   8.429  0.1411 -1.7042 -0.8037
   15CHL1   C12 1067   4.041   0.620   8.617 -0.2888  0.2498 -0.8512
   15CHL1  H12A 1068   4.146   0.633   8.583 -0.8911 -1.3143 -3.5623
   15CHL1  H12B 1069   3.998   0.723   8.625 -1.1351 -0.1953  0.6242
   15CHL1   C11 1070   4.045   0.558   8.760 -0.1009  0.6990 -0.4401
   15CHL1  H11A 1071   4.098   0.461   8.751 -2.2239 -0.6577  0.8078
   15CHL1  H11B 1072   4.087   0.629   8.834 -2.2785  0.4976  1.1033
   15CHL1    C9 1073   3.900   0.512   8.811 -0.1413  1.0206 -0.1411
   15CHL1    H9 1074   3.842   0.606   8.816  0.3057  1.2198  1.9681
   15CHL1   C10 1075   3.904   0.440   8.952  0.3161 -0.1128 -0.4895
   15CHL1   C19 1076   3.998   0.311   8.932  0.1451 -0.0516  0.2075
   15CHL1  H19A 1077   4.013   0.248   9.023  1.9320  1.9656  1.3977
   15CHL1  H19B 1078   3.959   0.246   8.851 -0.1925  1.3846 -0.8193
   15CHL1  H19C 1079   4.103   0.336   8.906 -0.0606 -1.1505 -1.8397
   15CHL1    C1 1080   3.966   0.545   9.053 -0.0862 -0.2855  0.0020
   15CHL1   H1A 1081   4.072   0.556   9.025  0.0054  0.2055  0.5413
   15CHL1   H1B 1082   3.915   0.643   9.041 -0.2832  0.1394  3.2350
   15CHL1    C2 1083   3.963   0.500   9.202 -0.0675 -0.0686  0.3250
   15CHL1   H2A 1084   3.991   0.587   9.264  1.7748 -0.2115 -0.2447
   15CHL1   H2B 1085   4.048   0.428   9.207  0.6839  0.5751 -1.9533
   15CHL1   C20 1086   4.029   0.618   8.268  0.1447  0.6984  0.6815
   15CHL1   H20 1087   4.075   0.523   8.233  1.4851  1.0153  1.4938
   15CHL1   C21 1088   4.152   0.708   8.318  0.2033  0.1109  0.0163
   15CHL1  H21A 1089   4.109   0.784   8.386 -4.5597 -0.8399 -1.5467
   15CHL1  H21B 1090   4.201   0.744   8.225  2.1897 -1.2323  0.4726
   15CHL1  H21C 1091   4.217   0.639   8.375  0.8333  1.0065  0.4018
   15CHL1   C22 1092   3.965   0.685   8.131 -0.5633 -1.1113  0.0151
   15CHL1  H22A 1093   3.890   0.614   8.089 -2.1078 -0.1597  1.0969
   15CHL1  H22B 1094   3.907   0.776   8.157 -0.5581 -0.8975 -0.6942
   15CHL1   C23 1095   4.066   0.704   8.019  0.2161 -0.8994 -0.0026
   15CHL1  H23A 1096   4.115   0.803   8.034  1.6793 -1.4743 -0.7905
   15CHL1  H23B 1097   4.147   0.627   8.022  0.2045 -0.8817  1.0635
   15CHL1   C24 1098   3.999   0.725   7.880 -0.0983  0.3546 -0.3374
   15CHL1  H24A 1099   3.947   0.631   7.850  0.4304  0.1241 -0.5384
   15CHL1  H24B 1100   3.924   0.807   7.879  0.8256  1.2229 -0.2947
   15CHL1   C25 1101   4.092   0.762   7.767 -0.0256  0.8310  0.5025
   15CHL1   H25 1102   4.173   0.687   7.754 -1.4274 -0.5247 -0.7610
   15CHL1   C26 1103   4.017   0.748   7.631 -0.1445  0.4665 -0.4832
   15CHL1  H26A 1104   3.968   0.649   7.627  1.7893 -0.7369  2.3560
   15CHL1  H26B 1105   3.938   0.827   7.632 -1.4128 -0.7565 -0.1327
   15CHL1  H26C 1106   4.091   0.764   7.550 -0.5421 -2.9131 -1.6353
   15CHL1   C27 1107   4.153   0.903   7.781  0.4212 -0.8761  0.8602
   15CHL1  H27A 1108   4.214   0.923   7.690  0.1254 -1.5743  0.5044
   15CHL1  H27B 1109   4.067   0.973   7.796 -0.9386 -1.8932 -1.5015
   15CHL1  H27C 1110   4.217   0.909   7.871  1.3244 -2.7721  0.3936
   16CHL1    C3 1111   4.800   1.073   9.403  0.1158  0.2635  0.2271
   16CHL1    H3 1112   4.697   1.042   9.378  0.2304 -0.6325  0.8141
   16CHL1    O3 1113   4.815   1.066   9.545 -0.2227 -0.2627 -0.2478
   16CHL1   H3' 1114   4.887   1.006   9.564 -0.8129 -0.8152  0.2963
   16CHL1    C4 1115   4.891   0.978   9.330 -0.9093  0.1315  0.4819
   16CHL1   H4A 1116   4.997   0.990   9.360 -0.6233  1.3538 -0.9510
   16CHL1   H4B 1117   4.863   0.878   9.370  2.5761 -0.6380  1.3148
   16CHL1    C5 1118   4.887   0.988   9.181  0.1126  0.5460  0.7505
   16CHL1    C6 1119   4.858   0.880   9.104 -0.6286 -0.0556  0.5884
   16CHL1    H6 1120   4.842   0.779   9.146 -1.0239 -0.3983 -0.3709
   16CHL1    C7 1121   4.852   0.890   8.955 -0.6400  0.4121 -0.1119
   16CHL1   H7A 1122   4.900   0.804   8.905 -2.0027  0.0435 -0.8328
   16CHL1   H7B 1123   4.744   0.888   8.927 -0.2943  2.5997 -1.9214
   16CHL1    C8 1124   4.930   1.016   8.901 -0.2835  0.0667  0.0180
   16CHL1    H8 1125   5.040   1.009   8.915 -0.2219  1.9393  0.7514
   16CHL1   C14 1126   4.913   1.038   8.754 -0.0859 -0.1885  1.0654
   16CHL1   H14 1127   4.804   1.062   8.750 -0.5366 -2.0650  1.0149
   16CHL1   C15 1128   4.917   0.919   8.656  0.5381  0.4401 -0.0566
   16CHL1  H15A 1129   4.996   0.841   8.656 -1.3592 -1.5577  0.2382
   16CHL1  H15B 1130   4.817   0.872   8.654 -0.1159  1.8065 -0.3780
   16CHL1   C16 1131   4.945   0.994   8.520 -0.4955  0.7277 -1.0739
   16CHL1  H16A 1132   5.043   0.954   8.487 -0.6344  0.3658 -1.0625
   16CHL1  H16B 1133   4.874   0.973   8.437 -1.3458  0.3331 -0.2685
   16CHL1   C17 1134   4.941   1.151   8.541  0.0111  0.1180 -0.0929
   16CHL1   H17 1135   4.834   1.179   8.531 -0.2184  0.0192  1.7366
   16CHL1   C13 1136   4.973   1.164   8.694  0.2800 -1.0885  0.7349
   16CHL1   C18 1137   5.126   1.156   8.705 -0.1910  0.5528  0.0423
   16CHL1  H18A 1138   5.174   1.250   8.668  1.4947 -0.4830 -0.5360
   16CHL1  H18B 1139   5.158   1.150   8.811 -0.6856  0.8345  0.2106
   16CHL1  H18C 1140   5.168   1.067   8.653 -2.4363 -0.5474 -0.0181
   16CHL1   C12 1141   4.905   1.289   8.757 -0.0906 -0.1435  0.0532
   16CHL1  H12A 1142   4.935   1.388   8.715 -2.2451 -0.1270 -1.6052
   16CHL1  H12B 1143   4.796   1.279   8.738  0.2517 -0.4977 -1.9270
   16CHL1   C11 1144   4.925   1.276   8.908  0.1676  0.2481 -0.2916
   16CHL1  H11A 1145   5.035   1.284   8.918  0.5482  0.6170 -3.6408
   16CHL1  H11B 1146   4.881   1.368   8.952 -0.5456  1.2113 -2.8302
   16CHL1    C9 1147   4.881   1.141   8.975  0.3434  0.4314 -0.6885
   16CHL1    H9 1148   4.770   1.138   8.965  0.3741  0.3226 -1.0258
   16CHL1   C10 1149   4.913   1.129   9.128  0.6703  0.3215  0.3283
   16CHL1   C19 1150   5.066   1.155   9.149  0.1832 -0.7441 -0.3146
   16CHL1  H19A 1151   5.128   1.094   9.079 -0.2589 -0.4133 -1.0118
   16CHL1  H19B 1152   5.083   1.260   9.116 -1.0780 -0.0911  1.0119
   16CHL1  H19C 1153   5.089   1.150   9.257  0.2053  2.1918 -0.1072
   16CHL1    C1 1154   4.829   1.235   9.205  0.4360  0.1659  0.4270
   16CHL1   H1A 1155   4.857   1.337   9.172 -0.8980  1.7388  3.7632
   16CHL1   H1B 1156   4.722   1.220   9.179 -0.4147  1.4626  2.8669
   16CHL1    C2 1157   4.833   1.218   9.357  0.5079  0.8144  0.3972
   16CHL1   H2A 1158   4.759   1.278   9.415 -0.7774  0.1898 -0.5405
   16CHL1   H2B 1159   4.935   1.252   9.383  0.2766  1.4761  0.4533
   16CHL1   C20 1160   5.022   1.221   8.434 -0.4431  0.2505  0.7741
   16CHL1   H20 1161   5.128   1.202   8.462 -0.7307  0.1161  1.8085
   16CHL1   C21 1162   4.990   1.370   8.437 -0.0008  0.2941 -0.1531
   16CHL1  H21A 1163   5.019   1.411   8.537  1.1039  1.1990 -0.8158
   16CHL1  H21B 1164   4.881   1.380   8.419  0.4108  1.5856 -2.1897
   16CHL1  H21C 1165   5.030   1.428   8.351 -3.2362  1.0546 -1.2664
   16CHL1   C22 1166   4.985   1.157   8.295  0.2265 -0.2763  0.6893
   16CHL1  H22A 1167   5.018   1.051   8.298  0.1174 -0.3238  4.0401
   16CHL1  H22B 1168   4.878   1.156   8.265  0.3222 -1.4365  0.3193
   16CHL1   C23 1169   5.060   1.225   8.176 -0.0099 -0.0385 -0.7758
   16CHL1  H23A 1170   5.017   1.324   8.150  1.2488  0.7755  0.1222
   16CHL1  H23B 1171   5.166   1.243   8.205 -0.4422  5.1608 -1.4040
   16CHL1   C24 1172   5.058   1.140   8.058 -0.7019  0.6291  0.2742
   16CHL1  H24A 1173   5.105   1.044   8.090 -3.1952 -0.9297 -0.4721
   16CHL1  H24B 1174   4.954   1.119   8.026 -0.1260 -0.6052 -0.8987
   16CHL1   C25 1175   5.129   1.200   7.938  0.4595  0.3201  0.1803
   16CHL1   H25 1176   5.086   1.300   7.916  0.7174  0.6923  1.3159
   16CHL1   C26 1177   5.280   1.208   7.962  0.6447  0.1002 -0.5032
   16CHL1  H26A 1178   5.313   1.107   7.992  1.1695  0.1795 -0.7980
   16CHL1  H26B 1179   5.317   1.236   7.861 -2.0947  0.4339 -1.5188
   16CHL1  H26C 1180   5.306   1.280   8.042 -1.6399 -0.2758  0.6657
   16CHL1   C27 1181   5.102   1.114   7.811  0.6207  0.0713  0.0023
   16CHL1  H27A 1182   5.133   1.162   7.716  1.3441 -0.1970  0.0961
   16CHL1  H27B 1183   5.168   1.024   7.816 -0.9602 -1.3384 -2.3731
   16CHL1  H27C 1184   4.999   1.074   7.804  1.1915 -1.4382 -0.3037
   17CHL1    C3 1185   1.219   5.855   9.169  0.0152  0.8205 -0.0289
   17CHL1    H3 1186   1.151   5.771   9.194 -1.8796  1.7591 -1.7123
   17CHL1    O3 1187   1.266   5.911   9.285 -0.9954 -0.4764 -0.3383
   17CHL1   H3' 1188   1.327   5.848   9.324 -0.4413 -0.8309 -1.7177
   17CHL1    C4 1189   1.343   5.816   9.095 -0.4137 -0.6450 -0.4858
   17CHL1   H4A 1190   1.420   5.896   9.088 -1.3987  0.3684 -0.1503
   17CHL1   H4B 1191   1.396   5.748   9.165  0.2672 -1.1157 -1.4447
   17CHL1    C5 1192   1.333   5.762   8.955 -0.4233 -0.0632  0.0797
   17CHL1    C6 1193   1.381   5.637   8.925  0.3230 -0.1956 -0.4465
   17CHL1    H6 1194   1.452   5.593   8.997 -0.1576  1.5365  1.1659
   17CHL1    C7 1195   1.370   5.590   8.786 -0.9399  0.3389 -0.2094
   17CHL1   H7A 1196   1.470   5.553   8.755 -0.7146  0.0819  0.7916
   17CHL1   H7B 1197   1.296   5.509   8.767 -0.8256  0.4772 -1.3465
   17CHL1    C8 1198   1.323   5.698   8.681 -0.3472 -0.2350  0.0679
   17CHL1    H8 1199   1.403   5.769   8.652 -0.1325 -0.1609  0.8183
   17CHL1   C14 1200   1.274   5.625   8.560 -0.2397 -0.3171  0.4629
   17CHL1   H14 1201   1.188   5.569   8.604  1.2600 -0.8290  2.8864
   17CHL1   C15 1202   1.366   5.522   8.501  0.2927 -0.0084  0.0940
   17CHL1  H15A 1203   1.468   5.567   8.506  0.6711 -0.8224 -0.0846
   17CHL1  H15B 1204   1.368   5.428   8.560  2.7041  0.0691  0.2451
   17CHL1   C16 1205   1.320   5.507   8.357 -0.3335 -0.3437 -0.1472
   17CHL1  H16A 1206   1.404   5.538   8.292  0.5261  0.6186  1.3604
   17CHL1  H16B 1207   1.294   5.402   8.331 -0.5272 -0.0728 -1.0960
   17CHL1   C17 1208   1.205   5.614   8.330  0.8356  0.5663  0.2766
   17CHL1   H17 1209   1.112   5.563   8.364  0.4211  2.0900  1.5585
   17CHL1   C13 1210   1.232   5.717   8.443 -0.1585 -0.2185 -0.2131
   17CHL1   C18 1211   1.344   5.809   8.391 -0.1567  0.9356  0.0299
   17CHL1  H18A 1212   1.398   5.860   8.473 -0.0252  1.0002 -0.0973
   17CHL1  H18B 1213   1.418   5.763   8.322 -1.2592  1.9980 -1.9874
   17CHL1  H18C 1214   1.297   5.892   8.334 -0.3657 -0.5802 -2.1546
   17CHL1   C12 1215   1.115   5.799   8.501 -0.2872 -1.0940  1.0571
   17CHL1  H12A 1216   1.072   5.867   8.426  2.5594 -0.9607 -0.5823
   17CHL1  H12B 1217   1.022   5.740   8.517  0.0022 -1.8307  0.0826
   17CHL1   C11 1218   1.156   5.876   8.624 -0.0850  0.5458 -0.6565
   17CHL1  H11A 1219   1.224   5.960   8.598  0.6267 -0.3562 -1.8602
   17CHL1  H11B 1220   1.063   5.921   8.664 -1.0244 -0.0268 -2.0837
   17CHL1    C9 1221   1.210   5.784   8.734  0.2486  0.0494 -0.1800
   17CHL1    H9 1222   1.128   5.714   8.762  0.5056 -0.6438 -1.0893
   17CHL1   C10 1223   1.251   5.853   8.865 -0.4073  0.7822  0.2030
   17CHL1   C19 1224   1.336   5.971   8.834  0.0236 -0.3780 -0.4815
   17CHL1  H19A 1225   1.272   6.053   8.794 -2.1321 -1.5707  0.3698
   17CHL1  H19B 1226   1.390   6.028   8.912 -0.5697  0.5753 -0.7437
   17CHL1  H19C 1227   1.405   5.951   8.749  1.9278 -2.0976  1.3596
   17CHL1    C1 1228   1.126   5.909   8.946 -0.3138  0.1410  0.8661
   17CHL1   H1A 1229   1.081   5.982   8.877  1.6814 -0.0886 -0.7874
   17CHL1   H1B 1230   1.056   5.823   8.945  0.5050 -0.5339 -0.0684
   17CHL1    C2 1231   1.144   5.952   9.092  0.3042 -0.2267 -0.0594
   17CHL1   H2A 1232   1.049   5.983   9.140 -1.3345 -2.6258 -1.5441
   17CHL1   H2B 1233   1.204   6.045   9.087  0.2887 -0.2493 -0.7692
   17CHL1   C20 1234   1.198   5.658   8.188 -0.0432 -0.3941  0.5131
   17CHL1   H20 1235   1.293   5.701   8.151 -1.3451  1.5335 -0.8138
   17CHL1   C21 1236   1.081   5.758   8.176  0.9876 -0.0451 -0.0896
   17CHL1  H21A 1237   1.031   5.748   8.077 -1.9247  0.0361  1.2656
   17CHL1  H21B 1238   1.122   5.859   8.196  0.9800  0.4266 -2.2321
   17CHL1  H21C 1239   0.992   5.748   8.242  1.0156 -1.1098 -0.1937
   17CHL1   C22 1240   1.172   5.553   8.084  0.1539  0.5442  0.1240
   17CHL1  H22A 1241   1.133   5.604   7.993 -0.3305  0.1687  0.1199
   17CHL1  H22B 1242   1.260   5.495   8.049 -1.3073  0.2155 -3.4378
   17CHL1   C23 1243   1.048   5.462   8.119 -0.6100 -0.5723  0.0113
   17CHL1  H23A 1244   1.089   5.407   8.206 -1.3030 -0.5053  0.3888
   17CHL1  H23B 1245   0.955   5.514   8.150 -0.5521  0.7432 -1.8295
   17CHL1   C24 1246   1.007   5.371   8.001  1.0062  0.4899 -0.3281
   17CHL1  H24A 1247   0.983   5.431   7.911  1.8613  1.7688  0.2797
   17CHL1  H24B 1248   1.105   5.325   7.973  0.3512 -0.3095 -1.4296
   17CHL1   C25 1249   0.905   5.261   8.042  0.2927  0.3440  0.2034
   17CHL1   H25 1250   0.953   5.217   8.132  0.7167  3.0757  1.4202
   17CHL1   C26 1251   0.774   5.329   8.090 -0.0501  0.2414 -0.0329
   17CHL1  H26A 1252   0.693   5.254   8.103  0.0171 -0.0709 -1.3543
   17CHL1  H26B 1253   0.759   5.383   8.186 -0.5417  1.7390 -0.9125
   17CHL1  H26C 1254   0.734   5.389   8.005  2.6448  2.2659 -0.0090
   17CHL1   C27 1255   0.872   5.177   7.920 -0.6413  0.2617 -0.8195
   17CHL1  H27A 1256   0.799   5.095   7.938  2.0945 -2.1599  0.0293
   17CHL1  H27B 1257   0.841   5.243   7.836  2.2894  1.0859 -1.3647
   17CHL1  H27C 1258   0.963   5.130   7.878 -0.2173  0.4878 -0.1792
   18CHL1    C3 1259   0.654   3.938   9.485  0.1922 -1.0959  0.0164
   18CHL1    H3 1260   0.589   4.020   9.449  0.0576 -1.3989 -0.4412
   18CHL1    O3 1261   0.672   3.955   9.624  0.1835 -0.2587 -0.6490
   18CHL1   H3' 1262   0.615   4.029   9.648  0.7739 -0.7129  2.7612
   18CHL1    C4 1263   0.592   3.796   9.464  0.2969 -0.7429 -0.1526
   18CHL1   H4A 1264   0.652   3.708   9.496 -2.1379 -2.1408  0.8342
   18CHL1   H4B 1265   0.493   3.794   9.516 -1.1458 -0.9745 -2.7659
   18CHL1    C5 1266   0.580   3.773   9.317 -1.0948  0.6430  0.2921
   18CHL1    C6 1267   0.464   3.733   9.260 -0.4660 -0.2253  0.1963
   18CHL1    H6 1268   0.380   3.719   9.330  1.0843 -0.4655  2.0921
   18CHL1    C7 1269   0.438   3.697   9.115 -0.1516 -0.1981 -0.1774
   18CHL1   H7A 1270   0.387   3.600   9.102  1.0287 -0.9294  0.4660
   18CHL1   H7B 1271   0.383   3.781   9.067  1.4221 -0.5063 -2.7046
   18CHL1    C8 1272   0.573   3.693   9.041  0.0141 -0.9007  0.3513
   18CHL1    H8 1273   0.618   3.592   9.052  1.2754 -0.4049 -0.1372
   18CHL1   C14 1274   0.544   3.689   8.881 -0.1990  0.0631  0.5084
   18CHL1   H14 1275   0.505   3.792   8.867  0.6897  0.3873  0.2942
   18CHL1   C15 1276   0.444   3.588   8.822 -0.2069  0.0069  0.0341
   18CHL1  H15A 1277   0.460   3.489   8.869  0.5087 -0.2207 -0.6700
   18CHL1  H15B 1278   0.340   3.606   8.856  0.4756  3.3398  0.7377
   18CHL1   C16 1279   0.481   3.586   8.678 -0.2690  0.0397  0.1320
   18CHL1  H16A 1280   0.492   3.479   8.649 -1.9042 -0.9614  2.8663
   18CHL1  H16B 1281   0.411   3.630   8.603 -1.1367 -1.1024  0.2468
   18CHL1   C17 1282   0.622   3.658   8.661  0.9190 -0.2587  0.8428
   18CHL1   H17 1283   0.611   3.764   8.630 -2.2855 -0.5572  0.6192
   18CHL1   C13 1284   0.680   3.670   8.806 -0.1493  0.5767 -0.6884
   18CHL1   C18 1285   0.742   3.535   8.838  0.3250  0.1827 -0.0763
   18CHL1  H18A 1286   0.753   3.510   8.946 -1.3266  2.1625  0.6122
   18CHL1  H18B 1287   0.689   3.447   8.796  2.1921 -0.3380 -1.4826
   18CHL1  H18C 1288   0.847   3.533   8.802  0.7220 -2.5247  1.0046
   18CHL1   C12 1289   0.771   3.790   8.837 -0.0746 -0.4996 -0.2478
   18CHL1  H12A 1290   0.865   3.784   8.778  0.3958 -0.5639  0.4898
   18CHL1  H12B 1291   0.708   3.878   8.816  1.5618  0.4238 -1.5537
   18CHL1   C11 1292   0.795   3.806   8.983  0.0794 -0.0081  0.2921
   18CHL1  H11A 1293   0.865   3.721   9.001  2.8551  2.1722  0.5928
   18CHL1  H11B 1294   0.853   3.900   8.999  0.1375  0.9705 -4.4038
   18CHL1    C9 1295   0.674   3.804   9.078  0.7050 -0.2971 -0.2810
   18CHL1    H9 1296   0.624   3.902   9.066  0.5194 -0.3711 -0.1068
   18CHL1   C10 1297   0.708   3.804   9.230  0.1104  0.3128 -0.3125
   18CHL1   C19 1298   0.810   3.687   9.256  0.3396  0.1329  0.5563
   18CHL1  H19A 1299   0.918   3.709   9.241  0.0064  0.9496 -0.8095
   18CHL1  H19B 1300   0.794   3.645   9.358  0.5109  0.8332  0.8772
   18CHL1  H19C 1301   0.785   3.606   9.184 -0.5676  0.7248  0.1976
   18CHL1    C1 1302   0.767   3.943   9.266  0.1393 -0.4678 -0.2749
   18CHL1   H1A 1303   0.863   3.958   9.211  0.6671  1.0515  1.0027
   18CHL1   H1B 1304   0.694   4.018   9.226  0.1959 -0.5278 -0.4947
   18CHL1    C2 1305   0.785   3.959   9.416 -0.0921  0.0590  0.6523
   18CHL1   H2A 1306   0.814   4.064   9.436 -0.7862  0.4966 -0.5124
   18CHL1   H2B 1307   0.867   3.889   9.445  1.3424  1.4270  0.0789
   18CHL1   C20 1308   0.713   3.576   8.560  0.1955 -0.6567  0.1162
   18CHL1   H20 1309   0.732   3.473   8.596 -0.7075 -0.4696  1.1847
   18CHL1   C21 1310   0.849   3.645   8.541 -0.1702 -0.0252  0.0544
   18CHL1  H21A 1311   0.897   3.603   8.450  1.1325  1.1245  0.1667
   18CHL1  H21B 1312   0.925   3.622   8.619  0.3213 -0.3905 -0.5298
   18CHL1  H21C 1313   0.841   3.754   8.520  1.8645 -0.3290 -2.8462
   18CHL1   C22 1314   0.645   3.564   8.419 -0.2336 -0.1898 -0.5710
   18CHL1  H22A 1315   0.539   3.530   8.432 -0.1024 -0.1391  0.7620
   18CHL1  H22B 1316   0.649   3.661   8.365 -2.7263 -0.0723 -0.6607
   18CHL1   C23 1317   0.712   3.467   8.324 -0.0223 -0.3780  0.0176
   18CHL1  H23A 1318   0.811   3.505   8.292  0.0446 -1.2916 -0.8988
   18CHL1  H23B 1319   0.739   3.370   8.372 -3.5327 -2.4038 -1.6860
   18CHL1   C24 1320   0.628   3.446   8.195 -1.4932  0.0251  0.0756
   18CHL1  H24A 1321   0.534   3.398   8.229 -0.7903 -2.2821 -1.0457
   18CHL1  H24B 1322   0.607   3.538   8.136 -2.9970 -1.1219 -1.2641
   18CHL1   C25 1323   0.694   3.353   8.090  0.8088 -0.6403  0.4464
   18CHL1   H25 1324   0.705   3.254   8.138  1.3152 -0.3461  0.9511
   18CHL1   C26 1325   0.597   3.340   7.966  0.2431  0.3005 -0.7376
   18CHL1  H26A 1326   0.491   3.329   7.997  0.3504  0.6141 -0.2364
   18CHL1  H26B 1327   0.604   3.433   7.905 -2.2690  0.5182 -0.7833
   18CHL1  H26C 1328   0.628   3.245   7.919  2.2287 -0.1360  1.2733
   18CHL1   C27 1329   0.827   3.401   8.033  0.3871  0.0218  0.0091
   18CHL1  H27A 1330   0.847   3.341   7.942 -1.3637 -1.8633  0.7787
   18CHL1  H27B 1331   0.819   3.505   7.996 -3.4453 -1.0969 -2.9886
   18CHL1  H27C 1332   0.899   3.389   8.117 -0.3647 -2.4976  0.3735
   19CHL1    C3 1333   4.389   6.625   9.359  0.9316 -1.0114  0.7741
   19CHL1    H3 1334   4.350   6.728   9.354  1.3679 -0.8950 -1.1782
   19CHL1    O3 1335   4.419   6.610   9.495 -0.0004  0.1612 -0.4867
   19CHL1   H3' 1336   4.405   6.515   9.498  0.1796  0.1287 -0.6991
   19CHL1    C4 1337   4.287   6.518   9.313 -0.4668  0.2174 -0.1091
   19CHL1   H4A 1338   4.329   6.416   9.329 -1.8651 -0.6580 -1.6769
   19CHL1   H4B 1339   4.191   6.530   9.368 -0.2675  1.5124 -0.0096
   19CHL1    C5 1340   4.268   6.534   9.160 -0.3538  0.2190 -0.0921
   19CHL1    C6 1341   4.148   6.554   9.111  0.3863  0.1271  0.5169
   19CHL1    H6 1342   4.060   6.546   9.176 -2.2803 -2.9638 -3.0328
   19CHL1    C7 1343   4.116   6.568   8.961 -0.4041 -0.1258 -1.0229
   19CHL1   H7A 1344   4.026   6.504   8.945  0.2609 -1.4222  0.1789
   19CHL1   H7B 1345   4.101   6.674   8.930  2.1302  0.3880 -0.6547
   19CHL1    C8 1346   4.233   6.503   8.884  0.3422 -0.2480  0.0999
   19CHL1    H8 1347   4.211   6.395   8.877 -0.0153 -0.1472 -0.3685
   19CHL1   C14 1348   4.222   6.555   8.738 -0.6664  0.1667 -0.8853
   19CHL1   H14 1349   4.245   6.662   8.752  0.7193 -0.2082 -0.0355
   19CHL1   C15 1350   4.089   6.548   8.661  0.5645 -0.2688  0.4064
   19CHL1  H15A 1351   4.069   6.438   8.667  1.9746 -0.4917  1.6226
   19CHL1  H15B 1352   3.999   6.605   8.692  0.2791  1.6189 -3.3847
   19CHL1   C16 1353   4.115   6.584   8.511  0.0068  0.4612 -1.3518
   19CHL1  H16A 1354   4.072   6.508   8.442 -1.7486 -0.4812  0.6631
   19CHL1  H16B 1355   4.078   6.684   8.479  1.0631  1.0249 -0.8891
   19CHL1   C17 1356   4.278   6.580   8.514 -0.0583 -0.4949  0.1450
   19CHL1   H17 1357   4.308   6.684   8.539 -0.9802 -0.5458  1.5593
   19CHL1   C13 1358   4.328   6.505   8.641 -0.1447  1.1031  0.2255
   19CHL1   C18 1359   4.324   6.350   8.622  0.0996  0.0374  0.7123
   19CHL1  H18A 1360   4.314   6.295   8.718 -1.5195 -3.1389 -1.1157
   19CHL1  H18B 1361   4.241   6.327   8.553  0.3635 -0.8425  0.6738
   19CHL1  H18C 1362   4.416   6.310   8.573  0.7024 -0.9361  2.5540
   19CHL1   C12 1363   4.466   6.552   8.693  0.1174  0.0067 -0.2500
   19CHL1  H12A 1364   4.541   6.516   8.620 -0.3791 -0.2335 -0.6443
   19CHL1  H12B 1365   4.464   6.663   8.700 -1.3915 -0.0912  1.9485
   19CHL1   C11 1366   4.495   6.504   8.831  0.9666 -0.3442  0.2715
   19CHL1  H11A 1367   4.511   6.394   8.835 -0.4513 -0.5299  2.7879
   19CHL1  H11B 1368   4.590   6.549   8.866  2.4629  0.0732 -3.7485
   19CHL1    C9 1369   4.378   6.543   8.927  0.2197 -0.2933 -0.1508
   19CHL1    H9 1370   4.365   6.653   8.929 -0.0480 -0.3298  0.6469
   19CHL1   C10 1371   4.400   6.515   9.076 -0.1264 -0.2012  0.2716
   19CHL1   C19 1372   4.450   6.365   9.098  0.4142 -0.4214 -0.2406
   19CHL1  H19A 1373   4.377   6.293   9.055 -0.2562 -0.5344  1.0469
   19CHL1  H19B 1374   4.552   6.365   9.054  1.3017  0.1310  1.6968
   19CHL1  H19C 1375   4.465   6.339   9.205  0.5950 -1.6536 -0.5608
   19CHL1    C1 1376   4.503   6.616   9.138 -0.1307  0.3256  0.4282
   19CHL1   H1A 1377   4.600   6.595   9.089 -0.3516  0.0183  0.1077
   19CHL1   H1B 1378   4.470   6.720   9.117 -0.1567  0.3519  0.6015
   19CHL1    C2 1379   4.524   6.621   9.285  0.2746 -0.1900 -0.8544
   19CHL1   H2A 1380   4.586   6.707   9.317  0.0140 -0.5898  0.8206
   19CHL1   H2B 1381   4.568   6.525   9.319  0.7667 -0.4468 -2.1320
   19CHL1   C20 1382   4.337   6.539   8.384  0.0119  0.1452  0.2877
   19CHL1   H20 1383   4.432   6.486   8.405  1.9143  2.7516 -1.1119
   19CHL1   C21 1384   4.389   6.658   8.303 -0.1253  0.0610 -0.0322
   19CHL1  H21A 1385   4.450   6.629   8.214 -0.7126 -0.2546 -0.3353
   19CHL1  H21B 1386   4.436   6.730   8.373 -0.4243 -0.0741  0.3093
   19CHL1  H21C 1387   4.304   6.713   8.257  0.2102  0.3850 -0.2689
   19CHL1   C22 1388   4.261   6.440   8.284  0.3332 -0.2022 -0.1712
   19CHL1  H22A 1389   4.195   6.370   8.339 -1.2631  1.0344 -0.4326
   19CHL1  H22B 1390   4.184   6.503   8.233  0.3807  1.3633  1.5964
   19CHL1   C23 1391   4.347   6.361   8.182 -0.3153  0.9863  0.4846
   19CHL1  H23A 1392   4.272   6.315   8.114  0.6152 -0.3198  0.3140
   19CHL1  H23B 1393   4.413   6.429   8.124  0.2328 -1.5400 -2.0537
   19CHL1   C24 1394   4.436   6.253   8.249 -0.1122  0.3023 -0.2970
   19CHL1  H24A 1395   4.496   6.303   8.328  0.0604  0.4424 -0.5138
   19CHL1  H24B 1396   4.363   6.183   8.296  0.5334  0.6728  1.3553
   19CHL1   C25 1397   4.526   6.174   8.159  0.6661  0.4183 -0.6859
   19CHL1   H25 1398   4.468   6.106   8.093  3.1848  0.2086 -2.8414
   19CHL1   C26 1399   4.610   6.266   8.077 -0.7644 -0.3183 -0.3475
   19CHL1  H26A 1400   4.555   6.320   7.996 -0.4169  2.5409  1.1928
   19CHL1  H26B 1401   4.659   6.341   8.143 -0.9070  0.6324 -1.2721
   19CHL1  H26C 1402   4.697   6.212   8.035  0.1691  1.1070 -0.3195
   19CHL1   C27 1403   4.612   6.083   8.250  0.2722 -0.0675 -0.0417
   19CHL1  H27A 1404   4.546   6.004   8.292  0.7571 -1.4274 -1.7276
   19CHL1  H27B 1405   4.689   6.024   8.195 -1.1670 -0.8667 -1.2972
   19CHL1  H27C 1406   4.653   6.146   8.331 -1.3075 -2.3492  2.7023
   20CHL1    C3 1407   0.933   1.556   9.359 -0.0076 -0.1052  0.2114
   20CHL1    H3 1408   0.909   1.455   9.398  2.9270 -0.4058  1.5145
   20CHL1    O3 1409   0.942   1.645   9.472 -0.8179  0.1976  0.1929
   20CHL1   H3' 1410   0.854   1.638   9.509 -0.0430  0.2182  2.1232
   20CHL1    C4 1411   1.067   1.544   9.294  0.0836  0.8191 -0.0079
   20CHL1   H4A 1412   1.093   1.646   9.258  0.8822  1.5579  2.4245
   20CHL1   H4B 1413   1.138   1.518   9.375  1.1340 -0.3763 -1.2710
   20CHL1    C5 1414   1.060   1.449   9.175  0.7340  0.4179  0.1195
   20CHL1    C6 1415   1.140   1.346   9.160 -0.4314  0.2588 -0.0299
   20CHL1    H6 1416   1.208   1.319   9.242  0.7014  3.9047  0.3825
   20CHL1    C7 1417   1.146   1.264   9.039 -0.5851  0.5212 -0.3474
   20CHL1   H7A 1418   1.249   1.271   8.999 -0.2165 -1.5265  0.1408
   20CHL1   H7B 1419   1.116   1.159   9.058  0.7826  0.2602  0.4878
   20CHL1    C8 1420   1.061   1.315   8.922  0.0305  0.7452  0.3897
   20CHL1    H8 1421   1.117   1.396   8.869  0.2245  0.1880 -0.2763
   20CHL1   C14 1422   1.030   1.202   8.821 -0.1437  0.8188 -0.4836
   20CHL1   H14 1423   0.969   1.124   8.871 -0.6128  1.0943 -0.6152
   20CHL1   C15 1424   1.150   1.114   8.771 -0.3111  0.2465  0.3729
   20CHL1  H15A 1425   1.243   1.172   8.758  0.7157 -1.3077  0.4500
   20CHL1  H15B 1426   1.166   1.019   8.827 -1.2211  0.2851  0.7157
   20CHL1   C16 1427   1.109   1.066   8.632 -0.2982 -0.2756  0.1335
   20CHL1  H16A 1428   1.178   1.110   8.557  0.1856  0.5804  1.0670
   20CHL1  H16B 1429   1.114   0.955   8.621  1.7566 -0.2698  0.7168
   20CHL1   C17 1430   0.965   1.118   8.612  0.3412  0.2925 -0.3337
   20CHL1   H17 1431   0.896   1.047   8.663  0.8778  0.8364  1.2250
   20CHL1   C13 1432   0.949   1.245   8.698 -0.0790  0.4560 -0.3882
   20CHL1   C18 1433   1.005   1.358   8.622 -0.3410 -0.4476  0.3530
   20CHL1  H18A 1434   0.943   1.387   8.534  2.0819 -0.8573 -1.6305
   20CHL1  H18B 1435   1.015   1.441   8.695  1.8399 -2.8715  3.0155
   20CHL1  H18C 1436   1.104   1.330   8.580 -0.3213 -1.1043  0.8215
   20CHL1   C12 1437   0.811   1.289   8.755 -0.7101  0.5583 -0.6978
   20CHL1  H12A 1438   0.737   1.312   8.675  0.3993  1.4430 -1.5066
   20CHL1  H12B 1439   0.773   1.196   8.802 -1.1078  0.6428 -0.8505
   20CHL1   C11 1440   0.817   1.399   8.866  0.2477 -0.4569  0.1440
   20CHL1  H11A 1441   0.847   1.493   8.815 -0.7229  0.4687  1.2224
   20CHL1  H11B 1442   0.714   1.407   8.906  0.7786 -0.0149  1.4837
   20CHL1    C9 1443   0.926   1.370   8.967 -0.3165  0.0887  0.4348
   20CHL1    H9 1444   0.882   1.289   9.028 -2.6406 -0.9821 -2.4076
   20CHL1   C10 1445   0.953   1.490   9.065  0.4307  0.9201 -0.2677
   20CHL1   C19 1446   1.001   1.613   8.994 -0.2570  0.0065 -0.1770
   20CHL1  H19A 1447   0.922   1.667   8.938 -0.4955 -1.2389 -1.0803
   20CHL1  H19B 1448   1.049   1.688   9.061  1.1708 -0.9226 -0.1028
   20CHL1  H19C 1449   1.076   1.581   8.918 -1.7069  0.0481 -1.6859
   20CHL1    C1 1450   0.819   1.520   9.139  0.3894  0.0503 -0.2467
   20CHL1   H1A 1451   0.740   1.554   9.069 -1.1294 -1.0173  0.8657
   20CHL1   H1B 1452   0.779   1.422   9.175 -2.1865  0.8918 -0.6497
   20CHL1    C2 1453   0.828   1.605   9.258  0.6272 -0.9010 -0.5835
   20CHL1   H2A 1454   0.727   1.622   9.302  0.1044 -2.7088 -1.0155
   20CHL1   H2B 1455   0.865   1.707   9.232  0.7460 -0.9123 -0.4584
   20CHL1   C20 1456   0.930   1.123   8.464 -0.2417  0.4326  0.1598
   20CHL1   H20 1457   0.994   1.200   8.416 -1.5162  1.8571  0.6554
   20CHL1   C21 1458   0.783   1.166   8.444  0.0406 -0.5846  0.2423
   20CHL1  H21A 1459   0.726   1.098   8.512  2.1133 -2.0216  0.6505
   20CHL1  H21B 1460   0.752   1.158   8.338 -0.2563 -0.8930  0.3465
   20CHL1  H21C 1461   0.769   1.274   8.464  1.3887 -0.1392 -1.0450
   20CHL1   C22 1462   0.956   0.986   8.388  0.4831 -0.3813 -0.6319
   20CHL1  H22A 1463   1.066   0.973   8.390  0.6525  0.8247  1.3949
   20CHL1  H22B 1464   0.904   0.900   8.437 -0.9591 -1.0298 -3.1079
   20CHL1   C23 1465   0.914   0.986   8.243 -0.3724  0.8117 -0.1157
   20CHL1  H23A 1466   0.803   0.984   8.238 -0.6169 -2.2392  2.7505
   20CHL1  H23B 1467   0.956   1.067   8.179 -1.8511  0.2102 -1.9323
   20CHL1   C24 1468   0.953   0.849   8.184  0.2393 -0.4024  0.6167
   20CHL1  H24A 1469   1.063   0.833   8.192  0.2984  0.1923  1.0824
   20CHL1  H24B 1470   0.909   0.761   8.235 -0.3896 -0.0703  0.6525
   20CHL1   C25 1471   0.920   0.834   8.035  0.5009  0.1818  0.5013
   20CHL1   H25 1472   0.951   0.921   7.972 -0.1756 -0.9556 -1.5087
   20CHL1   C26 1473   0.997   0.720   7.975 -0.4974  0.3483 -0.7138
   20CHL1  H26A 1474   0.975   0.695   7.869 -1.2842 -2.1930 -0.0202
   20CHL1  H26B 1475   1.108   0.728   7.988 -0.6405 -0.5010  1.4030
   20CHL1  H26C 1476   0.966   0.632   8.035  0.1360 -0.1951 -1.1718
   20CHL1   C27 1477   0.766   0.814   8.015  0.4119  0.0625  0.0178
   20CHL1  H27A 1478   0.727   0.808   7.911  1.0066  2.1536 -0.3655
   20CHL1  H27B 1479   0.724   0.730   8.074  0.3802 -1.1532 -1.6614
   20CHL1  H27C 1480   0.708   0.899   8.056 -0.8461 -0.0051 -1.5317
   21CHL1    C3 1481   6.924   3.591   9.476 -0.1444  0.2812 -0.1638
   21CHL1    H3 1482   7.030   3.560   9.483  0.0816  0.5634 -1.8698
   21CHL1    O3 1483   6.865   3.579   9.604  0.1516  0.0518  0.5799
   21CHL1   H3' 1484   6.807   3.503   9.595  0.8255 -0.3864 -0.2141
   21CHL1    C4 1485   6.939   3.738   9.435  0.2353  0.0440  0.5954
   21CHL1   H4A 1486   6.835   3.776   9.450 -0.8772 -2.8229  0.7212
   21CHL1   H4B 1487   6.996   3.788   9.516 -0.5227 -0.6711  1.6067
   21CHL1    C5 1488   6.989   3.746   9.289  0.2332 -0.8137 -0.8652
   21CHL1    C6 1489   7.098   3.819   9.260  0.1360  0.0927 -0.9144
   21CHL1    H6 1490   7.157   3.881   9.329  1.1567  0.0641 -1.7365
   21CHL1    C7 1491   7.149   3.822   9.122 -0.1750  0.1464  0.4098
   21CHL1   H7A 1492   7.171   3.925   9.087 -0.9812  0.2613  0.2196
   21CHL1   H7B 1493   7.247   3.770   9.113 -0.4075 -0.1796 -0.3197
   21CHL1    C8 1494   7.064   3.756   9.011 -0.3274 -0.4268  0.6629
   21CHL1    H8 1495   6.994   3.834   8.973  2.2380  1.1228 -1.2306
   21CHL1   C14 1496   7.147   3.735   8.881  0.1839  0.0637 -0.9790
   21CHL1   H14 1497   7.217   3.653   8.909 -0.4611  0.0215  0.6098
   21CHL1   C15 1498   7.233   3.849   8.821  0.7830  0.1892 -0.1606
   21CHL1  H15A 1499   7.171   3.940   8.835 -2.7659 -2.0502 -0.0797
   21CHL1  H15B 1500   7.325   3.851   8.883  1.3876 -0.6895 -1.0066
   21CHL1   C16 1501   7.244   3.806   8.679  0.1290  0.1486 -0.3170
   21CHL1  H16A 1502   7.194   3.877   8.610  2.2333  0.2162 -1.8675
   21CHL1  H16B 1503   7.348   3.801   8.641 -0.4085  0.6319 -1.9336
   21CHL1   C17 1504   7.172   3.666   8.660  0.3349  0.4373 -0.2239
   21CHL1   H17 1505   7.235   3.578   8.683 -0.0195  0.7930  2.3652
   21CHL1   C13 1506   7.066   3.670   8.772  0.2623 -0.5631  0.4939
   21CHL1   C18 1507   6.944   3.749   8.725  1.0263 -0.0605 -0.6206
   21CHL1  H18A 1508   6.870   3.767   8.806  3.4244  3.7002  1.0039
   21CHL1  H18B 1509   6.977   3.845   8.681  0.9114 -0.0087 -0.5935
   21CHL1  H18C 1510   6.889   3.689   8.649 -0.4241 -0.7201  0.8818
   21CHL1   C12 1511   7.018   3.531   8.823  0.1568  0.1885 -0.1242
   21CHL1  H12A 1512   6.957   3.487   8.741  0.7912  0.1855 -0.6036
   21CHL1  H12B 1513   7.116   3.477   8.830  0.4846  0.9339  1.2844
   21CHL1   C11 1514   6.948   3.531   8.957  0.4140  0.2806 -0.9142
   21CHL1  H11A 1515   6.846   3.571   8.944  0.0320 -0.1746  0.4885
   21CHL1  H11B 1516   6.938   3.429   9.001  1.7525 -0.1541 -1.5576
   21CHL1    C9 1517   7.016   3.626   9.060  0.2480 -0.3512  0.1329
   21CHL1    H9 1518   7.107   3.568   9.086  0.4276 -1.5818 -2.8124
   21CHL1   C10 1519   6.928   3.655   9.185 -0.1370  0.0153  0.2167
   21CHL1   C19 1520   6.790   3.725   9.153 -0.2101  0.1316  0.2086
   21CHL1  H19A 1521   6.819   3.817   9.098 -1.7920  0.1273 -0.6882
   21CHL1  H19B 1522   6.724   3.667   9.086  1.6740 -1.1173 -0.6526
   21CHL1  H19C 1523   6.745   3.758   9.249  0.0028  0.6008  0.1513
   21CHL1    C1 1524   6.896   3.512   9.247  1.0450  0.3017  0.1996
   21CHL1   H1A 1525   6.835   3.452   9.177 -1.7084  1.2416  1.6271
   21CHL1   H1B 1526   6.985   3.452   9.273  0.0877 -0.2518  2.3770
   21CHL1    C2 1527   6.833   3.521   9.380 -0.5979 -0.0769 -0.0206
   21CHL1   H2A 1528   6.812   3.417   9.415 -2.1375 -0.0998 -0.9059
   21CHL1   H2B 1529   6.743   3.585   9.377 -0.6148 -0.1046 -0.1127
   21CHL1   C20 1530   7.130   3.641   8.514 -0.5569 -0.2417  0.2808
   21CHL1   H20 1531   7.071   3.727   8.476  0.8081  0.7986  0.4128
   21CHL1   C21 1532   7.044   3.517   8.492 -0.3293 -0.3800 -0.2318
   21CHL1  H21A 1533   6.992   3.517   8.393  0.3810 -0.9013 -0.6150
   21CHL1  H21B 1534   6.962   3.489   8.561  0.0807 -2.5200 -0.5371
   21CHL1  H21C 1535   7.111   3.429   8.499  0.1889  0.0877  0.7903
   21CHL1   C22 1536   7.257   3.640   8.423 -0.5470 -0.2272 -1.0627
   21CHL1  H22A 1537   7.317   3.734   8.422  0.6902 -0.9815 -3.0147
   21CHL1  H22B 1538   7.328   3.561   8.455 -2.5654 -2.3386 -1.5650
   21CHL1   C23 1539   7.234   3.612   8.271 -0.7714 -0.7656  0.1271
   21CHL1  H23A 1540   7.159   3.531   8.258 -1.7929  0.2726 -0.7171
   21CHL1  H23B 1541   7.195   3.703   8.220  2.9235  0.6133 -0.5151
   21CHL1   C24 1542   7.377   3.589   8.198  0.5343 -0.0064 -0.5345
   21CHL1  H24A 1543   7.441   3.678   8.218  0.2797 -0.3047  1.9719
   21CHL1  H24B 1544   7.423   3.497   8.238  1.0288 -0.0533 -1.2022
   21CHL1   C25 1545   7.369   3.571   8.048  0.1571  0.6243  0.5676
   21CHL1   H25 1546   7.290   3.645   8.020  1.4235  1.6713 -0.3687
   21CHL1   C26 1547   7.504   3.620   7.988  0.5996 -0.2616  0.4070
   21CHL1  H26A 1548   7.524   3.728   7.998  0.1872 -0.1752  0.3208
   21CHL1  H26B 1549   7.585   3.561   8.036  0.3550  0.2427  1.4488
   21CHL1  H26C 1550   7.516   3.580   7.885 -1.0350  0.0641  0.0567
   21CHL1   C27 1551   7.337   3.427   8.006  0.7599 -0.7778  0.1301
   21CHL1  H27A 1552   7.249   3.400   8.068  1.2776  2.0158  2.2850
   21CHL1  H27B 1553   7.316   3.421   7.897 -0.7533 -2.2390  0.4607
   21CHL1  H27C 1554   7.422   3.358   8.025  1.4000  0.4823  2.2447
   22CHL1    C3 1555   6.999   4.327   9.573 -0.1109  0.0830  0.6413
   22CHL1    H3 1556   7.058   4.419   9.557  1.7914 -1.3972 -1.4686
   22CHL1    O3 1557   7.005   4.305   9.712  0.0434  0.2531  0.0460
   22CHL1   H3' 1558   7.000   4.396   9.742 -2.3048 -0.1131  1.0391
   22CHL1    C4 1559   6.853   4.329   9.525  0.0913  0.0141 -0.7018
   22CHL1   H4A 1560   6.794   4.246   9.570 -1.7475 -0.6470 -3.9824
   22CHL1   H4B 1561   6.822   4.422   9.577  0.7260 -1.0689  1.7442
   22CHL1    C5 1562   6.837   4.332   9.375 -0.0283  0.1964 -0.4760
   22CHL1    C6 1563   6.755   4.420   9.319  0.4637 -0.3196  0.2217
   22CHL1    H6 1564   6.697   4.493   9.377  0.2946 -1.1697  1.1494
   22CHL1    C7 1565   6.727   4.430   9.175  0.0787  0.0613  0.0506
   22CHL1   H7A 1566   6.618   4.445   9.161  0.0389 -0.5209 -0.2784
   22CHL1   H7B 1567   6.784   4.516   9.134 -0.5816  0.8744  0.8234
   22CHL1    C8 1568   6.779   4.309   9.098  0.3840  0.4631  0.5707
   22CHL1    H8 1569   6.706   4.229   9.123  0.5765  0.5470  1.4479
   22CHL1   C14 1570   6.783   4.340   8.947  0.5218  0.0688 -0.2456
   22CHL1   H14 1571   6.854   4.424   8.933  0.7601  0.4022  2.3680
   22CHL1   C15 1572   6.644   4.380   8.888 -1.0898  0.3857 -0.6775
   22CHL1  H15A 1573   6.565   4.313   8.927  0.4899 -0.0828  1.9741
   22CHL1  H15B 1574   6.621   4.486   8.912 -0.1648  0.2920  0.7760
   22CHL1   C16 1575   6.664   4.355   8.742  0.0659  0.0731 -0.5989
   22CHL1  H16A 1576   6.584   4.290   8.702  0.3634 -1.2830  0.9022
   22CHL1  H16B 1577   6.657   4.455   8.695  0.1167  0.8691  1.0048
   22CHL1   C17 1578   6.813   4.290   8.721 -0.2276 -0.1345  0.6341
   22CHL1   H17 1579   6.875   4.379   8.697  1.4415 -1.2009  0.8493
   22CHL1   C13 1580   6.830   4.220   8.859  0.5753 -0.3060  0.5036
   22CHL1   C18 1581   6.725   4.103   8.866  0.2351  0.2516 -0.5407
   22CHL1  H18A 1582   6.638   4.127   8.800 -0.2758 -2.7255 -1.0964
   22CHL1  H18B 1583   6.781   4.017   8.823  0.2002  1.0177 -2.2086
   22CHL1  H18C 1584   6.695   4.078   8.970  3.2340 -2.8060 -0.2510
   22CHL1   C12 1585   6.972   4.194   8.904 -0.2505  0.0216 -0.1538
   22CHL1  H12A 1586   7.020   4.112   8.846 -0.5888 -2.0693  2.3385
   22CHL1  H12B 1587   7.046   4.275   8.888 -1.1924  1.5411  2.5449
   22CHL1   C11 1588   6.986   4.163   9.054  0.4870  0.4242  0.6151
   22CHL1  H11A 1589   6.940   4.062   9.055  1.6841 -0.2872 -2.9002
   22CHL1  H11B 1590   7.091   4.148   9.087 -0.0910 -0.1436  2.3060
   22CHL1    C9 1591   6.913   4.262   9.151  0.6827  0.7258 -0.5789
   22CHL1    H9 1592   6.971   4.358   9.146 -1.2989  2.3123  3.0674
   22CHL1   C10 1593   6.913   4.225   9.297  0.1219  0.3179 -0.4054
   22CHL1   C19 1594   6.849   4.085   9.311  0.2480  0.4573 -0.0986
   22CHL1  H19A 1595   6.741   4.079   9.289  0.0313  2.9251 -0.0527
   22CHL1  H19B 1596   6.910   4.007   9.260  1.2640  1.6238 -0.7610
   22CHL1  H19C 1597   6.846   4.049   9.415 -1.4978 -0.1518 -0.3314
   22CHL1    C1 1598   7.059   4.207   9.349 -0.3709  0.1780 -0.0785
   22CHL1   H1A 1599   7.104   4.116   9.304  0.5339  0.9573 -0.7653
   22CHL1   H1B 1600   7.114   4.294   9.310  0.6904 -0.2407  0.4386
   22CHL1    C2 1601   7.074   4.204   9.502 -0.3435 -0.0570 -0.4659
   22CHL1   H2A 1602   7.184   4.207   9.519 -0.2585 -2.7724 -0.1457
   22CHL1   H2B 1603   7.041   4.101   9.527 -1.0958  0.1909 -0.4338
   22CHL1   C20 1604   6.820   4.203   8.594  0.0449  0.3508  0.0540
   22CHL1   H20 1605   6.746   4.120   8.600 -0.7729  1.1630  2.5671
   22CHL1   C21 1606   6.961   4.137   8.589  0.1564 -0.1575  0.0708
   22CHL1  H21A 1607   7.038   4.213   8.612  1.6253 -1.4428 -0.3425
   22CHL1  H21B 1608   6.974   4.097   8.485 -0.0157  2.3921 -0.9887
   22CHL1  H21C 1609   6.988   4.060   8.664  2.3256  0.6265  0.1642
   22CHL1   C22 1610   6.787   4.288   8.465  0.4272 -0.0119 -0.3041
   22CHL1  H22A 1611   6.716   4.368   8.494  1.9598  1.2513  0.1418
   22CHL1  H22B 1612   6.880   4.346   8.448  2.0130 -1.7176  1.8695
   22CHL1   C23 1613   6.721   4.208   8.353  0.5633  0.0892 -0.0220
   22CHL1  H23A 1614   6.780   4.124   8.310  1.0719  0.8502 -0.8518
   22CHL1  H23B 1615   6.633   4.158   8.398 -0.0415  0.6625 -0.5357
   22CHL1   C24 1616   6.686   4.306   8.237  0.2420  0.6631  0.6819
   22CHL1  H24A 1617   6.618   4.392   8.254 -0.3268  1.4922 -4.3817
   22CHL1  H24B 1618   6.778   4.355   8.200 -1.4229  2.2980 -1.5398
   22CHL1   C25 1619   6.637   4.233   8.102 -0.2146  0.1881  0.1355
   22CHL1   H25 1620   6.711   4.152   8.090  1.0328  1.5500 -2.1067
   22CHL1   C26 1621   6.493   4.167   8.121 -0.1824 -0.3441 -0.0795
   22CHL1  H26A 1622   6.473   4.105   8.031 -0.5722  1.9977 -1.7165
   22CHL1  H26B 1623   6.483   4.109   8.214 -0.3743  1.9911  1.4449
   22CHL1  H26C 1624   6.413   4.244   8.114 -0.6176 -0.7112  0.7917
   22CHL1   C27 1625   6.628   4.333   7.981  0.2768  0.3026 -0.2093
   22CHL1  H27A 1626   6.731   4.366   7.958  0.6735  1.6871  3.0414
   22CHL1  H27B 1627   6.593   4.282   7.889  1.1451  0.5920 -0.7072
   22CHL1  H27C 1628   6.570   4.426   8.002  0.6821  0.5279 -0.0810
   23CHL1    C3 1629   3.421   6.920   9.364 -0.3583 -0.0338 -0.0541
   23CHL1    H3 1630   3.488   7.004   9.392  0.9804 -1.2740  0.5516
   23CHL1    O3 1631   3.401   6.848   9.484 -0.0459 -0.9614 -0.4801
   23CHL1   H3' 1632   3.461   6.775   9.467  0.0243 -1.0626  0.1847
   23CHL1    C4 1633   3.287   6.980   9.319  0.0611  0.9208 -0.3807
   23CHL1   H4A 1634   3.203   6.909   9.305 -0.5233  1.4438  0.4638
   23CHL1   H4B 1635   3.260   7.051   9.399 -0.1691  0.3063  0.0894
   23CHL1    C5 1636   3.317   7.053   9.186 -0.0759 -0.0976 -0.3046
   23CHL1    C6 1637   3.297   7.182   9.181  0.9550 -0.3644  0.3682
   23CHL1    H6 1638   3.249   7.239   9.262 -0.4296 -1.3428  0.2722
   23CHL1    C7 1639   3.337   7.270   9.060 -0.2354 -0.0502  0.1192
   23CHL1   H7A 1640   3.254   7.341   9.041 -0.7649 -0.4286  0.9683
   23CHL1   H7B 1641   3.434   7.319   9.080 -0.8304  0.8311  0.9157
   23CHL1    C8 1642   3.345   7.187   8.929 -0.0512  0.1933  0.0202
   23CHL1    H8 1643   3.241   7.153   8.909 -1.0088  3.1660 -0.6376
   23CHL1   C14 1644   3.396   7.270   8.811 -0.4115 -0.3299  0.4628
   23CHL1   H14 1645   3.503   7.292   8.832 -0.5772 -0.4861  1.5726
   23CHL1   C15 1646   3.326   7.396   8.772  0.2357 -0.5024  0.6509
   23CHL1  H15A 1647   3.216   7.393   8.787  0.2468 -0.8523  0.6677
   23CHL1  H15B 1648   3.364   7.486   8.825  0.2567 -0.8650  1.2652
   23CHL1   C16 1649   3.353   7.420   8.622 -0.4022 -0.0120 -0.0098
   23CHL1  H16A 1650   3.260   7.431   8.563  0.4262  0.9612 -1.1998
   23CHL1  H16B 1651   3.410   7.514   8.605  1.2600 -1.3078 -2.2491
   23CHL1   C17 1652   3.432   7.302   8.568 -0.2812 -0.1531 -0.7997
   23CHL1   H17 1653   3.534   7.344   8.582 -0.0693  0.2666 -3.1347
   23CHL1   C13 1654   3.404   7.193   8.676  0.2502 -0.2289  0.2010
   23CHL1   C18 1655   3.268   7.130   8.646  0.2965 -0.6481 -0.0216
   23CHL1  H18A 1656   3.273   7.085   8.544  1.0604 -0.8370  0.0896
   23CHL1  H18B 1657   3.230   7.053   8.716  0.4750 -0.6582  0.0643
   23CHL1  H18C 1658   3.192   7.211   8.649 -0.7235 -1.6005  0.7679
   23CHL1   C12 1659   3.514   7.088   8.699 -0.0693 -0.0907  0.0539
   23CHL1  H12A 1660   3.542   7.041   8.602 -0.0902 -0.1661  0.0836
   23CHL1  H12B 1661   3.604   7.141   8.734  1.7977 -0.5186 -3.6094
   23CHL1   C11 1662   3.472   6.990   8.815  0.0785 -0.3780  0.0774
   23CHL1  H11A 1663   3.385   6.928   8.785 -0.2371  0.6151 -1.1335
   23CHL1  H11B 1664   3.567   6.933   8.832  1.0944  0.6232 -1.9149
   23CHL1    C9 1665   3.436   7.067   8.952 -0.4348 -0.1393 -0.6897
   23CHL1    H9 1666   3.533   7.108   8.985 -1.2109 -0.6891  2.6267
   23CHL1   C10 1667   3.386   6.977   9.069 -0.6725  0.2056  0.2704
   23CHL1   C19 1668   3.292   6.866   9.020 -1.3183  0.5055  0.5511
   23CHL1  H19A 1669   3.264   6.798   9.103 -0.4466 -0.3287  0.1888
   23CHL1  H19B 1670   3.209   6.923   8.973 -0.8909  1.3699  0.8280
   23CHL1  H19C 1671   3.345   6.807   8.942 -0.8164  0.7180  0.7313
   23CHL1    C1 1672   3.507   6.895   9.131 -0.8367 -0.1145 -0.7932
   23CHL1   H1A 1673   3.546   6.826   9.052 -0.8955 -1.6650  0.4793
   23CHL1   H1B 1674   3.596   6.961   9.141 -1.9306  1.5671 -1.8584
   23CHL1    C2 1675   3.486   6.824   9.266 -0.1893 -0.0423 -0.3024
   23CHL1   H2A 1676   3.586   6.791   9.301  0.0431 -0.0299 -0.9359
   23CHL1   H2B 1677   3.422   6.736   9.243  0.0538 -0.3470  0.1862
   23CHL1   C20 1678   3.421   7.268   8.417 -0.2949 -0.3727 -0.1260
   23CHL1   H20 1679   3.317   7.264   8.377  0.5661 -0.1729 -2.5681
   23CHL1   C21 1680   3.477   7.130   8.379  0.1716  0.0886  0.1176
   23CHL1  H21A 1681   3.586   7.143   8.396 -0.1195  1.0018  1.4350
   23CHL1  H21B 1682   3.468   7.107   8.271 -1.2687 -1.9783  0.6070
   23CHL1  H21C 1683   3.432   7.044   8.433  0.3882 -0.7285 -0.9701
   23CHL1   C22 1684   3.479   7.382   8.324  0.0593 -0.1758 -0.7779
   23CHL1  H22A 1685   3.440   7.480   8.359 -3.1850 -1.3408 -0.7913
   23CHL1  H22B 1686   3.588   7.374   8.342 -0.0497 -0.6651 -0.2940
   23CHL1   C23 1687   3.454   7.367   8.171 -0.1128  0.4463 -0.4902
   23CHL1  H23A 1688   3.482   7.260   8.155  1.4847  0.3474  2.2181
   23CHL1  H23B 1689   3.348   7.380   8.144 -0.5722  0.8486  1.3296
   23CHL1   C24 1690   3.552   7.459   8.091  0.0079  0.2704  0.8484
   23CHL1  H24A 1691   3.515   7.563   8.105 -0.3765 -0.0336  2.2687
   23CHL1  H24B 1692   3.643   7.450   8.153  0.8423  0.5656 -0.2892
   23CHL1   C25 1693   3.579   7.405   7.947 -0.0980 -0.2188  0.1784
   23CHL1   H25 1694   3.626   7.305   7.965 -1.0668 -0.7730 -0.2798
   23CHL1   C26 1695   3.458   7.381   7.859  0.0657  0.3509 -0.8679
   23CHL1  H26A 1696   3.399   7.473   7.838 -0.4120  0.0071 -1.0449
   23CHL1  H26B 1697   3.488   7.337   7.761  0.3960 -2.0848  0.2540
   23CHL1  H26C 1698   3.391   7.307   7.908  0.0564 -0.3631 -1.9247
   23CHL1   C27 1699   3.683   7.493   7.875 -0.2328  0.6676 -0.7598
   23CHL1  H27A 1700   3.719   7.458   7.776  0.9905  0.4384 -0.2554
   23CHL1  H27B 1701   3.634   7.593   7.866  0.1541  0.7134 -3.0901
   23CHL1  H27C 1702   3.773   7.502   7.939  0.4985 -2.8038 -1.1027
   24CHL1    C3 1703   3.989   6.856   9.360 -0.1745  0.1590  0.2463
   24CHL1    H3 1704   4.029   6.757   9.328  2.2347  0.9422  0.6348
   24CHL1    O3 1705   3.965   6.880   9.499 -0.4130  0.1912 -0.3861
   24CHL1   H3' 1706   3.869   6.878   9.510 -0.4284  1.3206 -0.2234
   24CHL1    C4 1707   4.097   6.962   9.315  0.2974 -0.0033  0.4691
   24CHL1   H4A 1708   4.071   7.062   9.354  1.5628  0.4483  0.1876
   24CHL1   H4B 1709   4.192   6.926   9.360  2.5247  2.6786 -1.7256
   24CHL1    C5 1710   4.105   6.958   9.162  0.4224 -0.4737 -1.0954
   24CHL1    C6 1711   4.226   6.933   9.106 -0.2992 -0.2602  1.1496
   24CHL1    H6 1712   4.311   6.900   9.167  0.2747 -0.4790  0.2596
   24CHL1    C7 1713   4.251   6.955   8.959 -0.5920 -0.0259  0.1105
   24CHL1   H7A 1714   4.343   7.004   8.923 -1.3215 -0.2710 -2.2556
   24CHL1   H7B 1715   4.273   6.857   8.911  2.0501  1.7884 -2.7104
   24CHL1    C8 1716   4.133   7.028   8.880 -0.6774 -0.7905 -0.0111
   24CHL1    H8 1717   4.160   7.134   8.894 -0.9102 -0.6603 -0.5322
   24CHL1   C14 1718   4.143   6.999   8.735 -0.0773 -0.1619 -0.9623
   24CHL1   H14 1719   4.123   6.890   8.738 -0.1676 -0.1405 -0.7720
   24CHL1   C15 1720   4.267   7.028   8.645  0.3317 -0.5956 -0.6660
   24CHL1  H15A 1721   4.313   7.128   8.651 -0.2592 -0.3583  0.1693
   24CHL1  H15B 1722   4.344   6.949   8.651 -0.1772 -1.0877 -0.4563
   24CHL1   C16 1723   4.212   7.026   8.506 -0.0848 -0.1167  0.6260
   24CHL1  H16A 1724   4.240   7.121   8.455 -1.7212  0.1300  0.1079
   24CHL1  H16B 1725   4.251   6.943   8.443  2.3818  1.9820 -0.8405
   24CHL1   C17 1726   4.058   7.016   8.502 -0.4175 -0.0818 -0.3354
   24CHL1   H17 1727   4.038   6.908   8.518  1.3102 -0.2577  0.9044
   24CHL1   C13 1728   4.028   7.058   8.651  0.2897 -0.3222  0.5195
   24CHL1   C18 1729   4.041   7.214   8.649  0.0922  0.8859  0.2438
   24CHL1  H18A 1730   4.134   7.252   8.601 -1.9111  0.2205 -4.8197
   24CHL1  H18B 1731   3.952   7.258   8.598 -1.8942 -1.8547  1.1034
   24CHL1  H18C 1732   4.040   7.248   8.754  0.4430  0.8454  0.2619
   24CHL1   C12 1733   3.897   7.015   8.707 -0.0740  0.2693  0.3469
   24CHL1  H12A 1734   3.816   7.062   8.647 -0.5295 -0.1523  0.6213
   24CHL1  H12B 1735   3.880   6.906   8.698 -1.8251  0.2903  2.4767
   24CHL1   C11 1736   3.883   7.056   8.855  0.3296 -0.2697 -0.6986
   24CHL1  H11A 1737   3.888   7.167   8.856  0.0999 -0.2117 -2.6123
   24CHL1  H11B 1738   3.788   7.028   8.906  0.8787  1.2442  1.2870
   24CHL1    C9 1739   3.997   6.986   8.933  0.3137  0.0679  0.8732
   24CHL1    H9 1740   3.993   6.878   8.906  1.5811 -0.1322  1.3906
   24CHL1   C10 1741   3.978   6.993   9.090 -0.4963 -0.0873  0.0127
   24CHL1   C19 1742   3.941   7.133   9.138  0.4187  0.7241  0.3671
   24CHL1  H19A 1743   3.911   7.134   9.245  0.0555 -0.5197  0.3028
   24CHL1  H19B 1744   4.029   7.201   9.129  2.5905 -1.8146  1.0521
   24CHL1  H19C 1745   3.842   7.166   9.101  0.1833 -1.2578 -0.9316
   24CHL1    C1 1746   3.879   6.883   9.136  0.0841  0.0988  0.8416
   24CHL1   H1A 1747   3.785   6.889   9.076  0.0404 -1.6222  0.6926
   24CHL1   H1B 1748   3.916   6.784   9.103  0.1838  1.0321 -2.1462
   24CHL1    C2 1749   3.855   6.875   9.286 -0.0370 -0.1899  0.7806
   24CHL1   H2A 1750   3.796   6.783   9.306 -0.2834 -0.0610  0.6513
   24CHL1   H2B 1751   3.797   6.965   9.314  2.3475  1.9572 -0.8021
   24CHL1   C20 1752   3.980   7.076   8.393 -0.2084  0.3800  0.7662
   24CHL1   H20 1753   3.885   7.112   8.437  0.2232 -0.2169  2.2197
   24CHL1   C21 1754   3.938   6.962   8.305  0.4872  0.3073  0.3724
   24CHL1  H21A 1755   4.025   6.933   8.241 -0.4385 -0.0558 -0.7653
   24CHL1  H21B 1756   3.847   6.976   8.242 -0.2545 -0.6577  1.1925
   24CHL1  H21C 1757   3.902   6.874   8.363 -5.9992  1.2681 -1.3872
   24CHL1   C22 1758   4.044   7.186   8.312 -1.0367 -0.1973 -0.6771
   24CHL1  H22A 1759   4.096   7.260   8.376 -2.0058 -1.0091  1.1070
   24CHL1  H22B 1760   4.122   7.132   8.254 -0.1095  0.1062  0.2587
   24CHL1   C23 1761   3.962   7.256   8.204 -0.2861 -0.4166  0.7284
   24CHL1  H23A 1762   3.915   7.177   8.141  0.5591  0.3055 -0.8805
   24CHL1  H23B 1763   3.879   7.301   8.263 -1.6811 -1.9977  0.0558
   24CHL1   C24 1764   4.029   7.364   8.122 -0.1877 -0.2044  0.8168
   24CHL1  H24A 1765   3.949   7.392   8.051 -2.1643  1.1028  3.3738
   24CHL1  H24B 1766   4.065   7.453   8.179  0.5361  0.3910 -0.5310
   24CHL1   C25 1767   4.148   7.303   8.035  0.0721 -0.1977 -0.2606
   24CHL1   H25 1768   4.225   7.254   8.099  0.7942 -0.0669 -1.0136
   24CHL1   C26 1769   4.103   7.187   7.936 -0.7930 -0.7266  0.1138
   24CHL1  H26A 1770   4.179   7.169   7.858 -0.6389 -1.1280  0.3548
   24CHL1  H26B 1771   4.079   7.099   8.000 -3.4984  0.2762  0.6278
   24CHL1  H26C 1772   4.007   7.214   7.886  0.0436  0.0275 -1.1514
   24CHL1   C27 1773   4.218   7.426   7.962 -0.1504 -0.7283  0.1995
   24CHL1  H27A 1774   4.290   7.405   7.880 -1.0753 -0.3541 -0.7379
   24CHL1  H27B 1775   4.134   7.483   7.916  0.5574  0.5842  0.4852
   24CHL1  H27C 1776   4.265   7.491   8.039 -2.8634  2.1274 -0.3437
   25CHL1    C3 1777   4.452   0.196   9.395  0.1215 -0.7138  0.0757
   25CHL1    H3 1778   4.544   0.133   9.400  0.1590 -0.9732 -2.4315
   25CHL1    O3 1779   4.393   0.209   9.518 -0.6601  0.0320 -0.1115
   25CHL1   H3' 1780   4.298   0.209   9.504 -0.4486  1.8650 -1.9529
   25CHL1    C4 1781   4.472   0.337   9.337 -0.0182  0.0738  0.1042
   25CHL1   H4A 1782   4.373   0.387   9.339 -0.1944 -0.1781 -1.3662
   25CHL1   H4B 1783   4.536   0.398   9.405 -1.0882  0.4517  0.7983
   25CHL1    C5 1784   4.527   0.341   9.195  0.2151 -0.7243  0.0539
   25CHL1    C6 1785   4.631   0.415   9.155  0.4593 -0.0150  0.1304
   25CHL1    H6 1786   4.673   0.480   9.233 -0.7033  0.5044  0.3414
   25CHL1    C7 1787   4.677   0.426   9.015  0.1394  0.0268  0.1981
   25CHL1   H7A 1788   4.709   0.530   8.991 -1.4609  0.8078  1.3184
   25CHL1   H7B 1789   4.762   0.355   9.006  0.6452  0.3876  1.8034
   25CHL1    C8 1790   4.566   0.385   8.906 -0.0192  0.3975 -0.2833
   25CHL1    H8 1791   4.496   0.471   8.909 -1.1097 -0.4916  1.5796
   25CHL1   C14 1792   4.610   0.366   8.765  0.2552 -0.0767 -0.2349
   25CHL1   H14 1793   4.672   0.274   8.767 -1.1214 -1.0276  1.7430
   25CHL1   C15 1794   4.688   0.484   8.707  0.9016 -0.0919 -0.3838
   25CHL1  H15A 1795   4.615   0.567   8.706 -1.6750 -2.1926 -1.9968
   25CHL1  H15B 1796   4.788   0.501   8.751  0.7501 -1.2383  0.4507
   25CHL1   C16 1797   4.704   0.435   8.559  0.1218  0.2035 -0.3010
   25CHL1  H16A 1798   4.697   0.528   8.498  0.1796  0.7867  0.5709
   25CHL1  H16B 1799   4.806   0.396   8.537  0.0129 -0.9319  1.1072
   25CHL1   C17 1800   4.589   0.330   8.534  0.0319 -0.4641  0.1361
   25CHL1   H17 1801   4.635   0.229   8.532  2.3433  0.5089  0.3685
   25CHL1   C13 1802   4.504   0.340   8.660  0.0852  0.7685  0.2586
   25CHL1   C18 1803   4.399   0.448   8.649 -0.0758 -0.3028 -0.1150
   25CHL1  H18A 1804   4.312   0.412   8.590  0.1226  0.4982 -0.9173
   25CHL1  H18B 1805   4.358   0.476   8.748  0.9637 -2.0185  0.8576
   25CHL1  H18C 1806   4.432   0.542   8.600  0.2466 -0.1315  0.4245
   25CHL1   C12 1807   4.440   0.207   8.695 -0.1633  0.4587  0.0597
   25CHL1  H12A 1808   4.364   0.179   8.619 -0.8978  2.6363 -0.0693
   25CHL1  H12B 1809   4.525   0.135   8.703 -0.7494 -0.1984  0.4480
   25CHL1   C11 1810   4.382   0.207   8.837  0.5935 -0.2038  0.6962
   25CHL1  H11A 1811   4.300   0.282   8.835  2.0409  1.5350  2.5541
   25CHL1  H11B 1812   4.332   0.115   8.872 -0.1875 -0.8561 -1.9064
   25CHL1    C9 1813   4.490   0.252   8.950  0.4590 -0.2569 -0.7775
   25CHL1    H9 1814   4.577   0.183   8.948  1.3706  0.8300 -0.1520
   25CHL1   C10 1815   4.439   0.259   9.100 -0.5494 -0.0802 -0.1558
   25CHL1   C19 1816   4.304   0.332   9.099  0.5078 -0.9105  0.1431
   25CHL1  H19A 1817   4.234   0.263   9.047  2.6807 -1.6813 -1.9645
   25CHL1  H19B 1818   4.249   0.341   9.195  1.4987 -0.8284  0.7153
   25CHL1  H19C 1819   4.308   0.435   9.056  0.0633 -0.9704 -0.0569
   25CHL1    C1 1820   4.424   0.115   9.158  0.8588 -0.2145  0.4368
   25CHL1   H1A 1821   4.359   0.053   9.092  1.5580 -0.0072 -0.4731
   25CHL1   H1B 1822   4.527   0.072   9.157  2.7251  3.8118 -0.3814
   25CHL1    C2 1823   4.365   0.108   9.304  0.4747 -0.2110  0.2752
   25CHL1   H2A 1824   4.365   0.001   9.334 -1.9073 -0.0318  1.1819
   25CHL1   H2B 1825   4.261   0.149   9.308  0.9993  1.5033 -1.7669
   25CHL1   C20 1826   4.524   0.355   8.400  0.6083  0.7504  0.3116
   25CHL1   H20 1827   4.446   0.433   8.393 -2.3276 -1.8743  1.2887
   25CHL1   C21 1828   4.437   0.225   8.350  0.0352 -0.8064 -0.4694
   25CHL1  H21A 1829   4.506   0.139   8.335  1.4562  0.3580 -0.8181
   25CHL1  H21B 1830   4.381   0.257   8.259  0.1982  1.3586  0.1445
   25CHL1  H21C 1831   4.363   0.202   8.430 -0.5847 -0.2795 -0.8765
   25CHL1   C22 1832   4.633   0.371   8.279 -0.3658 -0.6226 -0.4783
   25CHL1  H22A 1833   4.707   0.448   8.306 -2.1613  1.5916 -1.5106
   25CHL1  H22B 1834   4.672   0.268   8.264  1.6054  0.1447 -0.9249
   25CHL1   C23 1835   4.578   0.423   8.140  0.4472 -0.3803 -0.2991
   25CHL1  H23A 1836   4.662   0.427   8.068  1.2406 -0.5297  0.6078
   25CHL1  H23B 1837   4.491   0.371   8.093  0.0464  0.6272 -0.7058
   25CHL1   C24 1838   4.550   0.570   8.147 -0.4431  0.0063  0.3864
   25CHL1  H24A 1839   4.486   0.589   8.236  0.3568  2.2121  0.5508
   25CHL1  H24B 1840   4.637   0.635   8.171 -0.8832 -0.4802  3.8019
   25CHL1   C25 1841   4.481   0.629   8.025 -0.3932 -0.5931  0.2552
   25CHL1   H25 1842   4.377   0.591   8.019 -1.1749  1.5209 -0.7303
   25CHL1   C26 1843   4.447   0.779   8.022 -0.6708 -0.4542  0.2421
   25CHL1  H26A 1844   4.390   0.805   8.113 -2.1147  0.9488 -0.9993
   25CHL1  H26B 1845   4.532   0.843   7.992  0.6986 -2.1706  0.2742
   25CHL1  H26C 1846   4.376   0.808   7.941 -0.3913 -0.1888  0.0906
   25CHL1   C27 1847   4.554   0.596   7.896  0.7220 -1.3330  0.0857
   25CHL1  H27A 1848   4.526   0.663   7.811  3.8131 -1.8495 -1.4876
   25CHL1  H27B 1849   4.664   0.608   7.903  1.3205 -3.4093 -3.2399
   25CHL1  H27C 1850   4.536   0.498   7.847 -0.2469 -0.1155 -2.1802
   26CHL1    C3 1851   0.361   4.161   9.287  0.0565  0.1542  0.2026
   26CHL1    H3 1852   0.424   4.070   9.281 -0.0966  0.0723 -0.2204
   26CHL1    O3 1853   0.325   4.176   9.421 -0.3385  0.1943  0.4104
   26CHL1   H3' 1854   0.293   4.266   9.434  0.9665  0.6673  0.4066
   26CHL1    C4 1855   0.447   4.286   9.242  0.1293  0.3216 -0.2612
   26CHL1   H4A 1856   0.380   4.373   9.260  0.1070  0.2130  0.1935
   26CHL1   H4B 1857   0.538   4.296   9.304  0.5196 -4.3353  0.2541
   26CHL1    C5 1858   0.476   4.264   9.092 -0.3807 -0.5034  0.3764
   26CHL1    C6 1859   0.606   4.265   9.052 -0.1976 -0.1680 -0.0242
   26CHL1    H6 1860   0.677   4.288   9.133  0.0623  1.0646 -0.5849
   26CHL1    C7 1861   0.665   4.251   8.910 -0.2238  0.2264  0.5358
   26CHL1   H7A 1862   0.737   4.335   8.897 -0.8691  0.9450  1.5153
   26CHL1   H7B 1863   0.718   4.154   8.904 -1.4820 -0.3934 -1.7032
   26CHL1    C8 1864   0.548   4.257   8.806  0.4274  0.0642 -0.3746
   26CHL1    H8 1865   0.537   4.366   8.791  2.1401  0.2462 -0.5099
   26CHL1   C14 1866   0.587   4.193   8.671 -0.5908  0.6186  0.1120
   26CHL1   H14 1867   0.601   4.085   8.689 -0.6941  0.1503 -2.3450
   26CHL1   C15 1868   0.720   4.235   8.612  0.6845 -0.1049  0.1526
   26CHL1  H15A 1869   0.718   4.346   8.605  1.9269  0.0137  1.3488
   26CHL1  H15B 1870   0.809   4.213   8.675 -0.5324 -0.7898  1.6991
   26CHL1   C16 1871   0.716   4.171   8.478  0.5662  0.1728  0.0751
   26CHL1  H16A 1872   0.777   4.235   8.411  1.4032 -1.1372 -0.4656
   26CHL1  H16B 1873   0.764   4.071   8.485  0.0445 -0.0031  1.6684
   26CHL1   C17 1874   0.563   4.149   8.443 -0.0248  0.6410  0.4372
   26CHL1   H17 1875   0.548   4.040   8.463 -0.8657  1.0279  2.1294
   26CHL1   C13 1876   0.477   4.209   8.562  0.0837 -0.2126 -0.0933
   26CHL1   C18 1877   0.438   4.366   8.537 -0.3060 -0.1232  0.5176
   26CHL1  H18A 1878   0.376   4.397   8.624 -0.3774  0.3868  0.2876
   26CHL1  H18B 1879   0.523   4.437   8.535 -0.7989  0.5597  2.1351
   26CHL1  H18C 1880   0.396   4.375   8.434 -0.0816 -2.7489  0.1329
   26CHL1   C12 1881   0.366   4.119   8.612 -0.1769 -0.1385 -0.3505
   26CHL1  H12A 1882   0.276   4.116   8.547  0.9936  0.6671 -2.1018
   26CHL1  H12B 1883   0.407   4.020   8.642  2.7477  1.1379  0.1967
   26CHL1   C11 1884   0.304   4.171   8.746 -0.7744  0.1888  0.0942
   26CHL1  H11A 1885   0.258   4.270   8.725  0.2055  0.9111  1.2411
   26CHL1  H11B 1886   0.223   4.104   8.782 -0.4913  0.6245  1.5759
   26CHL1    C9 1887   0.413   4.191   8.858  0.6068  0.3140 -0.2227
   26CHL1    H9 1888   0.440   4.084   8.868 -0.0658 -0.0120 -1.6821
   26CHL1   C10 1889   0.357   4.244   8.992 -0.0617  0.2904 -0.6916
   26CHL1   C19 1890   0.292   4.387   8.981 -0.4127 -0.0170  0.2074
   26CHL1  H19A 1891   0.238   4.420   9.072  1.4978  0.4949  1.2196
   26CHL1  H19B 1892   0.365   4.467   8.958 -1.1951  0.6845  0.1184
   26CHL1  H19C 1893   0.218   4.378   8.898  2.1777 -1.4105 -2.1347
   26CHL1    C1 1894   0.254   4.141   9.057  0.9088 -0.1741 -0.1840
   26CHL1   H1A 1895   0.152   4.143   9.011  0.8633 -1.9256 -0.2296
   26CHL1   H1B 1896   0.289   4.040   9.026  3.3946  0.3298  0.7707
   26CHL1    C2 1897   0.232   4.149   9.208  0.4789  0.4730  0.1269
   26CHL1   H2A 1898   0.180   4.061   9.252  0.2101  0.3718 -0.3829
   26CHL1   H2B 1899   0.168   4.238   9.228  0.1751  0.0281  1.2036
   26CHL1   C20 1900   0.513   4.163   8.297 -0.2781  0.3078 -0.1283
   26CHL1   H20 1901   0.508   4.271   8.272 -1.8131  0.2603 -0.0771
   26CHL1   C21 1902   0.370   4.106   8.280  0.0460 -0.0764  0.3201
   26CHL1  H21A 1903   0.340   4.117   8.173  1.7108 -1.9421 -0.4097
   26CHL1  H21B 1904   0.302   4.172   8.338  0.4324  0.5277  0.0956
   26CHL1  H21C 1905   0.357   4.003   8.319 -1.0702 -2.1284 -4.6973
   26CHL1   C22 1906   0.609   4.105   8.191  0.6282 -0.1649 -0.5319
   26CHL1  H22A 1907   0.709   4.153   8.203  0.8649 -0.9676  0.9176
   26CHL1  H22B 1908   0.630   3.999   8.217 -2.1030 -0.8330 -0.7709
   26CHL1   C23 1909   0.558   4.114   8.048  0.1447 -0.5223  0.2456
   26CHL1  H23A 1910   0.498   4.021   8.035  1.7315 -1.3346 -1.9906
   26CHL1  H23B 1911   0.501   4.208   8.034  2.7566  1.1400  0.0728
   26CHL1   C24 1912   0.668   4.104   7.946  0.5138 -0.7723 -0.4017
   26CHL1  H24A 1913   0.639   4.122   7.840  1.5149  3.3408 -0.1589
   26CHL1  H24B 1914   0.740   4.185   7.972  0.2021 -0.5251 -0.3071
   26CHL1   C25 1915   0.750   3.974   7.946  0.1235 -0.1374 -0.1091
   26CHL1   H25 1916   0.784   3.961   8.051 -0.4943 -0.6213  0.0355
   26CHL1   C26 1917   0.673   3.845   7.919 -0.2940  1.1458  0.8565
   26CHL1  H26A 1918   0.737   3.758   7.945 -2.3647 -0.7360 -0.0064
   26CHL1  H26B 1919   0.593   3.832   7.994  0.5433  0.3234  1.6246
   26CHL1  H26C 1920   0.648   3.822   7.813  1.9503 -1.9007  0.8607
   26CHL1   C27 1921   0.869   3.982   7.853  0.3654  1.0331  0.3317
   26CHL1  H27A 1922   0.833   3.980   7.748  3.1266 -1.3043 -0.6972
   26CHL1  H27B 1923   0.926   4.076   7.875  0.8868  1.5849 -2.7881
   26CHL1  H27C 1924   0.937   3.896   7.873  1.0690  1.9181  1.9247
   27CHL1    C3 1925   0.222   1.613   9.218 -0.1157 -0.0844  0.5894
   27CHL1    H3 1926   0.149   1.529   9.224 -0.9408  0.3261 -2.2063
   27CHL1    O3 1927   0.232   1.670   9.349  0.6250  0.0759  0.0390
   27CHL1   H3' 1928   0.225   1.596   9.410 -1.5829 -0.6078 -0.9617
   27CHL1    C4 1929   0.359   1.553   9.183 -0.2276 -0.0805 -0.1667
   27CHL1   H4A 1930   0.435   1.631   9.202  0.2897 -0.4814 -0.5792
   27CHL1   H4B 1931   0.388   1.486   9.267  0.9472  1.8004  0.9953
   27CHL1    C5 1932   0.367   1.498   9.039  0.2711  0.3539  0.1665
   27CHL1    C6 1933   0.390   1.366   9.013  1.1139 -0.4617 -0.1477
   27CHL1    H6 1934   0.412   1.307   9.103 -1.9572 -0.0407  0.9981
   27CHL1    C7 1935   0.389   1.309   8.880  0.6190 -0.2944 -0.1157
   27CHL1   H7A 1936   0.485   1.252   8.877  0.4949 -0.7056  2.0275
   27CHL1   H7B 1937   0.307   1.234   8.882  1.4857 -1.3087 -1.0861
   27CHL1    C8 1938   0.387   1.419   8.767 -0.0361 -0.6047 -0.9006
   27CHL1    H8 1939   0.487   1.466   8.764 -0.9191  1.5469  0.5892
   27CHL1   C14 1940   0.346   1.354   8.633 -0.0640  0.2873 -0.0807
   27CHL1   H14 1941   0.241   1.320   8.643 -0.1817  0.1100 -1.6843
   27CHL1   C15 1942   0.418   1.224   8.591 -0.8362  0.4031  0.5219
   27CHL1  H15A 1943   0.520   1.218   8.636 -0.3246 -2.4075 -0.7897
   27CHL1  H15B 1944   0.359   1.140   8.632 -1.0848 -0.1641 -0.9487
   27CHL1   C16 1945   0.413   1.223   8.439 -0.4977 -0.2460  0.2790
   27CHL1  H16A 1946   0.515   1.245   8.401 -0.7340  0.7008  0.1766
   27CHL1  H16B 1947   0.374   1.128   8.397 -1.8746  0.9433 -1.2242
   27CHL1   C17 1948   0.325   1.351   8.404 -0.5412 -0.5113 -0.2099
   27CHL1   H17 1949   0.221   1.319   8.429 -0.8472 -1.1364 -2.1366
   27CHL1   C13 1950   0.356   1.449   8.516  0.7600 -0.0548 -0.8124
   27CHL1   C18 1951   0.498   1.507   8.499 -0.5920 -0.9362 -0.2296
   27CHL1  H18A 1952   0.507   1.561   8.402 -2.5873  0.3009  0.2080
   27CHL1  H18B 1953   0.512   1.587   8.575  0.1799 -1.2509 -0.0284
   27CHL1  H18C 1954   0.579   1.434   8.520 -1.1148 -0.7592  3.0339
   27CHL1   C12 1955   0.256   1.565   8.543 -0.5299 -0.0170  0.5922
   27CHL1  H12A 1956   0.262   1.629   8.452 -0.8733 -1.2223 -0.3068
   27CHL1  H12B 1957   0.153   1.523   8.547 -0.9398  0.4877 -2.0808
   27CHL1   C11 1958   0.281   1.636   8.676 -0.2983 -0.2501 -0.7518
   27CHL1  H11A 1959   0.366   1.708   8.671 -1.7310  1.5874  0.2665
   27CHL1  H11B 1960   0.184   1.682   8.703 -0.0458  0.4220 -0.9704
   27CHL1    C9 1961   0.300   1.537   8.796 -0.4786  0.4233 -0.3663
   27CHL1    H9 1962   0.198   1.493   8.795 -1.0186  1.5444  1.2869
   27CHL1   C10 1963   0.321   1.601   8.940  0.3548 -0.5969  1.4025
   27CHL1   C19 1964   0.440   1.702   8.936 -0.5809 -0.1543  0.3421
   27CHL1  H19A 1965   0.486   1.726   9.034 -1.5187  3.0566  0.1158
   27CHL1  H19B 1966   0.525   1.659   8.879 -0.8379 -0.7277  0.3881
   27CHL1  H19C 1967   0.413   1.794   8.879  0.6268  0.3787  0.6056
   27CHL1    C1 1968   0.186   1.674   8.974 -0.2436  0.5951 -0.0877
   27CHL1   H1A 1969   0.182   1.758   8.901 -0.3277  1.5948  1.0205
   27CHL1   H1B 1970   0.107   1.598   8.961  1.4625 -1.2763  0.0491
   27CHL1    C2 1971   0.184   1.719   9.117  0.1667  0.5690 -0.8790
   27CHL1   H2A 1972   0.083   1.761   9.133  0.0918  3.2741 -6.2713
   27CHL1   H2B 1973   0.251   1.806   9.135  1.3394 -0.8810  2.6216
   27CHL1   C20 1974   0.323   1.398   8.255 -0.4105  0.3360  0.8922
   27CHL1   H20 1975   0.388   1.487   8.249  2.6008 -1.7438  0.3856
   27CHL1   C21 1976   0.185   1.438   8.218 -0.2145  0.5809 -0.5641
   27CHL1  H21A 1977   0.132   1.507   8.287 -0.2364  0.7153 -0.7129
   27CHL1  H21B 1978   0.127   1.343   8.218 -1.6606  1.4153  1.1306
   27CHL1  H21C 1979   0.181   1.490   8.119 -0.0446  1.8276  0.0669
   27CHL1   C22 1980   0.377   1.293   8.154  0.1788 -0.2679  0.1442
   27CHL1  H22A 1981   0.470   1.258   8.203 -0.3616 -1.5420  0.3033
   27CHL1  H22B 1982   0.310   1.204   8.152 -0.8773  0.5308 -1.2987
   27CHL1   C23 1983   0.408   1.348   8.012 -0.6345  1.2294 -0.1052
   27CHL1  H23A 1984   0.457   1.447   8.013 -0.8698  1.3452 -0.1385
   27CHL1  H23B 1985   0.481   1.270   7.979  0.5901  1.4376  1.9664
   27CHL1   C24 1986   0.292   1.349   7.910  0.1129 -0.1610 -0.3212
   27CHL1  H24A 1987   0.234   1.254   7.921 -1.6708  0.9326  0.2795
   27CHL1  H24B 1988   0.230   1.438   7.937 -2.1466 -1.3745 -1.2212
   27CHL1   C25 1989   0.347   1.363   7.765  0.3046 -0.2285 -0.1628
   27CHL1   H25 1990   0.411   1.454   7.773  0.0265 -0.0786  0.4335
   27CHL1   C26 1991   0.432   1.244   7.725 -0.1350 -0.7832  1.0241
   27CHL1  H26A 1992   0.439   1.234   7.615 -0.1356  1.8816  0.7020
   27CHL1  H26B 1993   0.537   1.248   7.762  0.0890  3.4335  0.4088
   27CHL1  H26C 1994   0.384   1.155   7.770  2.1502 -2.2775  0.6609
   27CHL1   C27 1995   0.228   1.399   7.677 -0.1246  0.1711  0.1383
   27CHL1  H27A 1996   0.269   1.443   7.583  0.5312 -0.0378  0.3212
   27CHL1  H27B 1997   0.168   1.308   7.654  0.1008 -0.9330  3.4268
   27CHL1  H27C 1998   0.160   1.477   7.715 -0.2654  0.7799 -1.2694
   28CHL1    C3 1999   5.704   6.634   9.074 -0.9258  0.2832  0.6530
   28CHL1    H3 2000   5.686   6.539   9.021 -0.3195  1.1832 -1.2519
   28CHL1    O3 2001   5.682   6.622   9.211 -0.1121  0.2246 -0.4615
   28CHL1   H3' 2002   5.711   6.703   9.254 -1.4680  0.0542  0.8682
   28CHL1    C4 2003   5.853   6.672   9.039 -0.5028  0.5269  0.0046
   28CHL1   H4A 2004   5.909   6.753   9.090  2.9745 -2.7128  1.8884
   28CHL1   H4B 2005   5.905   6.585   9.086 -1.6436  0.3686  1.0190
   28CHL1    C5 2006   5.870   6.691   8.886 -0.2212  0.1408  0.2683
   28CHL1    C6 2007   5.958   6.607   8.828  0.7070  0.1863 -0.1749
   28CHL1    H6 2008   6.017   6.536   8.888  1.8583 -0.5904 -2.1443
   28CHL1    C7 2009   5.977   6.611   8.680  0.8197  0.0253  0.2240
   28CHL1   H7A 2010   6.084   6.611   8.651  0.5064 -2.1181 -1.2238
   28CHL1   H7B 2011   5.933   6.524   8.626 -1.7509  2.0093 -1.0981
   28CHL1    C8 2012   5.920   6.740   8.613  0.2959  0.4720 -0.0271
   28CHL1    H8 2013   5.999   6.816   8.631 -0.5940  1.9120 -1.8913
   28CHL1   C14 2014   5.915   6.713   8.464 -0.1885  0.4564 -0.0302
   28CHL1   H14 2015   5.836   6.636   8.450  1.1011 -0.6944 -1.1370
   28CHL1   C15 2016   6.043   6.663   8.384 -0.0299  0.2975 -0.3121
   28CHL1  H15A 2017   6.121   6.737   8.414 -1.0323  0.8401  1.0353
   28CHL1  H15B 2018   6.084   6.566   8.418  0.5590  0.6006 -0.1269
   28CHL1   C16 2019   6.010   6.677   8.236 -0.0376  0.1913  0.7919
   28CHL1  H16A 2020   6.091   6.722   8.175  1.3886 -2.2174  0.7993
   28CHL1  H16B 2021   5.984   6.587   8.176 -1.1062  0.8358  0.2471
   28CHL1   C17 2022   5.872   6.765   8.234  0.7101 -0.0389  0.4182
   28CHL1   H17 2023   5.788   6.693   8.230  1.7108 -1.1854 -2.1832
   28CHL1   C13 2024   5.859   6.829   8.369 -0.1187  0.6737  0.1607
   28CHL1   C18 2025   5.958   6.946   8.377  0.2119  0.0778 -0.1524
   28CHL1  H18A 2026   5.976   6.979   8.481  1.1518  1.5695 -0.7505
   28CHL1  H18B 2027   6.057   6.923   8.331  0.0969 -0.0883 -0.3177
   28CHL1  H18C 2028   5.914   7.032   8.324  1.1114  0.3466 -0.4886
   28CHL1   C12 2029   5.718   6.866   8.424 -0.0109  0.5392  0.2826
   28CHL1  H12A 2030   5.690   6.957   8.368  1.6491 -0.7733 -2.9963
   28CHL1  H12B 2031   5.652   6.781   8.396  1.6333 -0.3461 -1.1131
   28CHL1   C11 2032   5.726   6.888   8.574  0.5389  0.3326 -0.6728
   28CHL1  H11A 2033   5.798   6.969   8.599  2.3266 -1.6900  1.0407
   28CHL1  H11B 2034   5.630   6.912   8.624  1.5701  0.0177  1.5543
   28CHL1    C9 2035   5.781   6.770   8.661 -0.9667  0.2031  0.2296
   28CHL1    H9 2036   5.717   6.689   8.621 -0.2593 -0.2762  0.0477
   28CHL1   C10 2037   5.775   6.788   8.814 -0.4398  0.0746 -0.1698
   28CHL1   C19 2038   5.805   6.932   8.853 -0.8252 -0.5501 -0.2716
   28CHL1  H19A 2039   5.731   7.012   8.833  0.2134  0.4991 -0.0104
   28CHL1  H19B 2040   5.807   6.936   8.964 -1.2910 -2.0045 -0.1803
   28CHL1  H19C 2041   5.901   6.965   8.809 -1.1846  0.2417 -0.4653
   28CHL1    C1 2042   5.632   6.743   8.864  0.5254 -1.3629  0.4176
   28CHL1   H1A 2043   5.543   6.804   8.834  0.7414 -1.4314 -0.3971
   28CHL1   H1B 2044   5.618   6.643   8.819  3.4477  0.1833 -4.8611
   28CHL1    C2 2045   5.613   6.745   9.017 -0.3979 -0.1800 -0.6615
   28CHL1   H2A 2046   5.513   6.705   9.043  0.2874 -2.2765 -1.1102
   28CHL1   H2B 2047   5.632   6.845   9.061  0.5671 -0.5095 -0.3200
   28CHL1   C20 2048   5.859   6.851   8.106  0.4106  0.7651  0.5518
   28CHL1   H20 2049   5.945   6.922   8.102  3.3599 -2.4892  1.3076
   28CHL1   C21 2050   5.727   6.934   8.109 -0.8018 -0.3653  1.1518
   28CHL1  H21A 2051   5.739   7.021   8.177 -0.7170  0.5056  0.0637
   28CHL1  H21B 2052   5.645   6.873   8.152 -0.1141 -0.8798  1.7530
   28CHL1  H21C 2053   5.694   6.951   8.004 -0.4924 -2.3062  0.6956
   28CHL1   C22 2054   5.868   6.763   7.977  0.3664  0.7228  0.0247
   28CHL1  H22A 2055   5.872   6.837   7.894 -2.0295  0.2347 -0.5904
   28CHL1  H22B 2056   5.966   6.713   7.962 -0.8889 -2.5296  1.5727
   28CHL1   C23 2057   5.752   6.668   7.946  0.3014  0.0322 -0.4008
   28CHL1  H23A 2058   5.747   6.583   8.017 -0.1976  1.9056  1.9447
   28CHL1  H23B 2059   5.655   6.720   7.965  0.9194  0.5596  1.6231
   28CHL1   C24 2060   5.765   6.612   7.811 -0.0331  0.6117  0.4009
   28CHL1  H24A 2061   5.762   6.697   7.739  2.4538 -0.4573 -1.0727
   28CHL1  H24B 2062   5.862   6.559   7.798  0.0643  0.6238  1.0560
   28CHL1   C25 2063   5.653   6.508   7.776  0.1324  0.1852 -0.0901
   28CHL1   H25 2064   5.669   6.424   7.847  2.5217  0.3465 -0.3413
   28CHL1   C26 2065   5.518   6.578   7.783 -0.6079 -0.5895 -0.7243
   28CHL1  H26A 2066   5.439   6.505   7.755 -0.0493 -2.2692  1.7967
   28CHL1  H26B 2067   5.509   6.607   7.890  3.9210  1.0877 -0.5540
   28CHL1  H26C 2068   5.510   6.668   7.718 -1.0576 -1.1626 -1.4756
   28CHL1   C27 2069   5.674   6.462   7.632 -0.0678  0.5875  0.2643
   28CHL1  H27A 2070   5.662   6.545   7.559  0.3444  1.3835  1.0932
   28CHL1  H27B 2071   5.769   6.406   7.621 -0.9060 -1.0131  0.7891
   28CHL1  H27C 2072   5.601   6.382   7.607 -0.3913  0.9474  0.0586
   29CHL1    C3 2073   4.343   5.091   5.866 -0.3431 -0.3161 -0.9390
   29CHL1    H3 2074   4.239   5.077   5.829 -0.5318  2.0955 -1.5501
   29CHL1    O3 2075   4.440   5.066   5.762  0.5288 -0.0455  0.0527
   29CHL1   H3' 2076   4.381   5.072   5.686 -0.8245 -1.0747  0.9914
   29CHL1    C4 2077   4.364   5.227   5.926  0.3378  0.3624  0.5399
   29CHL1   H4A 2078   4.471   5.244   5.950  0.6525  0.6310 -0.9521
   29CHL1   H4B 2079   4.342   5.300   5.845 -1.4672  2.8438  3.0896
   29CHL1    C5 2080   4.266   5.254   6.035  0.3545 -0.4528  0.2557
   29CHL1    C6 2081   4.170   5.352   6.032 -0.8143 -0.9260  0.2292
   29CHL1    H6 2082   4.159   5.424   5.950  1.7066 -1.0096 -0.2528
   29CHL1    C7 2083   4.074   5.375   6.136  0.0429  0.0890 -0.3272
   29CHL1   H7A 2084   4.058   5.484   6.154  1.5266  0.1121  1.1789
   29CHL1   H7B 2085   3.980   5.334   6.094  0.2399 -3.1802  2.0102
   29CHL1    C8 2086   4.112   5.308   6.272  0.5383 -0.4418  0.7930
   29CHL1    H8 2087   4.190   5.372   6.319  0.3431  0.6821 -0.3538
   29CHL1   C14 2088   3.990   5.300   6.357 -0.2560 -0.3398 -0.2848
   29CHL1   H14 2089   3.913   5.240   6.305 -1.6808  2.8749 -2.1394
   29CHL1   C15 2090   3.908   5.428   6.385  0.2016  0.1810  0.5999
   29CHL1  H15A 2091   3.971   5.515   6.412 -1.6694  1.2336  1.8008
   29CHL1  H15B 2092   3.849   5.445   6.292  1.0609  1.1903  0.2101
   29CHL1   C16 2093   3.826   5.387   6.508  0.0524  0.1430  0.9134
   29CHL1  H16A 2094   3.856   5.465   6.580  0.5075 -0.2109  1.1137
   29CHL1  H16B 2095   3.719   5.405   6.485  0.7727  1.9658 -1.4588
   29CHL1   C17 2096   3.874   5.246   6.557 -0.6155  0.7162  0.4717
   29CHL1   H17 2097   3.809   5.178   6.498 -0.8762  0.0042  1.5503
   29CHL1   C13 2098   4.010   5.223   6.488  0.0088 -0.5197 -0.8530
   29CHL1   C18 2099   4.120   5.298   6.581  0.1580  0.6252 -0.3098
   29CHL1  H18A 2100   4.211   5.315   6.518  0.3614 -3.2617 -1.3288
   29CHL1  H18B 2101   4.080   5.398   6.606 -0.1741  0.6739 -1.0311
   29CHL1  H18C 2102   4.150   5.235   6.668  2.2844  0.7176 -0.9026
   29CHL1   C12 2103   4.057   5.084   6.466 -0.2177 -0.5095  0.1784
   29CHL1  H12A 2104   4.078   5.027   6.559  0.8726  0.9459  0.8657
   29CHL1  H12B 2105   3.978   5.034   6.406 -0.8551 -0.7810  1.2286
   29CHL1   C11 2106   4.191   5.089   6.386  0.3078 -0.0520  0.8692
   29CHL1  H11A 2107   4.274   5.124   6.451  0.3685  0.7112  0.3960
   29CHL1  H11B 2108   4.223   4.985   6.363 -0.2118 -0.2801  1.1568
   29CHL1    C9 2109   4.169   5.165   6.254  0.1221 -0.0975  0.2533
   29CHL1    H9 2110   4.087   5.114   6.199  2.1155  0.5614 -3.6859
   29CHL1   C10 2111   4.285   5.154   6.150 -0.1715 -0.3731  0.2685
   29CHL1   C19 2112   4.417   5.186   6.214 -0.3362  0.3567 -0.4586
   29CHL1  H19A 2113   4.448   5.107   6.286 -1.2190  1.4405  1.1946
   29CHL1  H19B 2114   4.498   5.161   6.142 -0.2362 -2.8930  0.6430
   29CHL1  H19C 2115   4.434   5.286   6.259 -2.2390 -0.4969  2.4675
   29CHL1    C1 2116   4.287   5.005   6.096  0.3786  0.2194 -0.4996
   29CHL1   H1A 2117   4.319   4.943   6.182  1.8778  1.1834 -0.3400
   29CHL1   H1B 2118   4.180   4.988   6.072  0.2623  1.5268 -1.0006
   29CHL1    C2 2119   4.370   4.986   5.970 -0.3132 -0.2225 -0.4660
   29CHL1   H2A 2120   4.342   4.887   5.927 -2.3206  0.1341 -0.0821
   29CHL1   H2B 2121   4.480   4.983   5.989 -0.4830  1.6980  1.1489
   29CHL1   C20 2122   3.850   5.223   6.704 -0.3556 -0.0981 -0.1919
   29CHL1   H20 2123   3.931   5.276   6.758 -2.0941  1.5913  0.9076
   29CHL1   C21 2124   3.858   5.077   6.735 -0.4403 -0.2059  0.3067
   29CHL1  H21A 2125   3.850   5.065   6.845 -0.4840 -2.0088  0.1309
   29CHL1  H21B 2126   3.953   5.029   6.701 -1.0184 -1.3617  0.2848
   29CHL1  H21C 2127   3.774   5.009   6.711 -0.5976 -1.2642  3.4124
   29CHL1   C22 2128   3.720   5.275   6.766 -0.3157  0.3570 -0.2272
   29CHL1  H22A 2129   3.697   5.375   6.722  0.6196 -0.3280 -2.4106
   29CHL1  H22B 2130   3.638   5.211   6.725 -0.5885 -0.7806  1.9575
   29CHL1   C23 2131   3.723   5.280   6.925  0.0363  0.3701  0.0136
   29CHL1  H23A 2132   3.719   5.175   6.962 -0.9036  0.5469  0.4504
   29CHL1  H23B 2133   3.811   5.333   6.966  1.8610 -0.4064 -2.6088
   29CHL1   C24 2134   3.596   5.360   6.973 -0.5990  0.0236 -0.5750
   29CHL1  H24A 2135   3.591   5.463   6.931  1.3355 -0.2788 -1.6505
   29CHL1  H24B 2136   3.505   5.311   6.932 -0.5046 -1.4019  0.8061
   29CHL1   C25 2137   3.602   5.355   7.124  0.4655  0.1550 -0.3736
   29CHL1   H25 2138   3.628   5.253   7.160 -3.5277 -0.4305  1.3013
   29CHL1   C26 2139   3.700   5.457   7.188  0.4800  0.5005 -0.2129
   29CHL1  H26A 2140   3.809   5.447   7.169  1.0353  1.8378  1.8768
   29CHL1  H26B 2141   3.664   5.559   7.165 -0.8922  0.0662 -0.1068
   29CHL1  H26C 2142   3.693   5.454   7.299 -0.1662  1.6900 -0.2084
   29CHL1   C27 2143   3.463   5.377   7.185 -0.5209  0.2671  0.4640
   29CHL1  H27A 2144   3.391   5.306   7.138 -1.1054  1.5932 -0.7284
   29CHL1  H27B 2145   3.459   5.359   7.294 -1.1016  1.8999  0.7357
   29CHL1  H27C 2146   3.419   5.475   7.158 -0.7708 -0.1375 -0.6771
   30CHL1    C3 2147   2.463   2.132   6.092 -0.6156 -0.4301 -0.8322
   30CHL1    H3 2148   2.538   2.213   6.101  3.0363 -3.5345 -0.5567
   30CHL1    O3 2149   2.487   2.074   5.964  0.1499 -0.4443 -0.6523
   30CHL1   H3' 2150   2.434   1.995   5.976  0.3319 -0.3532  1.1396
   30CHL1    C4 2151   2.497   2.033   6.199 -0.7787 -0.0422  0.0537
   30CHL1   H4A 2152   2.427   1.947   6.201 -1.0286  0.1589 -0.0297
   30CHL1   H4B 2153   2.602   1.997   6.190 -1.0647 -0.6539 -0.9493
   30CHL1    C5 2154   2.488   2.097   6.332 -0.6402  0.1231 -1.1170
   30CHL1    C6 2155   2.595   2.096   6.417 -0.3207  0.3090 -0.0106
   30CHL1    H6 2156   2.693   2.054   6.391  0.4645  1.9828  0.0990
   30CHL1    C7 2157   2.590   2.143   6.557 -0.4929 -0.0606  0.0392
   30CHL1   H7A 2158   2.627   2.066   6.628  0.1638  1.1104  1.0119
   30CHL1   H7B 2159   2.637   2.244   6.562 -0.5691 -0.0672  1.0471
   30CHL1    C8 2160   2.441   2.177   6.604  0.0167 -1.1326 -0.6458
   30CHL1    H8 2161   2.380   2.088   6.631 -0.9055 -0.5428 -0.7077
   30CHL1   C14 2162   2.443   2.281   6.719  0.7943  0.3678  0.1804
   30CHL1   H14 2163   2.498   2.372   6.685 -0.0916  1.1539  0.7937
   30CHL1   C15 2164   2.539   2.256   6.836 -0.4698  0.3587  0.0578
   30CHL1  H15A 2165   2.518   2.160   6.888 -0.2647  2.0561  3.6124
   30CHL1  H15B 2166   2.647   2.267   6.813 -0.7068 -0.6391 -1.7746
   30CHL1   C16 2167   2.498   2.363   6.942  0.2911  0.1780  0.5109
   30CHL1  H16A 2168   2.488   2.311   7.040  0.1466 -1.3957 -0.3238
   30CHL1  H16B 2169   2.585   2.431   6.951  1.4016 -0.9622 -1.0818
   30CHL1   C17 2170   2.362   2.425   6.892  0.7769  0.3327 -0.2434
   30CHL1   H17 2171   2.383   2.525   6.848  1.6456 -0.3137 -1.3740
   30CHL1   C13 2172   2.309   2.343   6.774 -0.4191  1.2537 -0.6401
   30CHL1   C18 2173   2.220   2.225   6.820 -0.3536  0.4045  0.3039
   30CHL1  H18A 2174   2.264   2.165   6.902 -0.3797  0.7319  0.5613
   30CHL1  H18B 2175   2.129   2.269   6.866 -2.1242 -1.5197 -1.1468
   30CHL1  H18C 2176   2.181   2.159   6.739  1.4386 -0.1138 -0.1732
   30CHL1   C12 2177   2.237   2.420   6.662  0.1432  0.3339  0.5809
   30CHL1  H12A 2178   2.136   2.456   6.690 -0.7901 -2.4229  1.0841
   30CHL1  H12B 2179   2.291   2.516   6.646 -0.5280  0.5660 -0.4066
   30CHL1   C11 2180   2.235   2.328   6.536  0.4912  0.2012  0.1098
   30CHL1  H11A 2181   2.143   2.266   6.534  1.1344 -0.8848 -3.8256
   30CHL1  H11B 2182   2.206   2.392   6.450 -2.5414 -0.5041  0.4825
   30CHL1    C9 2183   2.362   2.255   6.490  0.4152  0.4848  0.0172
   30CHL1    H9 2184   2.437   2.335   6.474  2.2723 -1.2148 -0.1001
   30CHL1   C10 2185   2.353   2.165   6.362  0.1218 -0.1678 -0.6043
   30CHL1   C19 2186   2.246   2.065   6.392 -0.5384  0.3617  0.0168
   30CHL1  H19A 2187   2.146   2.106   6.415 -0.9252 -0.0018 -0.9490
   30CHL1  H19B 2188   2.233   2.000   6.303 -1.5418  0.7289 -0.1066
   30CHL1  H19C 2189   2.277   1.993   6.472 -3.1719 -3.5121 -2.1306
   30CHL1    C1 2190   2.313   2.258   6.242 -0.5114 -0.2930  0.5091
   30CHL1   H1A 2191   2.208   2.290   6.261 -0.4579  1.6810 -2.0353
   30CHL1   H1B 2192   2.378   2.348   6.246 -0.8474  0.0203 -0.7208
   30CHL1    C2 2193   2.321   2.183   6.113 -0.0469  0.3605  0.7880
   30CHL1   H2A 2194   2.297   2.253   6.030  0.3856  0.3868  0.6824
   30CHL1   H2B 2195   2.242   2.106   6.118 -0.5699  0.7842 -0.4651
   30CHL1   C20 2196   2.255   2.446   7.002 -0.0850  0.0803  0.1812
   30CHL1   H20 2197   2.228   2.345   7.040  3.3085 -1.4236 -1.0485
   30CHL1   C21 2198   2.142   2.526   6.940 -0.1083 -0.1273 -1.1554
   30CHL1  H21A 2199   2.191   2.616   6.896 -1.1043  0.4828 -1.0692
   30CHL1  H21B 2200   2.078   2.548   7.028  0.9629 -1.0676 -0.1262
   30CHL1  H21C 2201   2.068   2.471   6.877  0.8805 -1.6379 -1.0429
   30CHL1   C22 2202   2.320   2.521   7.125 -1.0792  0.2199  0.9703
   30CHL1  H22A 2203   2.430   2.509   7.127 -1.0831  0.2147  3.3235
   30CHL1  H22B 2204   2.305   2.628   7.098 -1.2647 -0.3013 -1.2476
   30CHL1   C23 2205   2.255   2.496   7.258  0.0374  0.8341 -0.0528
   30CHL1  H23A 2206   2.298   2.578   7.319 -0.7723 -0.5728  2.5506
   30CHL1  H23B 2207   2.149   2.516   7.230 -0.3105 -2.1545 -1.2719
   30CHL1   C24 2208   2.278   2.358   7.317 -0.0752  0.7326  0.4015
   30CHL1  H24A 2209   2.236   2.284   7.244  1.5925  0.1154  0.0365
   30CHL1  H24B 2210   2.388   2.346   7.324 -0.1848 -0.0135  1.0107
   30CHL1   C25 2211   2.207   2.326   7.450 -0.1508 -0.3755  0.1376
   30CHL1   H25 2212   2.101   2.362   7.449 -0.3718 -1.0301 -0.4488
   30CHL1   C26 2213   2.200   2.178   7.488 -0.2434  0.3411  0.0431
   30CHL1  H26A 2214   2.296   2.150   7.537 -0.1689  1.3231  0.4865
   30CHL1  H26B 2215   2.120   2.171   7.565 -1.9390 -0.4939 -1.7115
   30CHL1  H26C 2216   2.184   2.097   7.413  1.2715 -1.2422  1.3362
   30CHL1   C27 2217   2.274   2.422   7.559  0.3148 -0.4131  0.9535
   30CHL1  H27A 2218   2.385   2.424   7.555  0.3812 -2.0692  1.3157
   30CHL1  H27B 2219   2.255   2.530   7.541 -0.4893 -0.7612 -0.3628
   30CHL1  H27C 2220   2.233   2.380   7.653 -1.1304 -1.2454 -0.0174
   31CHL1    C3 2221   2.911   4.666   6.144 -0.1989 -0.0899  0.0706
   31CHL1    H3 2222   3.003   4.605   6.160  0.1190  0.0241 -1.2572
   31CHL1    O3 2223   2.911   4.707   6.011  0.1803  0.0437 -0.5334
   31CHL1   H3' 2224   2.976   4.654   5.964  1.6925  1.6097 -0.2899
   31CHL1    C4 2225   2.786   4.580   6.180 -0.3562 -1.0800  0.4601
   31CHL1   H4A 2226   2.703   4.649   6.152  0.8109 -0.0659 -0.6331
   31CHL1   H4B 2227   2.778   4.492   6.113 -1.9908 -0.4597 -0.1950
   31CHL1    C5 2228   2.759   4.564   6.329 -0.1016 -0.5678  0.4983
   31CHL1    C6 2229   2.726   4.445   6.369  0.4310  1.2612 -0.2712
   31CHL1    H6 2230   2.704   4.362   6.301  0.0199  0.4984  0.7713
   31CHL1    C7 2231   2.716   4.405   6.516 -0.0673  0.3862 -0.4643
   31CHL1   H7A 2232   2.631   4.337   6.537  1.4874 -1.2872  0.7422
   31CHL1   H7B 2233   2.805   4.344   6.543 -0.2203 -0.2442 -1.3458
   31CHL1    C8 2234   2.697   4.529   6.606  0.2574  0.0395  0.1768
   31CHL1    H8 2235   2.595   4.570   6.608 -0.9430 -2.7071  0.0813
   31CHL1   C14 2236   2.736   4.490   6.750  0.2576  0.4661  0.0401
   31CHL1   H14 2237   2.844   4.464   6.753  0.1632  0.1251  0.5800
   31CHL1   C15 2238   2.661   4.363   6.795 -0.0578 -1.1668 -0.0927
   31CHL1  H15A 2239   2.556   4.370   6.758  0.0069  1.6453 -0.0024
   31CHL1  H15B 2240   2.707   4.268   6.762  1.5972 -0.5912  0.4791
   31CHL1   C16 2241   2.681   4.367   6.945 -0.2008  0.0910 -0.2195
   31CHL1  H16A 2242   2.584   4.370   6.999  0.2356 -1.0914  0.6870
   31CHL1  H16B 2243   2.745   4.286   6.986 -0.2321  0.9601  1.6361
   31CHL1   C17 2244   2.751   4.501   6.984 -0.3011  0.2000 -0.0663
   31CHL1   H17 2245   2.861   4.494   6.973 -0.2846  0.4705 -0.1001
   31CHL1   C13 2246   2.725   4.588   6.866 -0.2576 -0.3382  0.7917
   31CHL1   C18 2247   2.574   4.650   6.870 -0.4449 -0.4187 -0.2150
   31CHL1  H18A 2248   2.558   4.726   6.949  0.2373  1.3832 -1.7489
   31CHL1  H18B 2249   2.557   4.708   6.778 -0.2277  1.3178  0.8049
   31CHL1  H18C 2250   2.489   4.578   6.870 -0.4609 -0.4632  1.5213
   31CHL1   C12 2251   2.827   4.699   6.828  0.0158  0.0724 -0.2392
   31CHL1  H12A 2252   2.795   4.783   6.894 -0.5118 -0.3733  0.0773
   31CHL1  H12B 2253   2.929   4.665   6.855 -0.5767 -1.3135  0.2873
   31CHL1   C11 2254   2.810   4.754   6.682 -0.0191  0.1475 -0.1261
   31CHL1  H11A 2255   2.720   4.818   6.673 -0.3915 -0.1439  1.2348
   31CHL1  H11B 2256   2.890   4.827   6.659 -0.2685  0.6990  0.6907
   31CHL1    C9 2257   2.804   4.632   6.572 -0.3883 -0.4894 -0.5545
   31CHL1    H9 2258   2.901   4.577   6.568 -0.9481 -1.5028 -0.5123
   31CHL1   C10 2259   2.791   4.680   6.424 -0.2370  0.3096  0.7075
   31CHL1   C19 2260   2.669   4.774   6.415 -0.0675 -0.1995  0.1008
   31CHL1  H19A 2261   2.693   4.869   6.468 -0.6200  0.2902 -0.5088
   31CHL1  H19B 2262   2.632   4.797   6.313 -1.3793  3.3610  1.2104
   31CHL1  H19C 2263   2.579   4.735   6.466 -0.5432  2.2705  1.3519
   31CHL1    C1 2264   2.912   4.767   6.384 -0.1737 -0.0319 -0.3868
   31CHL1   H1A 2265   2.900   4.868   6.428  0.0614  1.4496 -3.4728
   31CHL1   H1B 2266   3.010   4.718   6.404 -0.7831 -1.0804  0.1723
   31CHL1    C2 2267   2.913   4.799   6.229  0.4277 -0.2177  0.5739
   31CHL1   H2A 2268   3.005   4.858   6.205 -1.2753  1.8657 -1.2540
   31CHL1   H2B 2269   2.821   4.855   6.204 -0.8786 -2.9473 -1.2939
   31CHL1   C20 2270   2.729   4.550   7.132  0.0848 -0.5462  0.3208
   31CHL1   H20 2271   2.620   4.558   7.149  0.5153  3.4090  2.5565
   31CHL1   C21 2272   2.793   4.683   7.156 -0.2014  0.7976  0.8154
   31CHL1  H21A 2273   2.899   4.682   7.123 -0.5721 -1.8839 -0.5934
   31CHL1  H21B 2274   2.776   4.716   7.261 -0.3602  3.1545  0.1056
   31CHL1  H21C 2275   2.747   4.760   7.091  1.4237  2.4967  1.5685
   31CHL1   C22 2276   2.786   4.447   7.237 -0.7596  0.1058  1.2176
   31CHL1  H22A 2277   2.783   4.340   7.209  3.5869  0.3750 -1.1530
   31CHL1  H22B 2278   2.892   4.476   7.254 -0.0569 -0.4913 -1.7042
   31CHL1   C23 2279   2.715   4.466   7.374  0.0770  0.6795 -0.4202
   31CHL1  H23A 2280   2.698   4.571   7.407 -0.6237  0.4203  0.0785
   31CHL1  H23B 2281   2.614   4.420   7.370 -0.2811  1.2655  1.2617
   31CHL1   C24 2282   2.797   4.397   7.481 -0.8148  0.8171  0.3310
   31CHL1  H24A 2283   2.794   4.286   7.481  1.6326  0.7016  0.2271
   31CHL1  H24B 2284   2.901   4.428   7.458 -0.7077  0.5210  0.4142
   31CHL1   C25 2285   2.760   4.439   7.628  0.1444 -0.1676  0.9652
   31CHL1   H25 2286   2.656   4.411   7.656 -0.3667  0.4977 -0.1896
   31CHL1   C26 2287   2.852   4.361   7.726  0.1300  0.0487  0.0632
   31CHL1  H26A 2288   2.849   4.390   7.833  0.9364  1.6250 -0.3138
   31CHL1  H26B 2289   2.841   4.250   7.724 -0.0142  0.0529  0.4866
   31CHL1  H26C 2290   2.953   4.392   7.692 -1.1215  3.6543 -0.7660
   31CHL1   C27 2291   2.755   4.587   7.647 -0.4871  1.3466 -0.0814
   31CHL1  H27A 2292   2.841   4.644   7.605  0.2545  0.0504 -0.3854
   31CHL1  H27B 2293   2.764   4.618   7.753  3.0634  0.1537  0.0962
   31CHL1  H27C 2294   2.661   4.635   7.612  0.1064  2.6968  0.1211
   32CHL1    C3 2295   2.474   3.207   6.136  0.1017  0.3356 -0.1011
   32CHL1    H3 2296   2.568   3.237   6.085 -0.6744  0.2655 -1.6521
   32CHL1    O3 2297   2.382   3.158   6.032  0.8067 -0.2944 -0.4595
   32CHL1   H3' 2298   2.358   3.235   5.980 -2.5635 -1.1285 -0.4168
   32CHL1    C4 2299   2.512   3.096   6.236 -0.0710  0.5778  0.3405
   32CHL1   H4A 2300   2.420   3.038   6.258  2.1131 -2.9682  1.0684
   32CHL1   H4B 2301   2.569   3.016   6.185  1.0314  1.7080 -0.2628
   32CHL1    C5 2302   2.585   3.143   6.359  0.2308  0.0485  0.2842
   32CHL1    C6 2303   2.705   3.091   6.396 -0.2064  0.0388 -0.2780
   32CHL1    H6 2304   2.764   3.014   6.345 -0.9735 -0.0975 -0.9785
   32CHL1    C7 2305   2.771   3.118   6.526 -0.2316 -0.6433  0.0724
   32CHL1   H7A 2306   2.806   3.029   6.583 -0.8455  0.2878  1.9858
   32CHL1   H7B 2307   2.852   3.194   6.519 -1.7295  1.2306  1.8719
   32CHL1    C8 2308   2.676   3.201   6.624 -0.4707 -0.1076 -0.3077
   32CHL1    H8 2309   2.597   3.136   6.665 -1.4689  1.7083  0.7775
   32CHL1   C14 2310   2.754   3.261   6.740 -0.0273  0.7284 -0.0396
   32CHL1   H14 2311   2.819   3.332   6.683 -2.1593  0.6651 -2.7382
   32CHL1   C15 2312   2.841   3.159   6.825  1.0618 -0.5130 -0.5976
   32CHL1  H15A 2313   2.774   3.074   6.851  1.5325 -0.7068  0.0207
   32CHL1  H15B 2314   2.928   3.119   6.770  1.8909 -0.6982  0.8013
   32CHL1   C16 2315   2.881   3.241   6.948 -0.0092  0.9090 -0.7187
   32CHL1  H16A 2316   2.843   3.186   7.037  0.1618 -0.1809 -1.2917
   32CHL1  H16B 2317   2.990   3.262   6.951  0.4296 -1.0438 -1.4347
   32CHL1   C17 2318   2.804   3.382   6.940  0.4910  0.3339  0.0059
   32CHL1   H17 2319   2.876   3.448   6.887 -0.0119  0.6812 -0.2548
   32CHL1   C13 2320   2.685   3.348   6.845 -0.6300 -0.1457  0.1703
   32CHL1   C18 2321   2.572   3.270   6.917 -0.2005 -1.0353 -0.7203
   32CHL1  H18A 2322   2.525   3.339   6.991  0.5451 -1.0643 -0.2045
   32CHL1  H18B 2323   2.490   3.242   6.847 -1.0698  0.0599 -0.1816
   32CHL1  H18C 2324   2.608   3.181   6.974 -0.5934 -1.1659 -0.6718
   32CHL1   C12 2325   2.619   3.467   6.766 -0.1265 -0.1377 -0.1094
   32CHL1  H12A 2326   2.570   3.531   6.842 -0.4183  0.9235 -1.1478
   32CHL1  H12B 2327   2.696   3.521   6.706  0.9142 -1.8498 -0.3770
   32CHL1   C11 2328   2.524   3.407   6.655  0.1124 -0.8857 -0.5097
   32CHL1  H11A 2329   2.434   3.357   6.697 -0.3883  0.3701 -0.0615
   32CHL1  H11B 2330   2.486   3.500   6.608 -0.3116  0.1873  1.8717
   32CHL1    C9 2331   2.595   3.316   6.548  0.0486 -0.1734 -0.5532
   32CHL1    H9 2332   2.676   3.381   6.508  0.9943 -0.1549  1.2466
   32CHL1   C10 2333   2.510   3.252   6.437 -0.3110 -0.2294  0.3758
   32CHL1   C19 2334   2.383   3.186   6.498 -1.0248  0.1166 -0.3960
   32CHL1  H19A 2335   2.419   3.099   6.558  1.2289 -0.0731 -1.9154
   32CHL1  H19B 2336   2.334   3.255   6.571  1.0088 -0.0679  1.2491
   32CHL1  H19C 2337   2.302   3.156   6.428  0.1828 -0.7061 -1.4770
   32CHL1    C1 2338   2.469   3.371   6.337  0.1993 -0.6294  0.3741
   32CHL1   H1A 2339   2.391   3.433   6.387  1.1352  2.3801 -1.5885
   32CHL1   H1B 2340   2.556   3.433   6.308  0.4531 -0.5670  1.2352
   32CHL1    C2 2341   2.397   3.316   6.208 -0.2321 -0.2984 -0.4009
   32CHL1   H2A 2342   2.383   3.397   6.134 -0.5053  0.9130  0.9282
   32CHL1   H2B 2343   2.299   3.275   6.239  0.3260 -2.1524 -0.9569
   32CHL1   C20 2344   2.781   3.450   7.082  0.4414  0.6945 -0.0482
   32CHL1   H20 2345   2.723   3.376   7.141  0.2605  0.9161  0.0514
   32CHL1   C21 2346   2.697   3.579   7.079 -0.4252  0.0398 -0.3586
   32CHL1  H21A 2347   2.749   3.660   7.024  0.5043  1.0886  1.9171
   32CHL1  H21B 2348   2.679   3.610   7.184 -1.2288  0.0102 -0.4806
   32CHL1  H21C 2349   2.592   3.570   7.043 -0.0096 -1.6571 -1.2417
   32CHL1   C22 2350   2.918   3.465   7.153 -0.2607  0.0577  0.1623
   32CHL1  H22A 2351   2.981   3.380   7.119 -0.3664 -0.3883  1.0488
   32CHL1  H22B 2352   2.951   3.566   7.121 -1.7722  0.4059 -0.4082
   32CHL1   C23 2353   2.914   3.466   7.306 -0.0982  0.2719  0.2936
   32CHL1  H23A 2354   3.017   3.480   7.345 -0.1659 -1.7011  1.3105
   32CHL1  H23B 2355   2.838   3.539   7.341 -1.9566 -1.5569  0.3096
   32CHL1   C24 2356   2.876   3.327   7.363 -0.4278  0.1337 -0.4076
   32CHL1  H24A 2357   2.771   3.309   7.332 -0.3836 -2.2027  0.5451
   32CHL1  H24B 2358   2.927   3.253   7.297 -2.3554  0.0351 -1.8940
   32CHL1   C25 2359   2.894   3.306   7.519  0.1607  0.0442  0.0979
   32CHL1   H25 2360   2.997   3.337   7.547  1.2498 -1.4879 -1.9638
   32CHL1   C26 2361   2.797   3.401   7.594 -0.1535 -0.7054 -0.2919
   32CHL1  H26A 2362   2.696   3.382   7.551 -0.1449 -0.2883 -0.5033
   32CHL1  H26B 2363   2.784   3.391   7.704 -1.8232 -2.5690 -0.6084
   32CHL1  H26C 2364   2.830   3.506   7.580 -0.0503 -0.8814 -1.4377
   32CHL1   C27 2365   2.873   3.158   7.546  0.2076  0.1763  0.8153
   32CHL1  H27A 2366   2.914   3.130   7.646  2.9276  2.6823  0.5626
   32CHL1  H27B 2367   2.770   3.121   7.533 -0.3367  1.9701 -0.3849
   32CHL1  H27C 2368   2.932   3.106   7.468  0.7015  3.3925 -1.1597
   33CHL1    C3 2369   4.745   3.482   5.960  1.0063 -1.2030  0.0030
   33CHL1    H3 2370   4.652   3.432   5.990  0.6196 -1.0045 -0.8221
   33CHL1    O3 2371   4.707   3.555   5.845 -0.4124  0.1893 -0.1554
   33CHL1   H3' 2372   4.781   3.613   5.828 -0.1665 -0.0669  0.0154
   33CHL1    C4 2373   4.797   3.570   6.071  0.0873  0.6435  0.0586
   33CHL1   H4A 2374   4.881   3.619   6.017 -0.1909 -2.2216 -3.3299
   33CHL1   H4B 2375   4.731   3.657   6.089 -0.3678  0.7606 -1.9075
   33CHL1    C5 2376   4.849   3.492   6.192 -0.0348  0.3899 -0.7860
   33CHL1    C6 2377   4.800   3.522   6.311  0.1884  0.5704  0.3299
   33CHL1    H6 2378   4.732   3.608   6.324 -1.0596 -0.1536 -1.1063
   33CHL1    C7 2379   4.842   3.469   6.441 -0.5106 -0.3792  0.0343
   33CHL1   H7A 2380   4.834   3.544   6.524  0.4636 -0.9503  0.6637
   33CHL1   H7B 2381   4.766   3.397   6.477 -1.9632  1.6285  1.1813
   33CHL1    C8 2382   4.982   3.390   6.426  0.8907 -0.4153 -0.9741
   33CHL1    H8 2383   5.060   3.466   6.402 -0.7181  1.5167 -0.3485
   33CHL1   C14 2384   5.017   3.311   6.553  0.2019 -0.0118 -0.3674
   33CHL1   H14 2385   4.942   3.235   6.583  0.5542 -0.6166 -0.9919
   33CHL1   C15 2386   5.034   3.405   6.677 -0.7214 -0.4653  0.5144
   33CHL1  H15A 2387   5.083   3.501   6.650 -0.1080 -0.6768  0.8510
   33CHL1  H15B 2388   4.936   3.439   6.716 -1.2276  3.1570 -3.1929
   33CHL1   C16 2389   5.130   3.334   6.768 -0.5050 -0.1169  0.4369
   33CHL1  H16A 2390   5.220   3.397   6.783  0.4685 -1.4037  0.0907
   33CHL1  H16B 2391   5.093   3.306   6.869 -0.4420 -2.2440 -0.0818
   33CHL1   C17 2392   5.165   3.200   6.689 -0.3703 -0.2783  0.1396
   33CHL1   H17 2393   5.088   3.122   6.708 -0.7468  0.1235  0.2511
   33CHL1   C13 2394   5.149   3.240   6.542  0.6855  0.4404 -0.2108
   33CHL1   C18 2395   5.262   3.339   6.499 -0.8919 -0.0536 -0.3239
   33CHL1  H18A 2396   5.233   3.384   6.401 -1.1374 -0.6122 -0.5122
   33CHL1  H18B 2397   5.291   3.413   6.577 -1.6709 -0.0225 -0.0557
   33CHL1  H18C 2398   5.357   3.286   6.480 -1.5623 -0.8905 -1.4528
   33CHL1   C12 2399   5.123   3.125   6.438  1.0180 -0.1159  0.2063
   33CHL1  H12A 2400   5.213   3.065   6.413  0.2590 -1.2170  0.0698
   33CHL1  H12B 2401   5.038   3.060   6.467 -0.3149  0.0665 -2.9722
   33CHL1   C11 2402   5.077   3.180   6.298  0.0371 -0.4330  0.5109
   33CHL1  H11A 2403   5.162   3.211   6.233  0.1733 -2.1786 -0.2026
   33CHL1  H11B 2404   5.024   3.106   6.234  0.0993  0.1065 -0.1815
   33CHL1    C9 2405   4.969   3.297   6.302 -0.2715 -0.0423 -0.0235
   33CHL1    H9 2406   4.883   3.230   6.320 -0.6708  0.8458  1.5635
   33CHL1   C10 2407   4.953   3.373   6.165  0.2739 -0.5212 -0.3046
   33CHL1   C19 2408   5.086   3.421   6.108 -0.2585  0.1198  0.1294
   33CHL1  H19A 2409   5.080   3.490   6.021  1.0870 -0.4128 -0.4143
   33CHL1  H19B 2410   5.149   3.476   6.180 -0.1356 -1.9500  1.6993
   33CHL1  H19C 2411   5.145   3.336   6.066 -1.6011  0.3113 -2.3697
   33CHL1    C1 2412   4.885   3.290   6.051 -0.3661 -0.3773  0.1400
   33CHL1   H1A 2413   4.943   3.199   6.027 -1.4929 -0.9745 -0.4235
   33CHL1   H1B 2414   4.789   3.245   6.086  1.0505 -1.1942  3.3903
   33CHL1    C2 2415   4.834   3.360   5.927  0.6308  0.0739  1.1318
   33CHL1   H2A 2416   4.776   3.286   5.867  1.4533  0.4925 -0.2015
   33CHL1   H2B 2417   4.918   3.397   5.865 -0.9831  0.4285 -0.9465
   33CHL1   C20 2418   5.305   3.148   6.731 -0.5602 -0.1006 -0.3952
   33CHL1   H20 2419   5.376   3.231   6.710  0.3762 -0.9693 -0.7171
   33CHL1   C21 2420   5.340   3.024   6.655  0.5642  0.3243  0.3677
   33CHL1  H21A 2421   5.266   2.941   6.655  0.9243 -0.0129  1.1700
   33CHL1  H21B 2422   5.441   2.987   6.686  0.9900  1.6879  0.6479
   33CHL1  H21C 2423   5.360   3.048   6.548  0.5168 -1.0901  0.0191
   33CHL1   C22 2424   5.324   3.125   6.888 -0.1927  0.2686 -0.1718
   33CHL1  H22A 2425   5.295   3.214   6.948  2.3097  0.0264  1.5701
   33CHL1  H22B 2426   5.258   3.041   6.920  1.5837 -0.0565  3.1269
   33CHL1   C23 2427   5.474   3.097   6.923  0.0806  0.3264 -0.2976
   33CHL1  H23A 2428   5.502   2.996   6.887  0.9452 -0.1871  1.6386
   33CHL1  H23B 2429   5.538   3.175   6.876 -0.7909  0.6385 -1.0021
   33CHL1   C24 2430   5.499   3.106   7.069 -0.2472 -0.3610 -1.0620
   33CHL1  H24A 2431   5.514   3.214   7.092 -0.4955 -0.4911 -0.2684
   33CHL1  H24B 2432   5.405   3.082   7.123 -0.8735  2.0851 -0.9748
   33CHL1   C25 2433   5.623   3.027   7.131 -0.2158  0.0211  0.1756
   33CHL1   H25 2434   5.595   2.922   7.108  0.3619 -0.1317  0.1598
   33CHL1   C26 2435   5.756   3.050   7.059 -0.2672 -0.9576  0.6704
   33CHL1  H26A 2436   5.753   3.006   6.958  1.2720  1.0763 -0.3440
   33CHL1  H26B 2437   5.777   3.159   7.051 -1.2442 -0.9217 -2.2434
   33CHL1  H26C 2438   5.845   3.004   7.107  2.8529 -0.2882 -3.8298
   33CHL1   C27 2439   5.633   3.057   7.275  0.1566  0.3922 -0.2743
   33CHL1  H27A 2440   5.539   3.032   7.329  0.2518  1.4513  0.4069
   33CHL1  H27B 2441   5.716   2.993   7.311 -0.7808 -1.6725 -1.5347
   33CHL1  H27C 2442   5.650   3.165   7.289  0.8519  0.2859 -0.2625
   34CHL1    C3 2443   5.014   2.288   5.835  0.1902  0.5997  0.0991
   34CHL1    H3 2444   4.968   2.388   5.836 -1.8493 -0.2029 -2.5027
   34CHL1    O3 2445   5.028   2.255   5.695  0.4780 -1.0022 -0.7228
   34CHL1   H3' 2446   5.061   2.165   5.685  0.9626 -0.9229  0.0862
   34CHL1    C4 2447   5.157   2.286   5.900  0.0382  0.1302  0.3024
   34CHL1   H4A 2448   5.212   2.193   5.876  3.0623  2.3368 -2.1021
   34CHL1   H4B 2449   5.208   2.373   5.854  0.5296  0.7873  2.0177
   34CHL1    C5 2450   5.144   2.312   6.051  0.0408  0.5189 -0.9322
   34CHL1    C6 2451   5.207   2.416   6.105  0.1573 -0.2331 -1.0229
   34CHL1    H6 2452   5.273   2.479   6.043 -0.0851  1.9079  0.7909
   34CHL1    C7 2453   5.202   2.440   6.254 -0.0123 -0.4559  0.0160
   34CHL1   H7A 2454   5.301   2.468   6.295 -0.6029 -0.2284  1.3417
   34CHL1   H7B 2455   5.137   2.528   6.276 -1.2660 -0.4877 -3.1005
   34CHL1    C8 2456   5.161   2.315   6.334  0.1597  0.3209  0.6865
   34CHL1    H8 2457   5.244   2.241   6.332  0.2099  0.2633 -3.3208
   34CHL1   C14 2458   5.133   2.355   6.475  0.2958 -0.5344 -0.7423
   34CHL1   H14 2459   5.050   2.428   6.461  0.5164  0.3862  2.1072
   34CHL1   C15 2460   5.244   2.427   6.549  0.5863 -0.2041  0.2913
   34CHL1  H15A 2461   5.331   2.359   6.531 -0.0073 -0.2485 -3.0965
   34CHL1  H15B 2462   5.253   2.532   6.513  0.8077  0.8896  3.3064
   34CHL1   C16 2463   5.209   2.419   6.695  0.1108 -0.2103 -0.2875
   34CHL1  H16A 2464   5.289   2.363   6.747 -0.8606  1.0901  2.8404
   34CHL1  H16B 2465   5.195   2.520   6.740  0.8601 -0.2982  0.1515
   34CHL1   C17 2466   5.082   2.322   6.703  0.2863 -0.3039  0.4052
   34CHL1   H17 2467   5.002   2.398   6.695 -0.2097 -0.8739 -0.1610
   34CHL1   C13 2468   5.077   2.244   6.569  0.1316  0.5692  0.2310
   34CHL1   C18 2469   5.191   2.134   6.573 -0.1412  0.2437 -0.1500
   34CHL1  H18A 2470   5.156   2.053   6.641 -0.9743  3.0355  3.0060
   34CHL1  H18B 2471   5.210   2.082   6.477  1.2812  1.5917 -0.6394
   34CHL1  H18C 2472   5.287   2.172   6.613  0.0189 -0.5168  0.2145
   34CHL1   C12 2473   4.945   2.191   6.512  0.0836 -0.0826  0.1318
   34CHL1  H12A 2474   4.893   2.113   6.571 -3.8834  2.2789  0.0820
   34CHL1  H12B 2475   4.875   2.276   6.495 -0.4187 -0.7468 -1.2439
   34CHL1   C11 2476   4.967   2.147   6.365  0.0783 -0.2716 -0.1685
   34CHL1  H11A 2477   5.032   2.058   6.376 -0.6066 -0.5076  3.2633
   34CHL1  H11B 2478   4.871   2.116   6.319  0.7349  0.6567 -2.2931
   34CHL1    C9 2479   5.031   2.251   6.274 -0.4260 -0.4839  0.2631
   34CHL1    H9 2480   4.956   2.332   6.270 -0.4620 -0.4212  1.6157
   34CHL1   C10 2481   5.056   2.217   6.125  0.4984  0.2214 -0.2740
   34CHL1   C19 2482   5.115   2.071   6.130 -0.1790 -0.4378  0.2263
   34CHL1  H19A 2483   5.133   2.032   6.027  0.0114 -2.9626  1.1540
   34CHL1  H19B 2484   5.219   2.067   6.168  0.5393  1.2268 -1.3571
   34CHL1  H19C 2485   5.039   2.009   6.183  0.5768  0.3950  2.3896
   34CHL1    C1 2486   4.914   2.210   6.054  0.1818 -0.1029  0.1369
   34CHL1   H1A 2487   4.848   2.139   6.108 -0.9271  0.9358  0.1927
   34CHL1   H1B 2488   4.871   2.311   6.069  1.6680  0.8564 -1.7141
   34CHL1    C2 2489   4.924   2.188   5.903 -0.3315 -0.2917  0.0581
   34CHL1   H2A 2490   4.828   2.184   5.847 -0.6765 -0.5451  0.6581
   34CHL1   H2B 2491   4.972   2.091   5.878  1.7124  0.3292  1.2824
   34CHL1   C20 2492   5.073   2.247   6.836 -0.0166 -0.1683  0.0055
   34CHL1   H20 2493   5.151   2.169   6.840  0.1018  0.0102  1.6254
   34CHL1   C21 2494   4.934   2.181   6.823  0.6131  0.1162 -0.3677
   34CHL1  H21A 2495   4.852   2.245   6.784  1.4889  0.8386 -1.0671
   34CHL1  H21B 2496   4.911   2.149   6.927  0.1225  0.6827 -0.2987
   34CHL1  H21C 2497   4.942   2.084   6.770 -1.7617 -0.2967 -0.1006
   34CHL1   C22 2498   5.094   2.340   6.961 -0.8606 -0.0472  0.2779
   34CHL1  H22A 2499   5.195   2.384   6.948  0.2382 -2.5170 -0.2574
   34CHL1  H22B 2500   5.016   2.417   6.971 -0.1427  0.6403  0.6847
   34CHL1   C23 2501   5.109   2.253   7.086 -0.5543 -0.5578 -0.2920
   34CHL1  H23A 2502   5.014   2.199   7.108  0.0663 -1.4704  0.2099
   34CHL1  H23B 2503   5.188   2.175   7.075 -0.6780 -0.5229 -1.6051
   34CHL1   C24 2504   5.142   2.337   7.220  0.0884 -0.0610  0.0344
   34CHL1  H24A 2505   5.242   2.380   7.198  0.6422 -0.7827  1.1144
   34CHL1  H24B 2506   5.073   2.424   7.225 -0.3769 -0.1940 -2.4898
   34CHL1   C25 2507   5.134   2.256   7.356  0.8957  0.7408  0.8786
   34CHL1   H25 2508   5.184   2.313   7.437  2.0163 -0.0833  0.7869
   34CHL1   C26 2509   4.981   2.243   7.388 -0.4638 -0.3672  0.0630
   34CHL1  H26A 2510   4.927   2.340   7.383  0.2752  0.0469 -0.0298
   34CHL1  H26B 2511   4.930   2.185   7.309 -2.3964  1.5739 -0.2171
   34CHL1  H26C 2512   4.971   2.193   7.487 -1.4386 -1.8193 -0.7333
   34CHL1   C27 2513   5.193   2.116   7.353  0.0834 -0.0857  0.3824
   34CHL1  H27A 2514   5.303   2.123   7.335  0.4828  1.1328  2.9122
   34CHL1  H27B 2515   5.176   2.085   7.458  1.4938  1.0180  0.9653
   34CHL1  H27C 2516   5.134   2.050   7.286  0.1769  1.3567 -1.1768
   35CHL1    C3 2517   2.166   4.757   5.925  0.3819 -0.8508 -0.4906
   35CHL1    H3 2518   2.247   4.821   5.966 -0.0949  1.5914 -3.0384
   35CHL1    O3 2519   2.138   4.804   5.796  0.0342 -0.9172 -0.4230
   35CHL1   H3' 2520   2.105   4.893   5.812  2.1348 -0.2738  0.6904
   35CHL1    C4 2521   2.201   4.604   5.915  0.9239  0.2810 -0.4067
   35CHL1   H4A 2522   2.123   4.544   5.863  1.6634 -1.9590  0.9056
   35CHL1   H4B 2523   2.291   4.594   5.850  1.8102  0.7014  0.7124
   35CHL1    C5 2524   2.232   4.548   6.051 -0.0515 -0.0657 -0.4357
   35CHL1    C6 2525   2.351   4.500   6.082  0.4621  0.4005 -0.2575
   35CHL1    H6 2526   2.431   4.497   6.008 -0.1691 -1.0975 -0.9257
   35CHL1    C7 2527   2.377   4.430   6.214 -0.3014  0.5804 -0.0957
   35CHL1   H7A 2528   2.429   4.333   6.194 -0.0287  0.5433  0.7488
   35CHL1   H7B 2529   2.451   4.488   6.273  1.8906  0.0162 -2.1073
   35CHL1    C8 2530   2.248   4.401   6.295 -0.1023 -0.1939  0.3355
   35CHL1    H8 2531   2.188   4.325   6.241  2.3823 -1.1425 -1.2959
   35CHL1   C14 2532   2.276   4.354   6.435 -0.4086  0.2992  0.0329
   35CHL1   H14 2533   2.345   4.434   6.471 -0.2690  0.5677 -0.7889
   35CHL1   C15 2534   2.354   4.224   6.463 -0.3036  0.3030 -0.4281
   35CHL1  H15A 2535   2.302   4.142   6.409 -1.9898  0.9129  0.1951
   35CHL1  H15B 2536   2.460   4.224   6.431 -0.1931 -0.4163 -0.0673
   35CHL1   C16 2537   2.328   4.194   6.620 -0.0926  0.0989  0.3881
   35CHL1  H16A 2538   2.285   4.092   6.625  2.3937 -0.9771  1.4695
   35CHL1  H16B 2539   2.421   4.192   6.680 -0.7227  1.3418  1.4349
   35CHL1   C17 2540   2.227   4.305   6.659 -0.2989  0.4356  0.5504
   35CHL1   H17 2541   2.298   4.386   6.688 -1.7972  2.2146 -0.5638
   35CHL1   C13 2542   2.161   4.354   6.532 -0.6781  0.0454 -0.5364
   35CHL1   C18 2543   2.053   4.254   6.489  0.0197  0.9660  0.1361
   35CHL1  H18A 2544   2.025   4.271   6.383  1.3662  0.3032 -0.3423
   35CHL1  H18B 2545   2.090   4.150   6.490 -1.8548  0.2083  2.6569
   35CHL1  H18C 2546   1.959   4.261   6.548  0.0282  2.0182  0.0581
   35CHL1   C12 2547   2.104   4.503   6.545  0.6560  0.8363  0.1074
   35CHL1  H12A 2548   2.035   4.513   6.631  2.9236  0.3928  2.1005
   35CHL1  H12B 2549   2.193   4.566   6.568  0.8387  1.0232 -1.0530
   35CHL1   C11 2550   2.048   4.541   6.401  0.7053 -0.4695 -0.0691
   35CHL1  H11A 2551   1.961   4.481   6.364  0.0536  1.2336 -1.4408
   35CHL1  H11B 2552   2.010   4.645   6.405 -3.8795 -1.9334  0.7706
   35CHL1    C9 2553   2.162   4.533   6.296 -0.2726  0.3682 -0.3829
   35CHL1    H9 2554   2.229   4.619   6.320  0.0408  0.2284 -0.7471
   35CHL1   C10 2555   2.114   4.563   6.151 -0.1851 -0.2379  0.2454
   35CHL1   C19 2556   2.002   4.465   6.111 -0.3735  0.2986 -0.2041
   35CHL1  H19A 2557   2.033   4.363   6.139  0.0407  0.4280 -0.1826
   35CHL1  H19B 2558   1.903   4.503   6.144 -0.6352  3.3636 -3.7481
   35CHL1  H19C 2559   1.978   4.467   6.002  0.9810 -0.4330 -0.5278
   35CHL1    C1 2560   2.071   4.715   6.146 -0.2030  0.3918  0.2643
   35CHL1   H1A 2561   1.974   4.730   6.199 -0.2965  0.9225 -0.0415
   35CHL1   H1B 2562   2.153   4.775   6.191  0.7934 -0.7645  0.0276
   35CHL1    C2 2563   2.039   4.777   6.008 -0.0320  0.0056 -0.4642
   35CHL1   H2A 2564   2.023   4.887   6.004  0.1595  0.0142 -3.6987
   35CHL1   H2B 2565   1.960   4.724   5.950 -1.0959 -2.5131  3.0019
   35CHL1   C20 2566   2.150   4.282   6.791 -0.2557  0.6385 -1.6842
   35CHL1   H20 2567   2.067   4.355   6.802 -0.1004  0.3715  3.7413
   35CHL1   C21 2568   2.247   4.316   6.906  0.2187  0.0028  0.4118
   35CHL1  H21A 2569   2.330   4.242   6.898 -0.7516 -1.0192 -0.7456
   35CHL1  H21B 2570   2.191   4.289   6.997  1.3576  1.1638  1.5012
   35CHL1  H21C 2571   2.283   4.421   6.897 -0.8962  0.3370 -0.3337
   35CHL1   C22 2572   2.087   4.139   6.824 -0.1391 -0.2307 -0.3578
   35CHL1  H22A 2573   2.030   4.106   6.735 -0.8756  1.0674 -0.3950
   35CHL1  H22B 2574   2.157   4.054   6.835 -1.7704 -1.5761 -0.0286
   35CHL1   C23 2575   1.986   4.135   6.941  0.1955  1.3008  0.3742
   35CHL1  H23A 2576   2.049   4.134   7.033  0.2271  1.4069  0.3538
   35CHL1  H23B 2577   1.919   4.222   6.928  2.6033  3.3226  0.7158
   35CHL1   C24 2578   1.908   4.004   6.960  0.5574 -0.1136  0.3053
   35CHL1  H24A 2579   1.827   3.985   6.887 -1.7623  0.5228  2.5344
   35CHL1  H24B 2580   1.979   3.919   6.975 -0.9128 -1.2722  1.0462
   35CHL1   C25 2581   1.814   3.997   7.080  1.1603 -0.0971 -0.3493
   35CHL1   H25 2582   1.724   4.059   7.062  0.3155 -1.0852  0.3463
   35CHL1   C26 2583   1.755   3.854   7.081  0.3952 -0.5947  0.2965
   35CHL1  H26A 2584   1.682   3.849   7.165  0.1244 -0.3745  0.0739
   35CHL1  H26B 2585   1.709   3.824   6.985  0.3337 -2.2198  0.8031
   35CHL1  H26C 2586   1.833   3.776   7.093 -0.6158 -2.4290 -3.6301
   35CHL1   C27 2587   1.885   4.016   7.220  0.4141  0.6008 -0.2645
   35CHL1  H27A 2588   1.963   3.938   7.227 -0.4900 -0.2405  0.7430
   35CHL1  H27B 2589   1.817   3.984   7.302  0.6113 -0.6569 -0.5652
   35CHL1  H27C 2590   1.924   4.119   7.234  1.5275  0.0343  0.9163
   36CHL1    C3 2591   1.895   2.332   6.276  0.4919 -0.7767 -0.3917
   36CHL1    H3 2592   1.995   2.300   6.310  0.9483 -1.3269 -2.1592
   36CHL1    O3 2593   1.879   2.346   6.133 -0.3882 -0.3456 -0.3668
   36CHL1   H3' 2594   1.792   2.382   6.114  0.2691  1.4151 -0.2520
   36CHL1    C4 2595   1.800   2.214   6.311  0.0764 -0.3657  0.3315
   36CHL1   H4A 2596   1.694   2.232   6.284  1.2286  2.7099 -3.0310
   36CHL1   H4B 2597   1.837   2.125   6.256 -1.2634 -0.3286 -0.6819
   36CHL1    C5 2598   1.810   2.184   6.461  0.1974  0.0665 -0.3101
   36CHL1    C6 2599   1.856   2.070   6.517  0.2986 -0.3044 -0.5950
   36CHL1    H6 2600   1.883   1.991   6.446  1.1155 -1.5050  0.9826
   36CHL1    C7 2601   1.861   2.045   6.666  1.0549 -0.1224 -0.1667
   36CHL1   H7A 2602   1.822   1.942   6.680 -1.0143  0.9117  2.6779
   36CHL1   H7B 2603   1.968   2.037   6.697  1.2783  1.3095 -0.4777
   36CHL1    C8 2604   1.780   2.146   6.747  0.4015  0.0746 -0.1927
   36CHL1    H8 2605   1.671   2.128   6.746  0.1439  0.9827  2.5666
   36CHL1   C14 2606   1.817   2.135   6.892 -0.5873  0.3956  0.2623
   36CHL1   H14 2607   1.925   2.162   6.891 -0.1426 -1.2519  0.7659
   36CHL1   C15 2608   1.828   1.987   6.955 -0.1370 -0.2876  0.4209
   36CHL1  H15A 2609   1.744   1.922   6.920 -0.0198  0.6459 -1.7994
   36CHL1  H15B 2610   1.919   1.939   6.915 -0.5508  0.0482 -0.9946
   36CHL1   C16 2611   1.823   2.014   7.105 -0.3923  0.0228  0.3425
   36CHL1  H16A 2612   1.740   1.964   7.159  0.7259 -2.4673 -0.0935
   36CHL1  H16B 2613   1.907   1.971   7.164 -0.1685  1.7276  1.3124
   36CHL1   C17 2614   1.804   2.172   7.127 -0.1439  0.1872 -0.2041
   36CHL1   H17 2615   1.907   2.212   7.133 -0.9325  2.1619  1.6450
   36CHL1   C13 2616   1.740   2.223   6.993  0.3766  0.1925  0.6984
   36CHL1   C18 2617   1.587   2.198   6.985 -0.6172 -0.3468  0.0986
   36CHL1  H18A 2618   1.539   2.258   7.066 -1.8823  0.2362 -1.0505
   36CHL1  H18B 2619   1.527   2.210   6.893  1.3160 -2.0065 -1.4726
   36CHL1  H18C 2620   1.574   2.096   7.027  0.0936  0.0214  1.2892
   36CHL1   C12 2621   1.761   2.369   6.946 -0.1704 -0.0959  0.8985
   36CHL1  H12A 2622   1.690   2.438   6.997  1.5434  2.0020  0.6193
   36CHL1  H12B 2623   1.866   2.397   6.969  0.1581 -0.9940  0.5369
   36CHL1   C11 2624   1.738   2.384   6.796 -0.0877  0.4232 -0.2489
   36CHL1  H11A 2625   1.631   2.361   6.778  0.0506 -1.9001  1.3636
   36CHL1  H11B 2626   1.772   2.489   6.785 -1.5358  1.0114  0.6172
   36CHL1    C9 2627   1.806   2.290   6.696 -0.3743  0.5189  0.8395
   36CHL1    H9 2628   1.915   2.308   6.698 -0.4997  1.8709 -1.0649
   36CHL1   C10 2629   1.766   2.317   6.544 -0.2648  0.3889  0.6073
   36CHL1   C19 2630   1.616   2.344   6.525 -0.2427 -0.3929 -0.9913
   36CHL1  H19A 2631   1.560   2.259   6.570 -0.8972  0.3500 -0.3613
   36CHL1  H19B 2632   1.591   2.436   6.583 -1.4001 -0.4468 -1.3752
   36CHL1  H19C 2633   1.597   2.361   6.417 -2.5611  1.2298 -0.4103
   36CHL1    C1 2634   1.848   2.441   6.492  0.1325 -0.3360  0.5088
   36CHL1   H1A 2635   1.810   2.533   6.541  2.0048  0.7381  0.0475
   36CHL1   H1B 2636   1.954   2.437   6.526  0.7767 -1.2347 -1.4158
   36CHL1    C2 2637   1.846   2.465   6.338  0.6716  0.2936 -0.2811
   36CHL1   H2A 2638   1.922   2.542   6.311  1.2722  0.4506  1.7172
   36CHL1   H2B 2639   1.748   2.495   6.295 -0.5984 -0.6593  1.8123
   36CHL1   C20 2640   1.734   2.212   7.257 -0.9432  0.0477 -1.0902
   36CHL1   H20 2641   1.628   2.179   7.253 -1.2081  0.6842  0.2808
   36CHL1   C21 2642   1.742   2.367   7.276 -0.2044 -0.2139  0.3611
   36CHL1  H21A 2643   1.715   2.405   7.377  0.1042 -1.8238  1.0756
   36CHL1  H21B 2644   1.676   2.423   7.206 -0.1362 -0.0502  0.4286
   36CHL1  H21C 2645   1.847   2.402   7.261 -0.4948 -0.0688 -1.7274
   36CHL1   C22 2646   1.782   2.136   7.383 -0.0320  0.0234 -0.0691
   36CHL1  H22A 2647   1.782   2.029   7.355 -1.9367  0.7519 -3.4229
   36CHL1  H22B 2648   1.887   2.172   7.389 -0.2336  0.4638  1.0626
   36CHL1   C23 2649   1.686   2.146   7.505  0.2877  0.3609 -0.1082
   36CHL1  H23A 2650   1.673   2.249   7.543 -0.7054 -0.0127  0.5996
   36CHL1  H23B 2651   1.585   2.109   7.478  0.6038 -0.2109 -0.5384
   36CHL1   C24 2652   1.742   2.057   7.623 -0.2547  0.3492 -0.0774
   36CHL1  H24A 2653   1.849   2.089   7.620  0.1480 -0.9947 -0.4649
   36CHL1  H24B 2654   1.700   2.083   7.722 -1.7164  2.8193 -1.2281
   36CHL1   C25 2655   1.719   1.907   7.613  0.0293 -0.1072 -0.0042
   36CHL1   H25 2656   1.740   1.873   7.509 -1.4539 -4.1584  0.8238
   36CHL1   C26 2657   1.831   1.840   7.695 -0.6397  0.6131 -0.2750
   36CHL1  H26A 2658   1.933   1.864   7.659 -1.1010  1.9269 -0.7672
   36CHL1  H26B 2659   1.823   1.871   7.802 -0.4704  1.8881 -0.6173
   36CHL1  H26C 2660   1.820   1.730   7.690 -2.8223  0.7614  0.1288
   36CHL1   C27 2661   1.579   1.851   7.659  0.2519 -0.5689 -0.5837
   36CHL1  H27A 2662   1.557   1.749   7.620 -3.6640 -0.5749  1.2262
   36CHL1  H27B 2663   1.588   1.862   7.769 -2.0113 -1.9464 -0.1991
   36CHL1  H27C 2664   1.486   1.904   7.631  1.1752  2.5502  1.6034
   37CHL1    C3 2665   4.397   5.689   5.948  0.1422  0.1113  0.2917
   37CHL1    H3 2666   4.310   5.620   5.939 -0.1832  0.5651 -0.0474
   37CHL1    O3 2667   4.437   5.707   5.815 -0.0455  0.2913 -0.1520
   37CHL1   H3' 2668   4.496   5.783   5.817  1.0877 -0.4922 -1.4463
   37CHL1    C4 2669   4.355   5.818   6.014 -0.1930 -0.2170 -1.0077
   37CHL1   H4A 2670   4.441   5.888   6.003 -1.2411  1.3746  0.4382
   37CHL1   H4B 2671   4.278   5.870   5.954 -1.1193 -0.7610 -0.3140
   37CHL1    C5 2672   4.322   5.802   6.157  0.3196  0.1604  0.6972
   37CHL1    C6 2673   4.195   5.833   6.196 -0.0855  0.6488  0.5846
   37CHL1    H6 2674   4.123   5.868   6.121 -0.1561  1.3802  0.9798
   37CHL1    C7 2675   4.143   5.804   6.337  0.8744 -0.0840  0.1207
   37CHL1   H7A 2676   4.086   5.897   6.359 -0.1104 -0.3607 -1.1420
   37CHL1   H7B 2677   4.085   5.709   6.338  1.0525 -0.2623 -2.2468
   37CHL1    C8 2678   4.260   5.788   6.429 -0.0594 -0.4514 -0.1623
   37CHL1    H8 2679   4.318   5.883   6.435  1.5691 -1.3515 -1.1037
   37CHL1   C14 2680   4.205   5.737   6.558  0.0496 -0.3562  0.3515
   37CHL1   H14 2681   4.175   5.630   6.546 -0.8491 -0.1511  0.6523
   37CHL1   C15 2682   4.086   5.805   6.617 -0.7697  0.5135  0.4511
   37CHL1  H15A 2683   4.111   5.913   6.623 -1.3434  0.7246 -0.6825
   37CHL1  H15B 2684   4.001   5.786   6.548  1.5407 -0.6148 -2.2754
   37CHL1   C16 2685   4.080   5.749   6.761  0.3234  0.5681  0.4024
   37CHL1  H16A 2686   4.071   5.834   6.832 -1.1365  0.6479  0.1472
   37CHL1  H16B 2687   3.988   5.688   6.773 -0.5537  1.8240  0.1909
   37CHL1   C17 2688   4.211   5.675   6.789 -0.6146  0.7392 -0.0420
   37CHL1   H17 2689   4.188   5.567   6.786 -0.3101  0.6859 -0.6896
   37CHL1   C13 2690   4.301   5.722   6.674 -0.5876 -0.4606 -0.0749
   37CHL1   C18 2691   4.369   5.860   6.708 -0.2587 -0.7680 -0.1445
   37CHL1  H18A 2692   4.411   5.907   6.617  0.5929 -2.7939 -0.8450
   37CHL1  H18B 2693   4.300   5.929   6.761 -1.4552  0.8376 -3.5422
   37CHL1  H18C 2694   4.459   5.850   6.774 -0.4857 -3.5632 -0.1473
   37CHL1   C12 2695   4.403   5.613   6.631  0.6029 -0.1304  0.2476
   37CHL1  H12A 2696   4.479   5.587   6.707  1.0685 -1.1203 -0.5337
   37CHL1  H12B 2697   4.352   5.517   6.609  0.1340 -0.2776  1.8389
   37CHL1   C11 2698   4.474   5.649   6.496 -0.2426 -0.3806  0.2472
   37CHL1  H11A 2699   4.522   5.749   6.509 -0.0192 -0.3631 -0.6265
   37CHL1  H11B 2700   4.553   5.582   6.455 -1.5069 -0.6990 -1.8028
   37CHL1    C9 2701   4.364   5.687   6.384 -0.2476  0.1237 -0.8845
   37CHL1    H9 2702   4.307   5.591   6.378 -0.5687  0.1469  1.0748
   37CHL1   C10 2703   4.423   5.726   6.248 -0.0214  0.5156 -0.3367
   37CHL1   C19 2704   4.553   5.810   6.265  0.0937 -0.7463 -0.3103
   37CHL1  H19A 2705   4.598   5.858   6.176  0.4812  1.2398  0.8846
   37CHL1  H19B 2706   4.525   5.899   6.325 -0.2406 -0.5739 -0.7167
   37CHL1  H19C 2707   4.636   5.760   6.319  0.4044  1.9183  1.9102
   37CHL1    C1 2708   4.472   5.597   6.180 -0.5778  0.0151  0.0682
   37CHL1   H1A 2709   4.558   5.557   6.238  1.8634  3.9103 -0.4739
   37CHL1   H1B 2710   4.383   5.531   6.189 -0.7563  0.2910  0.3183
   37CHL1    C2 2711   4.510   5.623   6.035  0.6140 -0.2350  0.3104
   37CHL1   H2A 2712   4.537   5.522   5.997  0.2326  0.4413 -1.9276
   37CHL1   H2B 2713   4.600   5.688   6.033  0.2416  0.2995  0.5196
   37CHL1   C20 2714   4.253   5.699   6.936  0.1635  0.5893  0.6078
   37CHL1   H20 2715   4.286   5.803   6.958  1.9405 -0.2920  2.5466
   37CHL1   C21 2716   4.364   5.602   6.965  0.3903  0.1477  0.6498
   37CHL1  H21A 2717   4.392   5.609   7.072  1.7819 -2.8807  0.5780
   37CHL1  H21B 2718   4.458   5.615   6.907  0.3410  0.2297  0.5884
   37CHL1  H21C 2719   4.331   5.498   6.945  1.5089 -0.1417  0.2343
   37CHL1   C22 2720   4.136   5.671   7.028 -0.1697  0.0313 -0.4527
   37CHL1  H22A 2721   4.081   5.767   7.028  0.3095  0.3159 -1.5658
   37CHL1  H22B 2722   4.064   5.601   6.980 -0.8075  1.0422 -0.9896
   37CHL1   C23 2723   4.160   5.626   7.172  0.0275  0.2412  0.8172
   37CHL1  H23A 2724   4.194   5.521   7.166  3.5927  1.2451  1.4424
   37CHL1  H23B 2725   4.246   5.682   7.214  2.3068 -3.1077  0.9813
   37CHL1   C24 2726   4.042   5.654   7.261 -0.1468 -0.2935  0.4872
   37CHL1  H24A 2727   4.031   5.762   7.283 -1.5280 -0.1895 -0.5464
   37CHL1  H24B 2728   3.946   5.619   7.217 -0.9031  2.7946 -0.5751
   37CHL1   C25 2729   4.047   5.565   7.384  1.2082  0.1754 -0.6693
   37CHL1   H25 2730   4.057   5.458   7.356 -1.9040  0.0046 -1.5595
   37CHL1   C26 2731   4.174   5.595   7.465 -0.1453 -0.6873  0.4291
   37CHL1  H26A 2732   4.164   5.573   7.573 -0.0492 -0.6765  0.4399
   37CHL1  H26B 2733   4.270   5.551   7.431 -1.1072 -2.7731  0.2913
   37CHL1  H26C 2734   4.191   5.705   7.459 -1.6107 -0.3796  1.4216
   37CHL1   C27 2735   3.920   5.602   7.470 -0.7920  0.0705 -0.2966
   37CHL1  H27A 2736   3.927   5.710   7.498  1.0077 -0.2546  0.6891
   37CHL1  H27B 2737   3.837   5.577   7.402 -0.0874  2.2907 -2.0937
   37CHL1  H27C 2738   3.910   5.552   7.569  0.2030  1.5600  0.6016
   38CHL1    C3 2739   2.697   5.404   5.987 -0.2475 -0.2641 -0.6272
   38CHL1    H3 2740   2.588   5.384   5.977 -0.5896 -0.2678  2.1300
   38CHL1    O3 2741   2.742   5.447   5.862  0.3128 -0.0711 -0.0822
   38CHL1   H3' 2742   2.746   5.543   5.870 -3.4050  0.0985  1.3398
   38CHL1    C4 2743   2.702   5.527   6.085 -0.4772  0.6386  0.0831
   38CHL1   H4A 2744   2.811   5.545   6.088 -0.6240  1.4571  1.8867
   38CHL1   H4B 2745   2.645   5.612   6.043 -0.7855  0.9828  1.1534
   38CHL1    C5 2746   2.657   5.499   6.226 -0.2480 -0.1601 -0.4333
   38CHL1    C6 2747   2.545   5.550   6.288 -0.2432 -0.0539 -0.4556
   38CHL1    H6 2748   2.487   5.628   6.237  1.0294  1.3157  0.1421
   38CHL1    C7 2749   2.506   5.498   6.423 -0.1289  0.0539 -0.3594
   38CHL1   H7A 2750   2.481   5.589   6.480 -1.3931 -0.5622  0.0982
   38CHL1   H7B 2751   2.417   5.432   6.416 -1.0409  1.2033  0.2473
   38CHL1    C8 2752   2.620   5.426   6.504  0.1764  0.5887  0.3148
   38CHL1    H8 2753   2.692   5.503   6.540 -0.1318  0.6415  0.8328
   38CHL1   C14 2754   2.559   5.358   6.626  0.7768  0.0676  0.1252
   38CHL1   H14 2755   2.468   5.307   6.589  0.1007  0.8197  0.7080
   38CHL1   C15 2756   2.492   5.453   6.724  0.3838  0.6378 -0.3003
   38CHL1  H15A 2757   2.552   5.544   6.747  1.1196 -0.0393  0.5617
   38CHL1  H15B 2758   2.392   5.488   6.690  0.9290  2.3984 -0.1886
   38CHL1   C16 2759   2.476   5.365   6.853  0.2591 -0.1660  0.6528
   38CHL1  H16A 2760   2.531   5.418   6.934 -0.7335 -0.7787  1.7701
   38CHL1  H16B 2761   2.372   5.362   6.892  0.0497  2.7907  0.5195
   38CHL1   C17 2762   2.544   5.224   6.829 -0.5352 -0.1817  0.8753
   38CHL1   H17 2763   2.473   5.160   6.773  0.2079  2.0262 -3.0029
   38CHL1   C13 2764   2.637   5.263   6.711  0.3134 -0.1360  0.9492
   38CHL1   C18 2765   2.754   5.340   6.772  0.1707  0.3299  0.0587
   38CHL1  H18A 2766   2.729   5.419   6.847  0.9092 -0.0567  0.7272
   38CHL1  H18B 2767   2.823   5.270   6.823 -3.0028 -0.9286  3.0025
   38CHL1  H18C 2768   2.821   5.381   6.693 -0.6290 -0.8198 -1.2499
   38CHL1   C12 2769   2.676   5.158   6.616  0.1230 -0.4902  0.8048
   38CHL1  H12A 2770   2.733   5.073   6.660  0.5910 -0.4936  0.2028
   38CHL1  H12B 2771   2.580   5.111   6.585  0.1100  1.2473 -2.1330
   38CHL1   C11 2772   2.758   5.213   6.497  0.1503 -0.6722  0.1548
   38CHL1  H11A 2773   2.847   5.267   6.535 -0.0290 -1.0707  1.1500
   38CHL1  H11B 2774   2.795   5.128   6.435  0.6672 -0.3281 -0.0231
   38CHL1    C9 2775   2.676   5.321   6.414 -0.4611  0.3529  0.6906
   38CHL1    H9 2776   2.588   5.264   6.378 -0.8226  1.5853 -0.4706
   38CHL1   C10 2777   2.743   5.375   6.283 -0.3217  0.3476  0.3752
   38CHL1   C19 2778   2.887   5.419   6.317 -0.2068 -0.2821 -0.2514
   38CHL1  H19A 2779   2.887   5.476   6.413 -0.0962 -0.9681  0.1684
   38CHL1  H19B 2780   2.944   5.328   6.345  3.2683  1.6253 -0.4890
   38CHL1  H19C 2781   2.937   5.474   6.235 -0.7578  0.0299 -0.3863
   38CHL1    C1 2782   2.741   5.250   6.181 -0.0766 -0.5876 -0.6660
   38CHL1   H1A 2783   2.813   5.178   6.226 -0.6755 -0.9563 -0.2891
   38CHL1   H1B 2784   2.642   5.200   6.177 -0.7558  0.4637  1.5180
   38CHL1    C2 2785   2.779   5.284   6.032  0.2197 -0.3355 -0.2746
   38CHL1   H2A 2786   2.780   5.192   5.971  1.5196 -0.8296  0.4407
   38CHL1   H2B 2787   2.884   5.321   6.039 -0.3116  1.4210 -0.8818
   38CHL1   C20 2788   2.599   5.143   6.949  0.3388 -0.1696  0.8205
   38CHL1   H20 2789   2.698   5.187   6.974  1.5831 -1.4971 -1.4695
   38CHL1   C21 2790   2.596   4.997   6.904 -0.1496  0.8684  0.6432
   38CHL1  H21A 2791   2.641   4.966   6.807  0.1320  0.4425  0.9022
   38CHL1  H21B 2792   2.493   4.956   6.906 -0.4260  1.5403  0.1864
   38CHL1  H21C 2793   2.655   4.935   6.976 -1.3344 -0.9378  0.0993
   38CHL1   C22 2794   2.508   5.145   7.085 -0.3948  0.3017 -0.2491
   38CHL1  H22A 2795   2.495   5.251   7.116 -1.2969  0.3972 -0.9200
   38CHL1  H22B 2796   2.410   5.094   7.075  0.0538 -1.0969  1.8515
   38CHL1   C23 2797   2.572   5.065   7.195 -0.7430 -0.4633 -0.1443
   38CHL1  H23A 2798   2.547   4.960   7.169 -1.3917 -0.0006 -1.4892
   38CHL1  H23B 2799   2.682   5.079   7.189 -0.0351 -4.5798  0.2958
   38CHL1   C24 2800   2.510   5.094   7.330 -0.2132 -0.1899  0.3077
   38CHL1  H24A 2801   2.520   5.200   7.361 -0.2322  0.0046 -0.3339
   38CHL1  H24B 2802   2.401   5.076   7.317 -0.3271  0.5324  0.2294
   38CHL1   C25 2803   2.542   4.986   7.434  0.0400 -0.1066  0.2872
   38CHL1   H25 2804   2.576   4.887   7.396 -1.3309 -0.6566  0.4274
   38CHL1   C26 2805   2.656   5.032   7.525  0.0607 -0.8145 -0.4408
   38CHL1  H26A 2806   2.690   4.951   7.593 -0.1323 -0.4185  0.1371
   38CHL1  H26B 2807   2.739   5.063   7.459  1.8518 -0.3561  1.9103
   38CHL1  H26C 2808   2.624   5.122   7.582  2.1969 -0.5196  0.3835
   38CHL1   C27 2809   2.430   4.961   7.524 -0.7211  0.3898 -0.3985
   38CHL1  H27A 2810   2.336   4.923   7.477 -0.4749 -2.5740  1.2309
   38CHL1  H27B 2811   2.451   4.872   7.587  1.9279  1.9090  1.0440
   38CHL1  H27C 2812   2.406   5.047   7.589  0.4987 -0.0807  0.7124
   39CHL1    C3 2813   2.336   5.277   5.855  0.7641 -0.1441 -0.2495
   39CHL1    H3 2814   2.446   5.286   5.864  0.8151  2.0713 -2.2597
   39CHL1    O3 2815   2.313   5.305   5.715  0.3372 -0.6802  0.5569
   39CHL1   H3' 2816   2.218   5.300   5.715  0.2056  1.1479 -0.7248
   39CHL1    C4 2817   2.301   5.126   5.901 -0.4322  0.0346 -0.7842
   39CHL1   H4A 2818   2.204   5.089   5.862 -0.9248  0.9649 -0.4673
   39CHL1   H4B 2819   2.374   5.062   5.846  1.4988  1.6231 -0.1965
   39CHL1    C5 2820   2.299   5.100   6.049 -0.4345 -0.0464  0.9050
   39CHL1    C6 2821   2.373   5.008   6.109  0.0880  0.0089 -0.1029
   39CHL1    H6 2822   2.425   4.933   6.048 -1.3925  0.5378 -2.1271
   39CHL1    C7 2823   2.366   4.973   6.256  0.0573 -0.1311  0.0445
   39CHL1   H7A 2824   2.368   4.862   6.260  1.6093 -0.2605 -2.2866
   39CHL1   H7B 2825   2.456   5.003   6.314 -0.0965 -3.1676  2.0881
   39CHL1    C8 2826   2.241   5.029   6.318  0.1966 -0.5465  0.1246
   39CHL1    H8 2827   2.148   4.984   6.278 -0.6081  0.3898  0.8982
   39CHL1   C14 2828   2.245   5.011   6.465  0.1909 -0.2931  0.1791
   39CHL1   H14 2829   2.331   5.069   6.504  0.0191  0.7027 -0.8748
   39CHL1   C15 2830   2.261   4.866   6.512 -0.0372  0.2092 -0.0659
   39CHL1  H15A 2831   2.204   4.792   6.451  1.4132 -0.0447 -1.1748
   39CHL1  H15B 2832   2.366   4.830   6.520 -0.2211 -0.2757  0.1808
   39CHL1   C16 2833   2.204   4.867   6.658 -0.3720 -0.2698  0.5227
   39CHL1  H16A 2834   2.124   4.790   6.662 -2.3777  1.4694 -2.0882
   39CHL1  H16B 2835   2.290   4.859   6.727  1.1827 -0.0016 -1.3244
   39CHL1   C17 2836   2.143   5.013   6.677  0.2040 -0.2624  0.1362
   39CHL1   H17 2837   2.231   5.072   6.712 -0.9916  3.5600 -2.5975
   39CHL1   C13 2838   2.122   5.075   6.538 -0.3958  0.3124  0.2937
   39CHL1   C18 2839   1.987   5.009   6.488  0.4791  0.4947 -0.2007
   39CHL1  H18A 2840   1.989   4.909   6.536  1.4469  1.0262  0.9154
   39CHL1  H18B 2841   1.903   5.061   6.539 -1.2172 -0.4644 -1.8977
   39CHL1  H18C 2842   1.966   5.006   6.379  0.7798  3.9600 -0.4573
   39CHL1   C12 2843   2.134   5.226   6.517 -0.2721  0.3073 -0.3010
   39CHL1  H12A 2844   2.044   5.273   6.565 -1.6116 -1.0577 -1.3783
   39CHL1  H12B 2845   2.233   5.251   6.561 -0.1196  0.0598 -0.5049
   39CHL1   C11 2846   2.135   5.264   6.371 -0.4702  0.4097  0.3864
   39CHL1  H11A 2847   2.033   5.245   6.333  0.5699 -1.0766 -1.8647
   39CHL1  H11B 2848   2.148   5.374   6.356 -1.4546  0.7752  1.9332
   39CHL1    C9 2849   2.241   5.183   6.285 -0.3300 -0.0146 -0.0454
   39CHL1    H9 2850   2.343   5.217   6.312  0.0376 -1.5453  0.6465
   39CHL1   C10 2851   2.223   5.206   6.130  0.5089  0.8852 -0.0204
   39CHL1   C19 2852   2.071   5.194   6.095 -0.3732  0.6582 -0.2609
   39CHL1  H19A 2853   2.036   5.090   6.116  0.9677  0.0508 -0.8798
   39CHL1  H19B 2854   1.999   5.265   6.140 -0.6696  0.4726 -0.4395
   39CHL1  H19C 2855   2.050   5.202   5.987 -2.2705 -0.4255 -0.0103
   39CHL1    C1 2856   2.276   5.347   6.094  0.1390 -0.1666  0.1483
   39CHL1   H1A 2857   2.223   5.426   6.151 -1.2965 -2.5673  2.3635
   39CHL1   H1B 2858   2.382   5.357   6.125 -0.3566  0.2925  1.7932
   39CHL1    C2 2859   2.259   5.376   5.945  0.7636  1.1057  0.3425
   39CHL1   H2A 2860   2.288   5.478   5.912  3.0703  0.2227 -0.5591
   39CHL1   H2B 2861   2.153   5.377   5.910  0.4479  2.6627  1.2120
   39CHL1   C20 2862   2.039   5.016   6.801 -0.0545 -0.0939 -0.3844
   39CHL1   H20 2863   1.956   4.945   6.780  1.1534 -1.7074  0.0837
   39CHL1   C21 2864   1.972   5.153   6.795  0.7562 -0.3919 -0.4538
   39CHL1  H21A 2865   2.050   5.230   6.814  2.1401 -1.9097  0.2458
   39CHL1  H21B 2866   1.894   5.154   6.873  3.0292 -3.1077  2.1038
   39CHL1  H21C 2867   1.930   5.188   6.698  1.2564  1.2675 -0.0969
   39CHL1   C22 2868   2.098   4.999   6.938  0.7081  0.0950 -0.5637
   39CHL1  H22A 2869   2.192   5.058   6.944  0.4530  0.5617 -1.1541
   39CHL1  H22B 2870   2.034   5.052   7.012  0.3983  1.6305 -1.8931
   39CHL1   C23 2871   2.132   4.853   6.980  0.0313 -0.0391 -0.8134
   39CHL1  H23A 2872   2.047   4.784   6.958 -1.4508  0.4773  2.6412
   39CHL1  H23B 2873   2.225   4.823   6.927 -1.4319 -3.3437 -1.7968
   39CHL1   C24 2874   2.153   4.846   7.133  0.7802 -0.6476  0.2880
   39CHL1  H24A 2875   2.233   4.916   7.166 -1.1023  1.3416  0.9362
   39CHL1  H24B 2876   2.059   4.872   7.186 -0.6231  0.9624 -2.6853
   39CHL1   C25 2877   2.197   4.709   7.189 -0.3844  0.1764  0.0716
   39CHL1   H25 2878   2.291   4.679   7.138  1.5427 -0.0805  3.4926
   39CHL1   C26 2879   2.236   4.714   7.341 -0.3064  0.1073 -0.0287
   39CHL1  H26A 2880   2.326   4.779   7.335  1.9256 -2.7625  0.6010
   39CHL1  H26B 2881   2.150   4.756   7.397 -0.9755 -0.7921 -0.3608
   39CHL1  H26C 2882   2.265   4.612   7.372 -0.5898  0.4255  1.3373
   39CHL1   C27 2883   2.082   4.609   7.167 -0.5606  0.3540 -0.2242
   39CHL1  H27A 2884   2.085   4.516   7.228 -0.4756 -0.6629 -1.7283
   39CHL1  H27B 2885   1.984   4.659   7.183 -1.4006 -1.0790 -0.7484
   39CHL1  H27C 2886   2.080   4.572   7.062  0.3166 -0.4206  0.0236
   40CHL1    C3 2887   5.522   3.497   5.867  0.3932 -0.2264 -0.0204
   40CHL1    H3 2888   5.561   3.405   5.819 -2.5940 -1.4887 -0.2146
   40CHL1    O3 2889   5.440   3.565   5.773  0.5212 -0.2375  0.3033
   40CHL1   H3' 2890   5.488   3.640   5.737 -0.9075  0.3441 -0.4514
   40CHL1    C4 2891   5.429   3.451   5.987 -0.2898 -0.6338  0.7131
   40CHL1   H4A 2892   5.367   3.534   6.026  1.1335 -0.0728  1.8708
   40CHL1   H4B 2893   5.361   3.379   5.936 -0.7596 -2.1956  3.3485
   40CHL1    C5 2894   5.508   3.381   6.098 -0.0302  0.1407  0.3301
   40CHL1    C6 2895   5.476   3.261   6.146  0.3386 -0.7832  0.3246
   40CHL1    H6 2896   5.382   3.219   6.107 -0.1410 -2.4023  2.9385
   40CHL1    C7 2897   5.539   3.189   6.262  0.3208 -0.3279  0.4500
   40CHL1   H7A 2898   5.461   3.162   6.336  0.2137 -0.2384  0.3697
   40CHL1   H7B 2899   5.594   3.097   6.234 -0.4861 -1.8067  3.3057
   40CHL1    C8 2900   5.635   3.291   6.337  0.8296 -0.1175 -0.3596
   40CHL1    H8 2901   5.568   3.359   6.395  1.5364  0.0587  0.2548
   40CHL1   C14 2902   5.727   3.215   6.431  0.2791  0.2880  0.0911
   40CHL1   H14 2903   5.783   3.158   6.354 -0.1020  1.5519 -1.1716
   40CHL1   C15 2904   5.664   3.118   6.538 -0.5413  0.0567  0.3121
   40CHL1  H15A 2905   5.589   3.174   6.598 -3.2882 -2.4950 -0.4756
   40CHL1  H15B 2906   5.628   3.024   6.492 -1.3837  0.2199  0.6234
   40CHL1   C16 2907   5.786   3.087   6.625 -0.2679 -0.0917  0.9383
   40CHL1  H16A 2908   5.759   3.102   6.731 -1.4548  1.1234  0.4888
   40CHL1  H16B 2909   5.823   2.983   6.607 -0.0069  0.1928 -0.2953
   40CHL1   C17 2910   5.897   3.191   6.591  0.3832 -0.6628 -0.0674
   40CHL1   H17 2911   5.963   3.141   6.516  2.0189  0.6530  0.4287
   40CHL1   C13 2912   5.825   3.302   6.507 -0.4321  0.1962  0.7386
   40CHL1   C18 2913   5.754   3.398   6.608 -1.2918  0.1435 -0.6641
   40CHL1  H18A 2914   5.826   3.465   6.659  0.8848 -1.7275 -1.1528
   40CHL1  H18B 2915   5.666   3.452   6.566  0.5774  3.5964 -0.4519
   40CHL1  H18C 2916   5.715   3.332   6.689 -0.9758  0.8067  0.0415
   40CHL1   C12 2917   5.916   3.385   6.414  1.0099 -0.0613  0.4408
   40CHL1  H12A 2918   5.976   3.461   6.469 -0.7836  0.8990  1.1505
   40CHL1  H12B 2919   5.976   3.312   6.355  1.3685 -0.5910  1.4308
   40CHL1   C11 2920   5.821   3.462   6.311 -0.4936 -0.3322 -0.2441
   40CHL1  H11A 2921   5.777   3.543   6.373 -2.4517 -1.1370 -0.4971
   40CHL1  H11B 2922   5.881   3.504   6.228  0.7367 -1.0834  0.2434
   40CHL1    C9 2923   5.713   3.380   6.244  0.8385  0.2172 -0.2257
   40CHL1    H9 2924   5.770   3.307   6.182  1.6192  0.8546 -0.2699
   40CHL1   C10 2925   5.620   3.466   6.149 -0.2002  0.1280  0.1938
   40CHL1   C19 2926   5.563   3.592   6.220  0.3715  0.2503 -0.0635
   40CHL1  H19A 2927   5.502   3.566   6.309 -1.4130 -0.8717 -1.5336
   40CHL1  H19B 2928   5.652   3.653   6.246  0.6399  0.5118 -1.5380
   40CHL1  H19C 2929   5.497   3.662   6.164  0.4738  0.7456  0.4244
   40CHL1    C1 2930   5.706   3.521   6.031 -0.8770 -0.1469  0.0691
   40CHL1   H1A 2931   5.778   3.592   6.076 -0.9644 -2.1154  3.7454
   40CHL1   H1B 2932   5.774   3.447   5.984  0.9762  2.3806 -1.4063
   40CHL1    C2 2933   5.623   3.590   5.923  0.2452  0.3640  0.6257
   40CHL1   H2A 2934   5.690   3.623   5.842  1.4697 -1.2547  0.9320
   40CHL1   H2B 2935   5.586   3.682   5.974 -2.0604 -0.7163  1.0304
   40CHL1   C20 2936   5.982   3.233   6.715  0.0360  0.3272  0.2081
   40CHL1   H20 2937   5.917   3.293   6.783  1.2976  0.0392  1.7340
   40CHL1   C21 2938   6.094   3.331   6.681  0.6379  0.5484 -0.3819
   40CHL1  H21A 2939   6.048   3.423   6.639  1.1470  0.4459 -1.1855
   40CHL1  H21B 2940   6.164   3.285   6.607  0.5997  0.7591 -0.5516
   40CHL1  H21C 2941   6.145   3.358   6.776 -1.3637  1.2622  0.5405
   40CHL1   C22 2942   6.014   3.098   6.792 -0.2797 -0.6624 -0.5567
   40CHL1  H22A 2943   5.927   3.071   6.856 -0.4074 -0.7545 -0.7685
   40CHL1  H22B 2944   6.031   3.025   6.710  1.5640 -0.7987 -0.0931
   40CHL1   C23 2945   6.146   3.085   6.875 -0.5555  0.2652 -0.4670
   40CHL1  H23A 2946   6.148   2.981   6.912 -2.9274 -0.4089 -2.0354
   40CHL1  H23B 2947   6.231   3.108   6.806 -1.7619  1.0022 -1.7648
   40CHL1   C24 2948   6.136   3.171   7.003  0.3201  0.0961  0.0355
   40CHL1  H24A 2949   6.127   3.277   6.973  0.5540 -0.3285 -1.6253
   40CHL1  H24B 2950   6.047   3.144   7.064  2.4492  0.0047  3.3411
   40CHL1   C25 2951   6.261   3.159   7.099  0.0025 -0.2346  0.3536
   40CHL1   H25 2952   6.288   3.051   7.103  0.2264 -0.2941 -1.4918
   40CHL1   C26 2953   6.383   3.224   7.033 -0.1922 -0.5965 -0.7824
   40CHL1  H26A 2954   6.465   3.230   7.108 -0.9969 -0.3991  0.1046
   40CHL1  H26B 2955   6.423   3.166   6.946 -0.7840 -0.9191 -0.8412
   40CHL1  H26C 2956   6.363   3.329   7.005 -1.9433 -0.6003  0.3335
   40CHL1   C27 2957   6.222   3.210   7.234 -0.4997 -0.5689  0.6117
   40CHL1  H27A 2958   6.299   3.200   7.313 -0.8235 -1.5020  0.8246
   40CHL1  H27B 2959   6.191   3.315   7.221 -0.1979 -0.1776  2.6318
   40CHL1  H27C 2960   6.122   3.170   7.264 -0.5215 -1.0675 -0.1003
   41CHL1    C3 2961   5.954   3.992   5.938 -0.1167 -0.6712  0.4358
   41CHL1    H3 2962   6.061   4.021   5.951 -0.4689  2.5059 -2.2939
   41CHL1    O3 2963   5.941   3.973   5.800 -0.3970 -0.2020  0.2995
   41CHL1   H3' 2964   5.847   3.985   5.784 -0.3599  1.9230  1.3258
   41CHL1    C4 2965   5.914   3.872   6.013 -0.4043  0.5592  0.3085
   41CHL1   H4A 2966   5.810   3.838   5.991  0.0046  0.0166 -0.8517
   41CHL1   H4B 2967   5.979   3.791   5.974 -1.0009 -1.0631  2.4644
   41CHL1    C5 2968   5.920   3.892   6.161 -0.0990  0.1334 -0.0515
   41CHL1    C6 2969   5.991   3.810   6.233  0.0533  0.0086  0.2803
   41CHL1    H6 2970   6.041   3.725   6.184  2.0335 -0.5610  2.9866
   41CHL1    C7 2971   6.011   3.825   6.386  0.2981  0.6644  0.1524
   41CHL1   H7A 2972   6.010   3.722   6.426  2.1172 -0.0830 -1.5301
   41CHL1   H7B 2973   6.112   3.866   6.408  0.0424  0.7253  1.2699
   41CHL1    C8 2974   5.905   3.918   6.449  0.3873  0.4698  0.3393
   41CHL1    H8 2975   5.812   3.857   6.442  0.7302 -0.1583  1.1153
   41CHL1   C14 2976   5.938   3.954   6.589 -0.1839  0.5227 -0.4303
   41CHL1   H14 2977   6.042   3.993   6.585 -0.1105  0.3405 -0.3021
   41CHL1   C15 2978   5.959   3.833   6.690  0.5186 -0.6666  0.4604
   41CHL1  H15A 2979   5.887   3.749   6.678  0.2873 -0.3547 -0.4307
   41CHL1  H15B 2980   6.062   3.800   6.664  0.6852  0.7218 -0.8099
   41CHL1   C16 2981   5.937   3.896   6.828 -0.6818  0.6496  0.0065
   41CHL1  H16A 2982   5.857   3.854   6.893  1.2320 -1.1257  1.4011
   41CHL1  H16B 2983   6.038   3.880   6.872  0.9453 -2.2427 -4.0668
   41CHL1   C17 2984   5.915   4.048   6.805 -0.7364 -0.2002  0.3651
   41CHL1   H17 2985   6.019   4.083   6.793 -0.7626  0.1862  1.1603
   41CHL1   C13 2986   5.852   4.049   6.663 -0.1008 -0.8097 -0.8394
   41CHL1   C18 2987   5.698   3.997   6.683 -0.3343 -0.1765 -0.0121
   41CHL1  H18A 2988   5.636   4.079   6.725 -0.5560 -0.4205  0.1498
   41CHL1  H18B 2989   5.661   3.963   6.584  2.0170  0.0672 -1.0394
   41CHL1  H18C 2990   5.701   3.908   6.750  0.7173 -1.1398 -1.2743
   41CHL1   C12 2991   5.847   4.181   6.583  0.2104 -0.0511 -0.2742
   41CHL1  H12A 2992   5.781   4.260   6.624 -3.4540 -2.4101 -1.1686
   41CHL1  H12B 2993   5.945   4.235   6.586  0.9350 -1.3482  0.2003
   41CHL1   C11 2994   5.810   4.159   6.442  0.5120  0.3306 -0.0447
   41CHL1  H11A 2995   5.707   4.119   6.450  1.2046 -1.3540  0.9632
   41CHL1  H11B 2996   5.807   4.251   6.379 -0.4363  0.6740  0.4779
   41CHL1    C9 2997   5.892   4.049   6.368 -0.1032 -0.3068  0.3734
   41CHL1    H9 2998   5.996   4.088   6.362 -0.0532 -0.6577 -2.2069
   41CHL1   C10 2999   5.853   4.029   6.210 -0.1119  0.2654 -0.6647
   41CHL1   C19 3000   5.698   3.991   6.207  0.0333 -0.3791  0.0297
   41CHL1  H19A 3001   5.676   3.962   6.102  2.3564 -1.7244 -0.1571
   41CHL1  H19B 3002   5.686   3.910   6.282 -0.7557  2.0720  2.7576
   41CHL1  H19C 3003   5.650   4.085   6.244  2.9477  1.1356  0.2729
   41CHL1    C1 3004   5.887   4.149   6.127  0.0103 -0.3574 -0.5098
   41CHL1   H1A 3005   5.813   4.231   6.144 -0.2841 -0.3632 -1.6543
   41CHL1   H1B 3006   5.988   4.189   6.150 -0.3570 -0.0906  0.7078
   41CHL1    C2 3007   5.884   4.120   5.974  0.7680  0.0410 -0.0519
   41CHL1   H2A 3008   5.932   4.206   5.923  1.6005  0.0018  0.6248
   41CHL1   H2B 3009   5.783   4.110   5.930  0.9088 -0.1031 -0.3470
   41CHL1   C20 3010   5.852   4.121   6.934 -0.3242  0.8666  0.7686
   41CHL1   H20 3011   5.760   4.065   6.963 -0.7413  1.4125  0.5119
   41CHL1   C21 3012   5.802   4.258   6.889 -0.4831 -0.0800 -0.1989
   41CHL1  H21A 3013   5.702   4.243   6.841 -0.3711  0.4920 -0.6230
   41CHL1  H21B 3014   5.866   4.304   6.810  0.6897 -1.1627  0.1121
   41CHL1  H21C 3015   5.788   4.327   6.974 -0.6623 -1.5892  1.0320
   41CHL1   C22 3016   5.940   4.105   7.057 -0.1470  0.3288 -0.0753
   41CHL1  H22A 3017   5.965   3.997   7.058 -0.1419  0.2987  1.9815
   41CHL1  H22B 3018   6.036   4.160   7.044  0.3327 -0.3439  0.5166
   41CHL1   C23 3019   5.883   4.173   7.183  0.1470  0.6266 -0.4577
   41CHL1  H23A 3020   5.851   4.276   7.157  1.4369  0.5361 -2.7315
   41CHL1  H23B 3021   5.785   4.125   7.201  0.4431 -0.0553 -0.6121
   41CHL1   C24 3022   5.981   4.173   7.310  0.6075 -0.6218  0.6652
   41CHL1  H24A 3023   6.069   4.239   7.295 -0.1828  0.2210 -0.3984
   41CHL1  H24B 3024   5.921   4.228   7.385  0.6409  1.3072 -0.6698
   41CHL1   C25 3025   6.017   4.034   7.374  0.6920 -0.4029  0.0707
   41CHL1   H25 3026   6.100   3.988   7.316  0.8572 -1.2289  0.9412
   41CHL1   C26 3027   6.070   4.053   7.513  0.1631 -0.0654  0.2099
   41CHL1  H26A 3028   6.167   4.107   7.505 -0.3153  0.6344 -1.2466
   41CHL1  H26B 3029   5.997   4.110   7.573 -0.2137 -0.5276  0.1902
   41CHL1  H26C 3030   6.089   3.954   7.560  0.3324 -0.5122 -0.7742
   41CHL1   C27 3031   5.895   3.941   7.391 -0.5789 -0.2201  0.5570
   41CHL1  H27A 3032   5.877   3.871   7.307  1.2481  0.5182 -0.5327
   41CHL1  H27B 3033   5.906   3.881   7.484 -2.4407 -0.9737  0.3197
   41CHL1  H27C 3034   5.810   4.012   7.403  3.0518  4.3541  2.7074
   42CHL1    C3 3035   6.241   2.211   6.055 -0.2033 -0.3562  0.2336
   42CHL1    H3 3036   6.313   2.142   6.103  0.0541  1.1417  2.0986
   42CHL1    O3 3037   6.243   2.192   5.921  0.5598 -0.0289  0.4877
   42CHL1   H3' 3038   6.165   2.239   5.892 -0.2181 -1.4855  0.1090
   42CHL1    C4 3039   6.104   2.182   6.112  0.1625 -0.1797  0.0792
   42CHL1   H4A 3040   6.031   2.239   6.051  0.0872 -0.8726 -0.4936
   42CHL1   H4B 3041   6.081   2.075   6.092 -0.5283 -0.3238  1.4986
   42CHL1    C5 3042   6.101   2.215   6.262 -0.7482 -0.7536 -0.2852
   42CHL1    C6 3043   6.070   2.127   6.359  0.1604 -0.2482  0.5856
   42CHL1    H6 3044   6.044   2.026   6.325 -0.8502  0.3572 -0.4983
   42CHL1    C7 3045   6.065   2.153   6.505 -0.0550 -0.5460  0.0217
   42CHL1   H7A 3046   5.974   2.115   6.556 -1.1119  0.8641 -0.7300
   42CHL1   H7B 3047   6.151   2.104   6.554 -2.6060 -2.0472  3.4365
   42CHL1    C8 3048   6.068   2.306   6.537  0.7807  0.1086 -0.2496
   42CHL1    H8 3049   5.971   2.350   6.506  0.1901 -0.4986  0.6802
   42CHL1   C14 3050   6.091   2.330   6.676  0.1833  0.2994 -0.1193
   42CHL1   H14 3051   6.195   2.295   6.695  1.5198  0.7546 -5.0747
   42CHL1   C15 3052   5.995   2.263   6.775  0.3557 -0.2811  0.4839
   42CHL1  H15A 3053   5.890   2.296   6.756 -0.3033 -3.0156 -1.2575
   42CHL1  H15B 3054   5.978   2.153   6.769  0.5536 -0.2385 -1.9431
   42CHL1   C16 3055   6.044   2.317   6.911  0.1225  0.5436 -0.2374
   42CHL1  H16A 3056   5.962   2.318   6.986 -1.5301  0.2515 -1.9539
   42CHL1  H16B 3057   6.131   2.260   6.950 -0.1257  0.2359 -0.1323
   42CHL1   C17 3058   6.111   2.454   6.885  0.0810 -0.7953  0.1900
   42CHL1   H17 3059   6.220   2.436   6.897  0.0386 -1.4443 -0.2925
   42CHL1   C13 3060   6.098   2.470   6.731  0.2811  0.7579 -0.1355
   42CHL1   C18 3061   5.966   2.552   6.699  0.8579  0.4485  0.8860
   42CHL1  H18A 3062   5.893   2.530   6.780 -0.2596  2.3320  0.4577
   42CHL1  H18B 3063   5.995   2.659   6.704  1.2766  0.2978  1.8740
   42CHL1  H18C 3064   5.936   2.528   6.594  2.1522 -1.5574  0.9158
   42CHL1   C12 3065   6.217   2.536   6.656 -0.1521  0.0794 -0.1162
   42CHL1  H12A 3066   6.219   2.646   6.676 -0.5435 -0.1014  0.9832
   42CHL1  H12B 3067   6.315   2.498   6.690  0.7063  3.5418  1.7253
   42CHL1   C11 3068   6.211   2.520   6.499  0.4625 -0.0468  0.3112
   42CHL1  H11A 3069   6.126   2.582   6.463  0.2620 -1.5354 -2.0142
   42CHL1  H11B 3070   6.303   2.560   6.452  0.2403  1.3057  0.9820
   42CHL1    C9 3071   6.174   2.376   6.450  0.2391  0.2987 -0.3169
   42CHL1    H9 3072   6.269   2.320   6.462 -0.1933 -1.0091 -2.5831
   42CHL1   C10 3073   6.147   2.361   6.302 -0.2022 -0.0924  0.0466
   42CHL1   C19 3074   6.040   2.459   6.247 -0.0916 -0.2449  0.2402
   42CHL1  H19A 3075   5.952   2.459   6.315 -0.5100 -2.1308 -0.2608
   42CHL1  H19B 3076   6.089   2.559   6.248  0.0409 -0.3033 -0.2298
   42CHL1  H19C 3077   6.012   2.454   6.139 -0.2615 -1.4964  0.3298
   42CHL1    C1 3078   6.281   2.388   6.226 -0.4061 -0.4655  0.2114
   42CHL1   H1A 3079   6.315   2.492   6.246 -0.6240  0.1689 -2.3692
   42CHL1   H1B 3080   6.363   2.333   6.277  2.0789  0.8695 -2.1016
   42CHL1    C2 3081   6.283   2.354   6.074 -0.0504  0.2531  0.2385
   42CHL1   H2A 3082   6.390   2.368   6.046  0.8398 -0.8454  2.8037
   42CHL1   H2B 3083   6.223   2.422   6.010 -0.5843 -1.5780 -1.3135
   42CHL1   C20 3084   6.064   2.569   6.973 -0.1675 -0.3045 -0.2815
   42CHL1   H20 3085   5.955   2.587   6.967 -0.2731 -0.7640  0.2120
   42CHL1   C21 3086   6.146   2.701   6.952  0.0663  0.2128  0.1515
   42CHL1  H21A 3087   6.100   2.791   6.999  1.3327  1.1024 -0.2411
   42CHL1  H21B 3088   6.147   2.726   6.844  0.8553 -0.8625 -0.0973
   42CHL1  H21C 3089   6.248   2.704   6.996 -0.4871  1.1931  1.4267
   42CHL1   C22 3090   6.086   2.537   7.127 -0.0654 -0.7515 -0.4135
   42CHL1  H22A 3091   6.045   2.441   7.165 -0.5361  0.4630  2.3481
   42CHL1  H22B 3092   6.196   2.523   7.137  0.1993  0.9215 -0.6171
   42CHL1   C23 3093   6.033   2.648   7.214 -0.2527  0.0620  0.2906
   42CHL1  H23A 3094   6.111   2.726   7.224  1.4664 -1.4723 -0.6196
   42CHL1  H23B 3095   5.938   2.688   7.171 -1.0640 -1.2429  0.8061
   42CHL1   C24 3096   6.009   2.599   7.356  0.4655 -0.1419 -0.2433
   42CHL1  H24A 3097   5.945   2.509   7.355 -3.6543  2.5159  0.4013
   42CHL1  H24B 3098   6.108   2.569   7.397  0.0343 -0.9875  0.2128
   42CHL1   C25 3099   5.936   2.696   7.452 -0.4651  0.1472 -0.2962
   42CHL1   H25 3100   5.987   2.792   7.429 -2.3324  1.6738  1.5719
   42CHL1   C26 3101   5.785   2.704   7.432 -0.2601  0.1691  0.1130
   42CHL1  H26A 3102   5.758   2.728   7.327  0.2231  2.2074  0.4115
   42CHL1  H26B 3103   5.724   2.620   7.473 -1.1225 -1.0451 -3.3454
   42CHL1  H26C 3104   5.766   2.800   7.485  1.3809  1.0020 -0.7142
   42CHL1   C27 3105   5.967   2.664   7.601 -0.4896 -0.7219  0.2703
   42CHL1  H27A 3106   6.076   2.655   7.620 -0.8091 -0.1221  2.7412
   42CHL1  H27B 3107   5.921   2.569   7.638 -0.8357  0.5376  3.3854
   42CHL1  H27C 3108   5.935   2.755   7.656 -0.7411 -0.0707 -0.9351
   43CHL1    C3 3109   5.488   5.270   5.997  0.2481 -0.4509  0.4723
   43CHL1    H3 3110   5.597   5.257   6.013  0.5305 -1.2004 -1.6791
   43CHL1    O3 3111   5.468   5.309   5.863 -0.3845 -0.0104 -0.2339
   43CHL1   H3' 3112   5.456   5.230   5.810 -2.4005 -0.4632  0.7967
   43CHL1    C4 3113   5.408   5.138   6.034 -0.1501 -0.1375  0.2321
   43CHL1   H4A 3114   5.310   5.163   5.987  0.1334  0.0104 -0.2981
   43CHL1   H4B 3115   5.455   5.063   5.967 -0.5623 -0.5993  0.4560
   43CHL1    C5 3116   5.399   5.106   6.179  0.2696  0.2383 -0.3754
   43CHL1    C6 3117   5.431   4.989   6.228 -0.3122 -0.8157  0.5200
   43CHL1    H6 3118   5.458   4.912   6.154 -0.9505 -1.0644  0.5359
   43CHL1    C7 3119   5.414   4.950   6.368 -0.4115  0.4744  0.3575
   43CHL1   H7A 3120   5.363   4.852   6.367 -1.1996  0.7036 -4.1215
   43CHL1   H7B 3121   5.517   4.937   6.409 -0.6601  1.0621  1.1983
   43CHL1    C8 3122   5.335   5.047   6.441  1.1339 -0.5961 -0.6813
   43CHL1    H8 3123   5.229   5.029   6.410  0.3679 -0.8575  1.8486
   43CHL1   C14 3124   5.353   5.017   6.594 -0.5947 -0.6428 -0.2573
   43CHL1   H14 3125   5.461   5.029   6.615 -0.8639  0.5160  0.5657
   43CHL1   C15 3126   5.318   4.879   6.649  0.5630 -0.3641  0.1742
   43CHL1  H15A 3127   5.220   4.844   6.611 -0.0678  0.8355  0.6477
   43CHL1  H15B 3128   5.388   4.793   6.638  1.0469  0.1029 -0.4661
   43CHL1   C16 3129   5.300   4.907   6.798 -0.2008 -0.1646  0.1676
   43CHL1  H16A 3130   5.204   4.856   6.821 -0.5025 -0.3703 -1.4255
   43CHL1  H16B 3131   5.380   4.859   6.859  1.9817  0.1928 -2.2308
   43CHL1   C17 3132   5.315   5.059   6.820  0.3355  0.3298  0.3193
   43CHL1   H17 3133   5.423   5.077   6.841  0.3399  0.1477  0.4519
   43CHL1   C13 3134   5.283   5.123   6.682  0.1026  0.4566 -0.3247
   43CHL1   C18 3135   5.127   5.113   6.667  0.9792 -0.1354  0.3221
   43CHL1  H18A 3136   5.095   5.149   6.567  0.9934  0.5259  0.5507
   43CHL1  H18B 3137   5.089   5.011   6.689 -0.7860  0.0421 -1.6375
   43CHL1  H18C 3138   5.078   5.171   6.749  1.3312 -0.2138  0.5914
   43CHL1   C12 3139   5.336   5.268   6.646 -0.0087 -0.1871  0.0927
   43CHL1  H12A 3140   5.274   5.348   6.693 -1.9439 -1.1857 -0.6242
   43CHL1  H12B 3141   5.443   5.271   6.674 -0.6143 -0.9322  2.8235
   43CHL1   C11 3142   5.306   5.304   6.500  0.6857  0.7751  0.8180
   43CHL1  H11A 3143   5.195   5.311   6.491  0.2458 -4.1703 -0.5381
   43CHL1  H11B 3144   5.348   5.401   6.467  2.0527 -0.6950 -2.1299
   43CHL1    C9 3145   5.368   5.196   6.415  0.4001 -0.2694  0.2928
   43CHL1    H9 3146   5.474   5.201   6.448 -0.0301 -1.5793  2.0332
   43CHL1   C10 3147   5.349   5.224   6.270  0.0099 -0.3834 -0.1321
   43CHL1   C19 3148   5.200   5.247   6.240 -0.3872  0.1650 -0.4603
   43CHL1  H19A 3149   5.174   5.254   6.132  1.9903  0.0331 -1.0920
   43CHL1  H19B 3150   5.141   5.164   6.286  1.6955 -0.2686  1.6350
   43CHL1  H19C 3151   5.163   5.340   6.288 -0.7271 -1.1655  2.0250
   43CHL1    C1 3152   5.435   5.348   6.231 -0.8899  0.5369  0.2423
   43CHL1   H1A 3153   5.406   5.432   6.299  0.8286 -0.6678  2.6321
   43CHL1   H1B 3154   5.541   5.327   6.260 -1.0876 -0.7157  0.1094
   43CHL1    C2 3155   5.439   5.387   6.081  0.2007  0.0120  0.2215
   43CHL1   H2A 3156   5.502   5.477   6.064 -1.0585  1.2907  2.0023
   43CHL1   H2B 3157   5.335   5.408   6.047  0.6690  1.4694 -0.3773
   43CHL1   C20 3158   5.241   5.117   6.941 -0.9351  0.4719 -0.8617
   43CHL1   H20 3159   5.131   5.114   6.926 -0.9446 -0.3148 -0.6877
   43CHL1   C21 3160   5.297   5.257   6.980  0.8484  0.0423  0.1194
   43CHL1  H21A 3161   5.250   5.328   6.908 -2.5459  0.0903  2.1881
   43CHL1  H21B 3162   5.408   5.252   6.973  1.0426  0.5994  2.2316
   43CHL1  H21C 3163   5.268   5.281   7.084 -1.0899 -0.1870 -0.3420
   43CHL1   C22 3164   5.258   5.014   7.062  0.2906  0.2853  0.0281
   43CHL1  H22A 3165   5.225   4.909   7.049  1.8468 -0.6061  2.6724
   43CHL1  H22B 3166   5.364   5.004   7.093  0.6411 -0.6333 -1.3613
   43CHL1   C23 3167   5.180   5.056   7.189 -0.1270 -1.0108 -0.4529
   43CHL1  H23A 3168   5.215   5.149   7.239 -0.1372 -2.2326  1.9664
   43CHL1  H23B 3169   5.073   5.080   7.172  0.0224  0.5432  0.5845
   43CHL1   C24 3170   5.185   4.951   7.304  0.0224  0.1492  0.1733
   43CHL1  H24A 3171   5.128   4.860   7.275 -1.5175  1.7651 -2.3050
   43CHL1  H24B 3172   5.292   4.922   7.309  0.4010  1.1696 -1.3962
   43CHL1   C25 3173   5.137   4.998   7.441 -0.7594 -0.2406  0.4805
   43CHL1   H25 3174   5.193   5.089   7.472  1.1296 -1.4004  0.6277
   43CHL1   C26 3175   4.986   5.029   7.448  0.2825  0.3607  0.0474
   43CHL1  H26A 3176   4.947   5.101   7.374  0.4480  0.8677  0.4486
   43CHL1  H26B 3177   4.923   4.938   7.459 -1.4012  1.2700 -1.5050
   43CHL1  H26C 3178   4.976   5.076   7.548 -1.7000 -0.8880  0.4791
   43CHL1   C27 3179   5.178   4.889   7.543  0.1164 -0.0196 -0.6093
   43CHL1  H27A 3180   5.282   4.854   7.530  0.2810  0.4651 -0.6223
   43CHL1  H27B 3181   5.165   4.921   7.649  2.1527 -1.2316  0.0676
   43CHL1  H27C 3182   5.115   4.798   7.529  0.1116  0.0336 -0.9313
   44CHL1    C3 3183   6.458   4.256   6.092 -0.2144  0.4705  0.2131
   44CHL1    H3 3184   6.411   4.353   6.118 -0.1195  0.4739  0.3749
   44CHL1    O3 3185   6.479   4.256   5.951  0.4681 -0.0023 -0.0329
   44CHL1   H3' 3186   6.543   4.185   5.937  1.7800  1.1873 -0.3220
   44CHL1    C4 3187   6.590   4.251   6.170 -0.4422  1.0450 -0.1965
   44CHL1   H4A 3188   6.648   4.165   6.130 -2.5672  0.0473 -1.3125
   44CHL1   H4B 3189   6.656   4.336   6.143  2.0382 -0.2430  1.4325
   44CHL1    C5 3190   6.574   4.250   6.320 -0.1865 -0.7888 -0.1012
   44CHL1    C6 3191   6.624   4.340   6.401  0.0724 -0.2092 -0.2597
   44CHL1    H6 3192   6.691   4.413   6.352  1.9499 -0.7003  1.4599
   44CHL1    C7 3193   6.603   4.342   6.548  0.6352  0.3503 -0.1545
   44CHL1   H7A 3194   6.696   4.362   6.605 -0.6755 -0.8154  2.5604
   44CHL1   H7B 3195   6.528   4.418   6.578 -1.1373 -1.7448  0.9855
   44CHL1    C8 3196   6.561   4.203   6.608 -0.0083 -0.6456  0.0993
   44CHL1    H8 3197   6.657   4.146   6.603  0.9200  0.7790  1.1368
   44CHL1   C14 3198   6.521   4.210   6.750  0.0925  0.0758 -0.3232
   44CHL1   H14 3199   6.435   4.281   6.752  0.6830  0.8040 -0.2986
   44CHL1   C15 3200   6.630   4.286   6.836 -0.1538  0.2520 -0.7153
   44CHL1  H15A 3201   6.731   4.243   6.818  1.1277  1.5130  2.6595
   44CHL1  H15B 3202   6.638   4.395   6.816  2.9860  0.1787 -0.2661
   44CHL1   C16 3203   6.575   4.252   6.974  0.0900  0.4529 -0.5246
   44CHL1  H16A 3204   6.662   4.219   7.035  0.1144  0.2704 -0.6545
   44CHL1  H16B 3205   6.515   4.328   7.027 -0.9608  1.0676 -2.5017
   44CHL1   C17 3206   6.472   4.133   6.964  0.3290  0.2054 -0.0569
   44CHL1   H17 3207   6.366   4.166   6.967 -0.3933 -1.6793 -2.1074
   44CHL1   C13 3208   6.481   4.083   6.820 -0.0411 -0.7885  0.4817
   44CHL1   C18 3209   6.606   3.983   6.815  0.0924  0.5431  0.1430
   44CHL1  H18A 3210   6.575   3.881   6.845  2.0720 -0.1562 -0.0499
   44CHL1  H18B 3211   6.650   3.963   6.715 -1.4092  0.1874 -0.4711
   44CHL1  H18C 3212   6.684   4.009   6.890  0.6265  3.3674 -1.2507
   44CHL1   C12 3213   6.363   4.022   6.748  0.1185 -0.0726  0.4088
   44CHL1  H12A 3214   6.347   3.925   6.801  1.8918 -2.0411 -2.3612
   44CHL1  H12B 3215   6.275   4.089   6.742 -0.1477 -0.5493 -2.9123
   44CHL1   C11 3216   6.399   4.007   6.601  0.0692 -0.3460 -0.2436
   44CHL1  H11A 3217   6.475   3.927   6.588 -0.1927 -0.6851  0.3057
   44CHL1  H11B 3218   6.306   3.973   6.548 -0.3805 -0.3639  0.5460
   44CHL1    C9 3219   6.445   4.135   6.521 -0.5470 -0.1074 -0.3941
   44CHL1    H9 3220   6.362   4.208   6.516 -1.6118 -1.1442  1.2379
   44CHL1   C10 3221   6.492   4.127   6.370  0.5240  0.5938  0.5639
   44CHL1   C19 3222   6.579   4.001   6.347 -0.2497  0.2178  0.0004
   44CHL1  H19A 3223   6.520   3.907   6.356 -0.1644  0.2115  0.5609
   44CHL1  H19B 3224   6.630   3.979   6.251  1.1533 -2.2409  1.1852
   44CHL1  H19C 3225   6.661   4.001   6.423  0.5145  0.2804 -0.8119
   44CHL1    C1 3226   6.353   4.121   6.274 -0.5839  0.2522  0.2163
   44CHL1   H1A 3227   6.298   4.026   6.290 -2.9453  1.4439 -0.3658
   44CHL1   H1B 3228   6.300   4.208   6.319 -1.3426 -1.5724  3.1487
   44CHL1    C2 3229   6.377   4.137   6.122  0.0408  0.2908 -0.7709
   44CHL1   H2A 3230   6.277   4.151   6.076 -0.0844  4.7094  0.3692
   44CHL1   H2B 3231   6.430   4.046   6.090  0.2736  0.1635 -0.0467
   44CHL1   C20 3232   6.470   4.031   7.081  0.3153  0.3064  0.4580
   44CHL1   H20 3233   6.545   3.950   7.068  0.8380  0.1795  3.4621
   44CHL1   C21 3234   6.321   3.970   7.091  0.1219 -0.5038 -0.3967
   44CHL1  H21A 3235   6.303   3.892   7.014  0.0643 -0.7991 -0.0842
   44CHL1  H21B 3236   6.247   4.052   7.099  0.4833 -0.3373  2.0028
   44CHL1  H21C 3237   6.304   3.918   7.187  1.5661  0.4870  0.4526
   44CHL1   C22 3238   6.513   4.090   7.219  0.0143  0.5003  0.3297
   44CHL1  H22A 3239   6.616   4.132   7.214  0.3824 -0.0680  2.3104
   44CHL1  H22B 3240   6.444   4.176   7.237 -0.7937 -0.4769  2.2042
   44CHL1   C23 3241   6.504   3.992   7.338  0.0744  1.0241  0.6615
   44CHL1  H23A 3242   6.405   3.942   7.345  1.1996 -2.0448 -2.6818
   44CHL1  H23B 3243   6.579   3.911   7.323  0.0150  1.1171 -0.1792
   44CHL1   C24 3244   6.526   4.058   7.468  0.2627  0.3602 -0.2409
   44CHL1  H24A 3245   6.623   4.114   7.474  0.4219  0.1990 -1.1822
   44CHL1  H24B 3246   6.451   4.139   7.477  0.6665  0.6669  0.5520
   44CHL1   C25 3247   6.529   3.974   7.601  0.0527  0.9468  0.8263
   44CHL1   H25 3248   6.607   3.896   7.590 -1.3275 -0.5754  1.5461
   44CHL1   C26 3249   6.572   4.060   7.722 -0.1280  0.0539 -0.4764
   44CHL1  H26A 3250   6.495   4.139   7.734  0.4750  0.4575  0.8973
   44CHL1  H26B 3251   6.580   4.000   7.815  0.6178  0.0888 -0.5119
   44CHL1  H26C 3252   6.671   4.109   7.712 -1.1145  1.9346 -1.5719
   44CHL1   C27 3253   6.398   3.898   7.636  0.0525  0.7025 -0.0481
   44CHL1  H27A 3254   6.369   3.836   7.548 -1.8209  2.5309 -0.7902
   44CHL1  H27B 3255   6.400   3.842   7.732  0.9135 -1.6939 -1.3716
   44CHL1  H27C 3256   6.328   3.983   7.651  2.4670  2.6110  1.0620
   45CHL1    C3 3257   1.597   1.862   6.308  0.1943  0.7155  0.5276
   45CHL1    H3 3258   1.680   1.924   6.346  0.6504  0.6159 -0.2802
   45CHL1    O3 3259   1.610   1.843   6.166 -0.4025  0.1936  0.1443
   45CHL1   H3' 3260   1.522   1.814   6.141 -0.2384  0.9828 -1.4972
   45CHL1    C4 3261   1.611   1.722   6.382 -0.1459  0.2837 -0.2432
   45CHL1   H4A 3262   1.535   1.659   6.331  0.2467  0.6933 -1.3598
   45CHL1   H4B 3263   1.710   1.681   6.353  0.3873  2.1066 -1.1653
   45CHL1    C5 3264   1.583   1.722   6.529 -0.3133  0.6105 -0.6578
   45CHL1    C6 3265   1.666   1.665   6.619 -0.4043  0.1179  0.1891
   45CHL1    H6 3266   1.752   1.609   6.578 -0.8744  0.2259 -0.9761
   45CHL1    C7 3267   1.649   1.660   6.772 -0.2858 -0.9558  0.6761
   45CHL1   H7A 3268   1.649   1.555   6.808 -2.6239 -0.7498  1.4725
   45CHL1   H7B 3269   1.728   1.717   6.824 -0.1956 -2.0534  1.7936
   45CHL1    C8 3270   1.507   1.706   6.807 -0.3987  0.3409 -0.3098
   45CHL1    H8 3271   1.451   1.610   6.797  2.6685 -1.4663 -1.4005
   45CHL1   C14 3272   1.495   1.744   6.952  0.3149  0.4385  0.0328
   45CHL1   H14 3273   1.543   1.843   6.966  1.2925  0.0463 -0.4775
   45CHL1   C15 3274   1.559   1.649   7.056 -0.2632  0.6591 -0.2214
   45CHL1  H15A 3275   1.550   1.545   7.018 -0.0526  0.3430  0.5589
   45CHL1  H15B 3276   1.668   1.669   7.056 -0.3186  0.9759  0.0348
   45CHL1   C16 3277   1.474   1.677   7.179  0.3142  0.0053  0.0329
   45CHL1  H16A 3278   1.398   1.599   7.202  0.5214  0.5090  2.7706
   45CHL1  H16B 3279   1.529   1.701   7.272 -1.3888 -2.2183  1.7379
   45CHL1   C17 3280   1.388   1.801   7.142 -0.6110 -0.1331  0.4581
   45CHL1   H17 3281   1.457   1.887   7.156  1.2261 -1.8082  2.2537
   45CHL1   C13 3282   1.355   1.786   6.992  0.4653  0.0480 -0.5273
   45CHL1   C18 3283   1.246   1.673   6.974  0.2623 -0.5517  0.6827
   45CHL1  H18A 3284   1.239   1.633   6.871 -1.9364 -1.5403  1.1741
   45CHL1  H18B 3285   1.269   1.587   7.040  0.0071 -1.1133  0.0416
   45CHL1  H18C 3286   1.148   1.705   7.014 -0.2019 -1.0299 -0.0648
   45CHL1   C12 3287   1.314   1.918   6.911 -0.4093 -0.6344 -0.1273
   45CHL1  H12A 3288   1.208   1.945   6.930 -0.0602  0.6977  0.0418
   45CHL1  H12B 3289   1.382   2.004   6.929 -1.0624  0.6917 -3.2981
   45CHL1   C11 3290   1.314   1.878   6.761 -0.1969  0.3751  0.4390
   45CHL1  H11A 3291   1.233   1.806   6.738  0.0096  1.0590 -2.8278
   45CHL1  H11B 3292   1.287   1.968   6.702  0.1933  0.7881  0.8907
   45CHL1    C9 3293   1.458   1.826   6.722 -0.1400  0.2789  0.1591
   45CHL1    H9 3294   1.534   1.907   6.734 -0.7345  0.9902 -0.7647
   45CHL1   C10 3295   1.457   1.794   6.566  0.9189  0.4418  1.2103
   45CHL1   C19 3296   1.350   1.684   6.540  0.7059  0.5912  0.5310
   45CHL1  H19A 3297   1.371   1.607   6.618 -1.8410 -0.5992  0.1343
   45CHL1  H19B 3298   1.249   1.725   6.564  0.5260  0.1276  0.5834
   45CHL1  H19C 3299   1.348   1.637   6.440  1.9808 -0.1092  0.8106
   45CHL1    C1 3300   1.440   1.925   6.491  0.2517  0.0290 -0.6413
   45CHL1   H1A 3301   1.343   1.978   6.505  0.2026  0.5674 -2.7291
   45CHL1   H1B 3302   1.510   2.003   6.527  0.6339 -0.2885 -0.6884
   45CHL1    C2 3303   1.462   1.917   6.339 -0.5824 -0.0253  0.1649
   45CHL1   H2A 3304   1.458   2.017   6.291 -2.7720 -1.3803 -2.7504
   45CHL1   H2B 3305   1.381   1.862   6.286  1.5537 -1.9303 -1.3279
   45CHL1   C20 3306   1.270   1.836   7.240  0.2333 -0.3477  0.2192
   45CHL1   H20 3307   1.192   1.875   7.172  1.1138  0.4363 -0.3506
   45CHL1   C21 3308   1.305   1.955   7.335 -0.2043 -0.0994 -0.1161
   45CHL1  H21A 3309   1.222   2.017   7.374 -1.8965 -0.5971 -2.6937
   45CHL1  H21B 3310   1.370   2.031   7.285  1.5493 -1.7308 -0.4340
   45CHL1  H21C 3311   1.358   1.908   7.420 -1.6730 -0.6392  0.5194
   45CHL1   C22 3312   1.214   1.719   7.321 -0.4664 -0.0422 -0.3407
   45CHL1  H22A 3313   1.176   1.636   7.258 -0.3637  0.5463 -1.2014
   45CHL1  H22B 3314   1.294   1.675   7.385 -1.3220 -0.3735  0.5177
   45CHL1   C23 3315   1.086   1.734   7.406  1.2434 -0.1229 -0.1929
   45CHL1  H23A 3316   1.100   1.831   7.458  0.1651  1.8435 -3.2942
   45CHL1  H23B 3317   0.999   1.755   7.340  0.7081  2.5959  1.2314
   45CHL1   C24 3318   1.056   1.621   7.511 -0.3435  0.6388  0.2506
   45CHL1  H24A 3319   0.960   1.663   7.547 -0.5151  0.3811  0.0976
   45CHL1  H24B 3320   1.033   1.523   7.462  1.7422  0.9903 -1.6235
   45CHL1   C25 3321   1.150   1.609   7.634 -0.0694  0.2252 -0.4043
   45CHL1   H25 3322   1.249   1.574   7.596 -0.0636 -1.0948  0.7275
   45CHL1   C26 3323   1.179   1.741   7.706 -0.3518 -0.1580  0.7159
   45CHL1  H26A 3324   1.231   1.811   7.638  0.1354 -1.9114 -0.8225
   45CHL1  H26B 3325   1.081   1.784   7.737 -0.5011 -1.5846  2.4395
   45CHL1  H26C 3326   1.238   1.729   7.800 -0.1127  0.3119  0.6249
   45CHL1   C27 3327   1.090   1.524   7.748  0.1246 -1.1129  0.3314
   45CHL1  H27A 3328   1.136   1.526   7.850  0.8069  0.6026  0.0329
   45CHL1  H27B 3329   0.986   1.561   7.742 -0.2189 -2.2809 -1.5070
   45CHL1  H27C 3330   1.089   1.418   7.716 -2.2081 -1.0413  0.0370
   46CHL1    C3 3331   0.563   4.015   6.111  0.6248  0.2804 -0.0851
   46CHL1    H3 3332   0.493   3.929   6.105  0.4035  0.4147  0.5091
   46CHL1    O3 3333   0.593   4.049   5.978 -0.5207 -0.0274  0.7011
   46CHL1   H3' 3334   0.626   4.139   5.977  0.1222 -0.2169  1.8501
   46CHL1    C4 3335   0.499   4.140   6.177 -0.8287  0.6018 -0.2481
   46CHL1   H4A 3336   0.566   4.228   6.170 -1.3379  0.8786 -1.9761
   46CHL1   H4B 3337   0.414   4.158   6.108  0.6471  2.0732 -1.7820
   46CHL1    C5 3338   0.460   4.119   6.325 -0.1693 -0.7740 -0.0211
   46CHL1    C6 3339   0.333   4.136   6.358  0.6717  0.7321 -0.2222
   46CHL1    H6 3340   0.254   4.166   6.287  0.2754 -0.3070 -0.2330
   46CHL1    C7 3341   0.290   4.102   6.494  0.5353 -0.3271 -0.6904
   46CHL1   H7A 3342   0.225   4.175   6.547  0.8045 -1.5638  1.4547
   46CHL1   H7B 3343   0.238   4.003   6.491  3.8702 -2.2991  0.9539
   46CHL1    C8 3344   0.400   4.090   6.601 -0.1544 -0.2428  0.0523
   46CHL1    H8 3345   0.444   4.189   6.625  0.0326  0.3221 -2.4360
   46CHL1   C14 3346   0.353   4.028   6.733 -0.3945  0.2773 -0.1436
   46CHL1   H14 3347   0.317   3.926   6.710 -2.3223  1.4560 -2.9031
   46CHL1   C15 3348   0.239   4.105   6.801  0.3581  0.3491 -0.0359
   46CHL1  H15A 3349   0.254   4.214   6.783  0.9553 -0.0808 -2.6018
   46CHL1  H15B 3350   0.144   4.072   6.754 -0.7463 -0.1502  2.4019
   46CHL1   C16 3351   0.240   4.072   6.947 -0.0176  0.3877  0.3730
   46CHL1  H16A 3352   0.260   4.155   7.017  1.0996 -0.5203  1.1743
   46CHL1  H16B 3353   0.149   4.021   6.985  0.4217 -0.6910  0.0332
   46CHL1   C17 3354   0.367   3.976   6.956  0.2788 -0.5167  0.2127
   46CHL1   H17 3355   0.325   3.876   6.930 -0.4261 -0.5135  1.2369
   46CHL1   C13 3356   0.458   4.013   6.843 -0.5544  0.1916 -0.2077
   46CHL1   C18 3357   0.524   4.149   6.879 -0.1099  0.3955  0.1712
   46CHL1  H18A 3358   0.553   4.211   6.791  2.9061  0.7068  1.2733
   46CHL1  H18B 3359   0.451   4.215   6.931  0.3222  1.6076 -0.6864
   46CHL1  H18C 3360   0.617   4.136   6.937  0.2442 -0.5921 -0.5976
   46CHL1   C12 3361   0.570   3.911   6.784 -0.0859 -0.6309 -0.4114
   46CHL1  H12A 3362   0.657   3.917   6.852  0.6898  1.3657 -1.4962
   46CHL1  H12B 3363   0.518   3.813   6.772  0.1249 -0.9146  0.8183
   46CHL1   C11 3364   0.627   3.967   6.650 -0.1591 -0.4231  0.0034
   46CHL1  H11A 3365   0.668   4.063   6.688  0.3076 -1.0037  1.0024
   46CHL1  H11B 3366   0.705   3.896   6.615  0.6165 -0.4820  1.7120
   46CHL1    C9 3367   0.519   4.006   6.542 -0.1835  0.2578  0.6420
   46CHL1    H9 3368   0.485   3.908   6.504  1.6251  0.7203 -2.5228
   46CHL1   C10 3369   0.580   4.066   6.406  0.3481 -0.6461 -0.4466
   46CHL1   C19 3370   0.678   4.180   6.446  0.1255 -0.0036  0.6117
   46CHL1  H19A 3371   0.640   4.258   6.515 -2.1226  0.0781 -0.6249
   46CHL1  H19B 3372   0.765   4.142   6.504  0.7007  0.3406 -0.0005
   46CHL1  H19C 3373   0.723   4.231   6.358  1.6060  2.3350  2.6045
   46CHL1    C1 3374   0.657   3.950   6.328  0.1252  0.0964 -0.0159
   46CHL1   H1A 3375   0.747   3.922   6.386  0.1362  1.0423  0.4394
   46CHL1   H1B 3376   0.581   3.868   6.331  1.4652 -1.2442 -1.1253
   46CHL1    C2 3377   0.696   3.985   6.184 -0.4332  0.0201 -0.3101
   46CHL1   H2A 3378   0.752   3.903   6.133  0.9898  0.1961  0.8872
   46CHL1   H2B 3379   0.754   4.080   6.189 -2.5475  1.3800 -0.4906
   46CHL1   C20 3380   0.422   3.949   7.100  0.7306 -0.6255 -0.3139
   46CHL1   H20 3381   0.489   4.030   7.138 -0.8468  0.2440  0.7254
   46CHL1   C21 3382   0.506   3.818   7.101  0.1353 -0.3796 -0.1753
   46CHL1  H21A 3383   0.542   3.794   7.203 -0.7820 -1.9752 -0.2044
   46CHL1  H21B 3384   0.596   3.831   7.037  1.4325 -1.5894  1.3244
   46CHL1  H21C 3385   0.450   3.730   7.064 -0.5429  0.7690 -2.0597
   46CHL1   C22 3386   0.312   3.940   7.214 -0.4693  0.2886  0.0549
   46CHL1  H22A 3387   0.255   4.035   7.226  0.3263  0.7950 -0.1134
   46CHL1  H22B 3388   0.230   3.870   7.185  0.3895 -0.6648 -0.1328
   46CHL1   C23 3389   0.357   3.903   7.355 -0.3826  0.3931 -0.5930
   46CHL1  H23A 3390   0.265   3.895   7.417  0.6214 -1.2405  0.7725
   46CHL1  H23B 3391   0.415   3.810   7.372  0.2911  0.7757 -0.7559
   46CHL1   C24 3392   0.437   4.013   7.421  0.2109  0.4967 -0.4609
   46CHL1  H24A 3393   0.543   3.981   7.433 -0.3244 -0.8936  1.0125
   46CHL1  H24B 3394   0.439   4.107   7.362  0.8140  0.8769  0.1547
   46CHL1   C25 3395   0.408   4.046   7.570  0.0552  0.2712  0.4612
   46CHL1   H25 3396   0.481   4.124   7.601  0.5929  0.4200 -1.0658
   46CHL1   C26 3397   0.280   4.124   7.571  0.5102 -0.0627 -0.1563
   46CHL1  H26A 3398   0.269   4.160   7.675  0.6223 -0.9026  0.1519
   46CHL1  H26B 3399   0.278   4.217   7.509 -0.3526 -0.8717 -1.3867
   46CHL1  H26C 3400   0.188   4.069   7.542  0.1255  0.6911 -0.4243
   46CHL1   C27 3401   0.408   3.930   7.668 -0.2561 -0.0106 -0.7692
   46CHL1  H27A 3402   0.507   3.879   7.664  0.6639  1.5108  1.1409
   46CHL1  H27B 3403   0.388   3.959   7.773  1.1529 -0.6848 -0.2836
   46CHL1  H27C 3404   0.334   3.853   7.637 -0.5574  0.7623 -2.0816
   47CHL1    C3 3405   0.367   4.550   6.182 -0.4428  0.1129 -0.3440
   47CHL1    H3 3406   0.334   4.444   6.190 -0.2995  0.0790 -0.2074
   47CHL1    O3 3407   0.357   4.573   6.048 -0.0013 -0.4814  0.0558
   47CHL1   H3' 3408   0.273   4.618   6.032  0.6452  0.1143 -2.0893
   47CHL1    C4 3409   0.277   4.647   6.265 -0.7562  0.0066 -0.0997
   47CHL1   H4A 3410   0.309   4.753   6.258  1.7430 -0.1526  4.6287
   47CHL1   H4B 3411   0.174   4.637   6.225 -0.1343 -1.2213 -1.4877
   47CHL1    C5 3412   0.289   4.609   6.412  0.5324  0.5222 -0.9151
   47CHL1    C6 3413   0.184   4.559   6.484 -0.2845  0.1537  0.3652
   47CHL1    H6 3414   0.091   4.554   6.427  0.6033  2.6973 -1.4905
   47CHL1    C7 3415   0.187   4.530   6.628 -0.0545 -0.4384 -0.6019
   47CHL1   H7A 3416   0.092   4.568   6.672  0.9101  1.5251 -0.1072
   47CHL1   H7B 3417   0.185   4.419   6.638 -0.2787 -0.6741 -2.8742
   47CHL1    C8 3418   0.306   4.595   6.702 -0.1887 -0.2075  0.2627
   47CHL1    H8 3419   0.282   4.703   6.709 -1.3818 -0.3136 -1.4547
   47CHL1   C14 3420   0.328   4.534   6.843 -0.1630  0.2819  0.2310
   47CHL1   H14 3421   0.360   4.428   6.828 -2.6486 -0.3508 -1.0502
   47CHL1   C15 3422   0.217   4.538   6.951  0.0406 -0.7655 -0.1606
   47CHL1  H15A 3423   0.182   4.643   6.941 -1.4906 -1.0505  1.6720
   47CHL1  H15B 3424   0.127   4.479   6.923 -0.8666  0.8490 -0.7114
   47CHL1   C16 3425   0.288   4.514   7.088 -0.6327  0.2076 -0.1603
   47CHL1  H16A 3426   0.280   4.600   7.157  1.0041 -0.6216  1.1424
   47CHL1  H16B 3427   0.245   4.429   7.145 -2.4588  1.4236  0.3745
   47CHL1   C17 3428   0.442   4.510   7.057  1.0550  0.2252  0.0745
   47CHL1   H17 3429   0.466   4.404   7.032  1.2408  0.2013  0.3587
   47CHL1   C13 3430   0.453   4.590   6.929  0.4972 -0.3029  0.9304
   47CHL1   C18 3431   0.434   4.743   6.952  0.3066  0.1444  0.1520
   47CHL1  H18A 3432   0.527   4.780   7.001  1.0719 -1.5193  0.0010
   47CHL1  H18B 3433   0.417   4.790   6.852 -0.8341 -0.4989  0.0263
   47CHL1  H18C 3434   0.345   4.768   7.013  0.1610  1.4617 -0.5481
   47CHL1   C12 3435   0.574   4.561   6.836 -0.1316  0.7254  0.1720
   47CHL1  H12A 3436   0.659   4.622   6.872 -0.6575  1.1628  0.6885
   47CHL1  H12B 3437   0.602   4.454   6.836 -0.4769  0.6073  1.7478
   47CHL1   C11 3438   0.558   4.620   6.696 -0.2091  0.3016  0.9955
   47CHL1  H11A 3439   0.558   4.730   6.702  1.0097  0.4638 -1.1734
   47CHL1  H11B 3440   0.646   4.584   6.640 -0.7589 -0.0228  0.3180
   47CHL1    C9 3441   0.430   4.566   6.623  0.0323 -0.5923  0.0039
   47CHL1    H9 3442   0.440   4.455   6.624  1.1151 -0.5232 -1.0545
   47CHL1   C10 3443   0.425   4.627   6.478  0.0565 -0.0972  0.1355
   47CHL1   C19 3444   0.462   4.770   6.485  0.0448 -0.8602 -0.4397
   47CHL1  H19A 3445   0.407   4.825   6.565  0.1400  0.8423 -1.4835
   47CHL1  H19B 3446   0.569   4.786   6.510  0.2235  0.2333 -1.7912
   47CHL1  H19C 3447   0.439   4.821   6.389 -4.0963  0.1278  0.8735
   47CHL1    C1 3448   0.527   4.537   6.392 -0.0113 -0.5366  0.3151
   47CHL1   H1A 3449   0.633   4.546   6.426  0.2253 -0.4528 -0.4348
   47CHL1   H1B 3450   0.510   4.429   6.413  2.5675 -1.0146  0.2749
   47CHL1    C2 3451   0.515   4.565   6.237 -0.3183 -0.1148 -0.2705
   47CHL1   H2A 3452   0.574   4.486   6.186  0.3736 -0.8962  1.6595
   47CHL1   H2B 3453   0.549   4.667   6.208  3.1197 -0.4272  2.0895
   47CHL1   C20 3454   0.528   4.542   7.179 -0.0329 -0.2897 -0.1013
   47CHL1   H20 3455   0.494   4.644   7.207 -1.7812 -0.9491  0.3355
   47CHL1   C21 3456   0.680   4.525   7.141 -0.4022 -0.2804  0.1663
   47CHL1  H21A 3457   0.742   4.555   7.228 -2.4556  0.8973  1.3213
   47CHL1  H21B 3458   0.693   4.603   7.063 -0.2433 -0.9156 -0.4532
   47CHL1  H21C 3459   0.703   4.425   7.097 -0.0176  0.4721 -1.4294
   47CHL1   C22 3460   0.503   4.451   7.300  0.3581  0.4480 -0.6352
   47CHL1  H22A 3461   0.395   4.431   7.309  0.2492  2.0781  3.4408
   47CHL1  H22B 3462   0.549   4.350   7.292 -0.5389  0.0014 -0.1820
   47CHL1   C23 3463   0.543   4.527   7.428 -0.0006 -0.6614  0.4682
   47CHL1  H23A 3464   0.648   4.563   7.416 -0.4764  1.4054  2.0020
   47CHL1  H23B 3465   0.480   4.616   7.449 -1.1046 -1.1061 -0.8866
   47CHL1   C24 3466   0.525   4.436   7.544 -0.8954  0.5133 -0.1642
   47CHL1  H24A 3467   0.415   4.418   7.548 -1.0850  1.7169  0.7942
   47CHL1  H24B 3468   0.579   4.339   7.537  2.1710  2.0985 -0.0143
   47CHL1   C25 3469   0.574   4.508   7.674  0.1236  0.3158 -0.1046
   47CHL1   H25 3470   0.508   4.597   7.679  0.0393  0.4819 -2.7542
   47CHL1   C26 3471   0.557   4.409   7.790  0.1986  0.0663  0.2030
   47CHL1  H26A 3472   0.446   4.396   7.793  0.2479 -0.3341  0.3573
   47CHL1  H26B 3473   0.606   4.314   7.759 -0.0986  0.3004 -1.0274
   47CHL1  H26C 3474   0.600   4.457   7.880  0.2987  1.0530 -0.3633
   47CHL1   C27 3475   0.718   4.556   7.669 -0.2287  0.4940 -0.5272
   47CHL1  H27A 3476   0.733   4.614   7.763  0.3041 -1.2340  0.4903
   47CHL1  H27B 3477   0.801   4.484   7.659  1.8138  2.4659  1.0146
   47CHL1  H27C 3478   0.740   4.617   7.579  1.4139  0.4707 -0.1622
   48CHL1    C3 3479   3.638   6.869   6.073 -0.0943 -0.4343 -0.0491
   48CHL1    H3 3480   3.734   6.854   6.128  0.5598  0.7374 -0.8362
   48CHL1    O3 3481   3.652   6.907   5.937  0.4068 -0.4553  0.2971
   48CHL1   H3' 3482   3.706   6.838   5.897  2.5311  1.9542 -1.2817
   48CHL1    C4 3483   3.560   6.738   6.079 -0.0602 -0.1455 -0.5815
   48CHL1   H4A 3484   3.482   6.744   5.999 -1.5897  3.1520  0.9333
   48CHL1   H4B 3485   3.623   6.653   6.047  1.3532  0.4700  0.4757
   48CHL1    C5 3486   3.490   6.703   6.213 -0.0036 -0.5705  0.9196
   48CHL1    C6 3487   3.509   6.585   6.266  0.7634  0.2313 -0.7130
   48CHL1    H6 3488   3.562   6.510   6.207 -0.1008 -1.0544  0.0953
   48CHL1    C7 3489   3.436   6.542   6.395 -0.3360 -0.0713  0.0668
   48CHL1   H7A 3490   3.388   6.444   6.376 -0.7102  0.2487 -0.7121
   48CHL1   H7B 3491   3.506   6.528   6.479  0.5557  2.7517 -0.0779
   48CHL1    C8 3492   3.335   6.648   6.451 -0.8646 -0.0337 -0.1260
   48CHL1    H8 3493   3.238   6.627   6.403 -0.9186 -0.8452  0.3226
   48CHL1   C14 3494   3.317   6.617   6.602 -0.3627 -0.7893 -0.2563
   48CHL1   H14 3495   3.419   6.648   6.633 -0.7963  1.5341 -0.9426
   48CHL1   C15 3496   3.293   6.473   6.645 -0.0074  0.0652 -0.0729
   48CHL1  H15A 3497   3.213   6.445   6.573  1.7461 -0.4051 -1.9119
   48CHL1  H15B 3498   3.378   6.402   6.634  0.0747  0.0579  0.5767
   48CHL1   C16 3499   3.233   6.483   6.783 -0.3941  0.4485 -0.2448
   48CHL1  H16A 3500   3.128   6.448   6.778 -0.6183  1.2468 -1.6057
   48CHL1  H16B 3501   3.300   6.434   6.857 -0.7268  0.6622  0.2095
   48CHL1   C17 3502   3.224   6.633   6.817  0.4134  0.3197 -0.0947
   48CHL1   H17 3503   3.320   6.668   6.861 -0.2242  2.4391 -0.2618
   48CHL1   C13 3504   3.219   6.704   6.686 -0.0589  0.3355  0.3417
   48CHL1   C18 3505   3.073   6.682   6.630 -0.1894  0.1797  0.6600
   48CHL1  H18A 3506   3.024   6.594   6.678 -1.0447  0.0605 -0.4033
   48CHL1  H18B 3507   3.013   6.772   6.655  0.7118  1.1228 -0.4888
   48CHL1  H18C 3508   3.076   6.675   6.519  0.5709 -1.5899  0.7521
   48CHL1   C12 3509   3.265   6.853   6.656 -0.0164  0.2405 -0.5764
   48CHL1  H12A 3510   3.192   6.921   6.705 -1.4758 -2.3954  1.1606
   48CHL1  H12B 3511   3.365   6.852   6.705 -0.0987 -1.2345 -0.4017
   48CHL1   C11 3512   3.285   6.888   6.507 -0.1562  0.2003 -0.4935
   48CHL1  H11A 3513   3.182   6.887   6.467 -0.9943  3.2816  1.2253
   48CHL1  H11B 3514   3.312   6.995   6.495 -0.7412  0.2129 -1.8397
   48CHL1    C9 3515   3.384   6.793   6.428 -0.0737  0.6560 -0.0576
   48CHL1    H9 3516   3.477   6.804   6.489 -1.0502 -0.1782  1.6618
   48CHL1   C10 3517   3.419   6.821   6.280  0.4351  0.2261  0.3603
   48CHL1   C19 3518   3.287   6.850   6.202 -0.1014 -0.4696 -0.5144
   48CHL1  H19A 3519   3.213   6.767   6.204 -0.1088 -0.4717 -0.8214
   48CHL1  H19B 3520   3.227   6.932   6.250 -0.8840 -1.6927  0.6650
   48CHL1  H19C 3521   3.313   6.873   6.097  0.3359 -0.2175 -0.3531
   48CHL1    C1 3522   3.510   6.948   6.277 -0.0541 -1.1688 -0.6705
   48CHL1   H1A 3523   3.445   7.034   6.305  3.0450  0.5677  1.8908
   48CHL1   H1B 3524   3.599   6.948   6.344 -0.1114  1.4061 -0.4785
   48CHL1    C2 3525   3.555   6.982   6.135  0.3577 -0.1569  0.3063
   48CHL1   H2A 3526   3.618   7.073   6.144 -0.0694  0.1533  0.1751
   48CHL1   H2B 3527   3.476   7.017   6.066  1.8917  0.4247 -1.2478
   48CHL1   C20 3528   3.121   6.674   6.924  0.9298 -0.3606  0.0790
   48CHL1   H20 3529   3.018   6.647   6.894 -0.3108  1.9852  1.9208
   48CHL1   C21 3530   3.115   6.827   6.956 -0.1067  0.0826 -0.1958
   48CHL1  H21A 3531   3.066   6.838   7.056  1.4491 -0.4283  0.6561
   48CHL1  H21B 3532   3.062   6.884   6.877 -0.7189  0.8100  0.7177
   48CHL1  H21C 3533   3.220   6.857   6.975  0.7753 -2.5330 -0.6560
   48CHL1   C22 3534   3.135   6.594   7.050  0.0441  0.2984  0.4396
   48CHL1  H22A 3535   3.168   6.489   7.041 -0.3881  0.0551  1.5986
   48CHL1  H22B 3536   3.216   6.636   7.114 -0.7831 -0.3834  1.9713
   48CHL1   C23 3537   3.002   6.582   7.132 -0.3347 -0.1280 -0.1132
   48CHL1  H23A 3538   2.961   6.682   7.154  0.3575 -0.2746  2.1509
   48CHL1  H23B 3539   2.918   6.537   7.075 -1.7178  2.2061 -0.0014
   48CHL1   C24 3540   3.015   6.499   7.261  0.3024  0.7869 -0.0624
   48CHL1  H24A 3541   3.039   6.394   7.231  0.5309  0.8704 -0.1763
   48CHL1  H24B 3542   3.100   6.533   7.325  1.9599 -1.8127 -0.7387
   48CHL1   C25 3543   2.876   6.495   7.336 -0.4478 -0.3911 -0.1821
   48CHL1   H25 3544   2.815   6.588   7.325  1.0588  0.4684 -1.7173
   48CHL1   C26 3545   2.787   6.389   7.269 -0.4809 -0.2903 -0.1526
   48CHL1  H26A 3546   2.684   6.390   7.311 -0.6701  0.4201 -0.6148
   48CHL1  H26B 3547   2.779   6.419   7.162  1.2921 -0.9714 -0.5092
   48CHL1  H26C 3548   2.831   6.291   7.296 -1.0252 -0.5744 -0.2862
   48CHL1   C27 3549   2.898   6.450   7.481  0.2982  0.1969  0.3776
   48CHL1  H27A 3550   2.968   6.516   7.537  0.3914  0.0588  0.4245
   48CHL1  H27B 3551   2.794   6.444   7.520 -0.9949 -0.0598 -2.8092
   48CHL1  H27C 3552   2.944   6.350   7.492  0.3743  0.3121  1.1738
   49CHL1    C3 3553   2.185   0.789   6.168  0.0572 -0.1297 -0.0297
   49CHL1    H3 3554   2.263   0.851   6.218 -0.4948 -1.9599  3.4117
   49CHL1    O3 3555   2.200   0.794   6.026 -0.1714  0.1534  0.4934
   49CHL1   H3' 3556   2.198   0.700   6.010 -1.8230 -0.0086  1.4030
   49CHL1    C4 3557   2.213   0.646   6.224 -0.0425  0.0268  0.3134
   49CHL1   H4A 3558   2.150   0.565   6.182  0.7829 -1.2638  1.4988
   49CHL1   H4B 3559   2.319   0.627   6.199 -0.1457  0.0222 -0.1426
   49CHL1    C5 3560   2.183   0.645   6.374 -0.4558 -0.3885  0.0813
   49CHL1    C6 3561   2.271   0.597   6.458 -0.0026 -0.1969 -0.4118
   49CHL1    H6 3562   2.368   0.560   6.422  0.6279  0.0466  0.9653
   49CHL1    C7 3563   2.252   0.583   6.609 -0.1189 -0.4992 -0.3045
   49CHL1   H7A 3564   2.287   0.481   6.635  1.7239 -0.5370 -2.5705
   49CHL1   H7B 3565   2.324   0.653   6.656  0.0459  0.6463 -2.1600
   49CHL1    C8 3566   2.108   0.627   6.660  0.1617  0.1757  0.1729
   49CHL1    H8 3567   2.045   0.536   6.644  1.9467 -1.1396  0.2869
   49CHL1   C14 3568   2.111   0.662   6.800  0.2582 -0.4603 -1.3438
   49CHL1   H14 3569   2.179   0.750   6.811 -0.8288  0.2293  0.3073
   49CHL1   C15 3570   2.164   0.561   6.903 -0.3186  0.1002 -0.6007
   49CHL1  H15A 3571   2.121   0.462   6.879 -1.7337  0.1640  1.3636
   49CHL1  H15B 3572   2.274   0.549   6.902  0.1715  3.5846 -0.6068
   49CHL1   C16 3573   2.110   0.614   7.037 -0.2935 -0.1619 -0.3726
   49CHL1  H16A 3574   2.054   0.530   7.084 -1.9650  1.1339  0.1055
   49CHL1  H16B 3575   2.188   0.642   7.111 -3.2689  0.3793  2.8982
   49CHL1   C17 3576   2.016   0.734   7.014 -0.0569  0.6700 -0.2309
   49CHL1   H17 3577   2.084   0.822   7.010  1.1498 -0.2688 -1.5836
   49CHL1   C13 3578   1.981   0.712   6.870  0.2106  0.0074 -0.0053
   49CHL1   C18 3579   1.877   0.600   6.855  0.4141  0.2186  0.3153
   49CHL1  H18A 3580   1.785   0.629   6.910  0.9252  0.3277  1.1352
   49CHL1  H18B 3581   1.847   0.569   6.753  0.0330  0.5928  0.3100
   49CHL1  H18C 3582   1.906   0.508   6.910 -1.1589  0.4247  1.5885
   49CHL1   C12 3583   1.929   0.838   6.800  0.5851  0.3701 -0.5859
   49CHL1  H12A 3584   1.831   0.876   6.834  0.9400  0.7002  0.1104
   49CHL1  H12B 3585   1.999   0.921   6.827 -0.0454  0.5915  0.4022
   49CHL1   C11 3586   1.927   0.819   6.643 -0.4235 -0.2782  0.3172
   49CHL1  H11A 3587   1.843   0.749   6.621 -1.2842  0.5968  0.7139
   49CHL1  H11B 3588   1.913   0.920   6.598  2.2060  0.4376  0.9604
   49CHL1    C9 3589   2.051   0.749   6.577  0.1014 -0.0886 -0.3911
   49CHL1    H9 3590   2.134   0.821   6.585  1.0849 -1.0896 -1.2232
   49CHL1   C10 3591   2.046   0.709   6.424  0.1156  0.1068 -0.3796
   49CHL1   C19 3592   1.922   0.626   6.393  0.3643  0.1434 -0.1696
   49CHL1  H19A 3593   1.912   0.609   6.283  0.6390 -0.5722 -0.0883
   49CHL1  H19B 3594   1.940   0.532   6.449  0.2071 -0.8415 -1.7196
   49CHL1  H19C 3595   1.832   0.669   6.443  2.3196  3.1745  1.0729
   49CHL1    C1 3596   2.031   0.851   6.364  0.1577  0.1314 -0.5907
   49CHL1   H1A 3597   1.927   0.890   6.367 -0.1225 -0.6566  1.0827
   49CHL1   H1B 3598   2.091   0.931   6.414 -0.2710  1.2799 -1.8491
   49CHL1    C2 3599   2.054   0.859   6.213 -0.7410  0.0585 -0.7373
   49CHL1   H2A 3600   2.055   0.967   6.185 -1.3908  0.1911 -0.2656
   49CHL1   H2B 3601   1.968   0.811   6.162 -1.7344  0.5559  0.4288
   49CHL1   C20 3602   1.899   0.768   7.116  0.4097  0.2972  0.0705
   49CHL1   H20 3603   1.803   0.782   7.060  0.4499 -0.4119 -0.1915
   49CHL1   C21 3604   1.941   0.905   7.173 -0.2111  0.5055 -0.2737
   49CHL1  H21A 3605   2.046   0.893   7.210  0.9061  1.9448 -2.7391
   49CHL1  H21B 3606   1.873   0.940   7.254  3.2173  1.4120  2.5266
   49CHL1  H21C 3607   1.945   0.994   7.107  3.5805  0.9114  0.2484
   49CHL1   C22 3608   1.874   0.653   7.225 -0.3895  0.1777 -0.6475
   49CHL1  H22A 3609   1.844   0.562   7.168  1.0966  0.0368 -1.2528
   49CHL1  H22B 3610   1.976   0.627   7.260  0.3257  1.7129 -1.5139
   49CHL1   C23 3611   1.785   0.693   7.346 -0.0894 -0.4253  0.3977
   49CHL1  H23A 3612   1.769   0.604   7.410 -1.7571 -0.4492 -0.0106
   49CHL1  H23B 3613   1.838   0.777   7.395 -2.1709  0.7944  0.6315
   49CHL1   C24 3614   1.654   0.758   7.292  0.1661 -0.5597  0.1675
   49CHL1  H24A 3615   1.679   0.853   7.239  1.4603  1.3690  3.8750
   49CHL1  H24B 3616   1.602   0.688   7.223  0.2751 -0.8854  0.4129
   49CHL1   C25 3617   1.557   0.806   7.403  0.1748  0.2425 -0.1545
   49CHL1   H25 3618   1.515   0.711   7.441  1.2674 -0.2885 -0.2523
   49CHL1   C26 3619   1.617   0.883   7.513  0.0262 -0.0269 -0.1479
   49CHL1  H26A 3620   1.542   0.923   7.585  0.0153 -0.2845 -0.0126
   49CHL1  H26B 3621   1.680   0.823   7.583  1.5966  0.5243 -1.0453
   49CHL1  H26C 3622   1.684   0.962   7.473  0.5424 -0.3252  0.1017
   49CHL1   C27 3623   1.440   0.885   7.341 -0.4968 -0.0478  0.0663
   49CHL1  H27A 3624   1.464   0.982   7.293  0.2855  1.3245  2.9720
   49CHL1  H27B 3625   1.401   0.816   7.263  0.7293 -1.9692  1.0632
   49CHL1  H27C 3626   1.365   0.905   7.420  0.3133  0.5410  0.7082
   50CHL1    C3 3627   1.368   6.500   6.078 -0.6806 -0.2418 -0.5164
   50CHL1    H3 3628   1.263   6.492   6.114 -0.9115 -0.1226 -1.1479
   50CHL1    O3 3629   1.377   6.527   5.942 -0.0242  0.1278 -0.4160
   50CHL1   H3' 3630   1.324   6.606   5.926 -1.3587 -0.9831 -1.6648
   50CHL1    C4 3631   1.437   6.611   6.157 -0.4610 -0.6030  0.6556
   50CHL1   H4A 3632   1.541   6.637   6.128 -0.4582  0.2007  1.3379
   50CHL1   H4B 3633   1.369   6.695   6.135 -0.5011 -0.2760  1.9348
   50CHL1    C5 3634   1.429   6.577   6.308  0.3869 -0.0680 -0.2469
   50CHL1    C6 3635   1.380   6.662   6.400  0.0317  0.4221  0.8598
   50CHL1    H6 3636   1.361   6.760   6.356  1.2425  2.2094  3.9908
   50CHL1    C7 3637   1.367   6.634   6.551  0.8327 -0.3443 -0.6244
   50CHL1   H7A 3638   1.401   6.722   6.611  2.9425 -0.0295 -2.1660
   50CHL1   H7B 3639   1.262   6.607   6.574  1.0279 -1.8355 -1.3307
   50CHL1    C8 3640   1.447   6.508   6.591 -0.8248 -0.1178  0.4463
   50CHL1    H8 3641   1.556   6.523   6.577 -0.8166 -0.9455 -0.5507
   50CHL1   C14 3642   1.405   6.465   6.726 -0.7210  0.1075  0.7233
   50CHL1   H14 3643   1.298   6.444   6.704 -0.3363 -0.1250 -1.0927
   50CHL1   C15 3644   1.411   6.569   6.840  0.4250  0.2119  0.0094
   50CHL1  H15A 3645   1.492   6.635   6.804 -0.4014  0.2391 -1.9015
   50CHL1  H15B 3646   1.325   6.639   6.852 -0.2222 -0.7438  1.1204
   50CHL1   C16 3647   1.431   6.489   6.970 -0.1505 -0.7814 -0.0076
   50CHL1  H16A 3648   1.530   6.506   7.017  0.1636  0.7203 -1.1217
   50CHL1  H16B 3649   1.353   6.516   7.044  1.6307 -0.3492  1.7952
   50CHL1   C17 3650   1.420   6.337   6.925 -1.0316 -1.2240  0.3566
   50CHL1   H17 3651   1.313   6.309   6.925 -0.8033 -2.1091  0.8470
   50CHL1   C13 3652   1.470   6.336   6.771 -0.0038  0.3046  0.2030
   50CHL1   C18 3653   1.623   6.350   6.780 -0.3097  0.1873  0.1755
   50CHL1  H18A 3654   1.652   6.400   6.875  0.3721 -1.1178  0.6715
   50CHL1  H18B 3655   1.677   6.253   6.785 -0.3419  0.2245  2.3581
   50CHL1  H18C 3656   1.668   6.408   6.696  0.7899  1.6608  1.7002
   50CHL1   C12 3657   1.418   6.224   6.685 -0.0699 -0.5449  0.2690
   50CHL1  H12A 3658   1.466   6.130   6.720  1.4367  0.4820  1.0800
   50CHL1  H12B 3659   1.308   6.223   6.696 -0.2441 -2.6211 -1.1091
   50CHL1   C11 3660   1.457   6.260   6.543 -0.1410 -0.7247  0.0158
   50CHL1  H11A 3661   1.567   6.258   6.527 -0.1690 -1.6769 -0.1559
   50CHL1  H11B 3662   1.436   6.168   6.483 -0.3076 -0.5462 -0.2003
   50CHL1    C9 3663   1.404   6.400   6.491 -0.2007  0.8558 -0.6435
   50CHL1    H9 3664   1.293   6.404   6.487 -0.2536  0.5761  0.3118
   50CHL1   C10 3665   1.467   6.431   6.350  0.4654  0.7289 -0.6061
   50CHL1   C19 3666   1.621   6.412   6.343 -0.5314 -0.1185  0.5981
   50CHL1  H19A 3667   1.651   6.306   6.358 -0.5853  0.0068  1.6311
   50CHL1  H19B 3668   1.665   6.442   6.245 -0.4182 -0.9088  0.4017
   50CHL1  H19C 3669   1.669   6.469   6.426  1.1837 -4.3649  2.8256
   50CHL1    C1 3670   1.418   6.324   6.247 -0.0853 -0.7237 -0.3528
   50CHL1   H1A 3671   1.470   6.228   6.266  2.5650  0.6457 -0.1759
   50CHL1   H1B 3672   1.311   6.303   6.269  0.6034 -1.1250  3.4461
   50CHL1    C2 3673   1.438   6.364   6.107  0.0634  0.5560  0.7452
   50CHL1   H2A 3674   1.389   6.285   6.047  0.7725 -1.3119  2.5037
   50CHL1   H2B 3675   1.545   6.383   6.083 -0.0005 -0.9052 -0.8721
   50CHL1   C20 3676   1.492   6.243   7.027  0.1123 -0.6094  0.2627
   50CHL1   H20 3677   1.597   6.280   7.035  0.2622 -1.1501  0.9491
   50CHL1   C21 3678   1.506   6.103   6.971 -0.2917 -1.2694  0.0839
   50CHL1  H21A 3679   1.406   6.065   6.943 -0.8641  0.3566 -0.2217
   50CHL1  H21B 3680   1.557   6.025   7.032  0.5105  0.2599  1.4555
   50CHL1  H21C 3681   1.572   6.107   6.881 -1.1058 -0.4564 -0.4989
   50CHL1   C22 3682   1.417   6.237   7.159  0.2924 -0.2430 -0.2401
   50CHL1  H22A 3683   1.405   6.344   7.187 -2.2275 -0.3469 -0.6035
   50CHL1  H22B 3684   1.318   6.192   7.133 -0.3247  1.1109 -0.3360
   50CHL1   C23 3685   1.479   6.156   7.275 -0.1648 -0.6510  0.0754
   50CHL1  H23A 3686   1.500   6.054   7.238  0.6016  0.0034 -1.3612
   50CHL1  H23B 3687   1.572   6.207   7.310  0.2604 -1.9358  0.8767
   50CHL1   C24 3688   1.376   6.144   7.393 -0.5979  0.5813  0.0295
   50CHL1  H24A 3689   1.279   6.107   7.354  0.5133 -2.1176 -0.4213
   50CHL1  H24B 3690   1.423   6.055   7.441  2.0194  0.7008 -2.0530
   50CHL1   C25 3691   1.361   6.253   7.488  0.5032  0.3805  0.0644
   50CHL1   H25 3692   1.315   6.338   7.433 -0.5733 -0.9913 -1.2240
   50CHL1   C26 3693   1.257   6.229   7.590  0.3859 -0.3823  0.0054
   50CHL1  H26A 3694   1.283   6.134   7.643  2.2424  0.5706  0.8912
   50CHL1  H26B 3695   1.252   6.320   7.654  0.3364  1.4821 -2.5116
   50CHL1  H26C 3696   1.157   6.230   7.542  0.7507 -2.4099 -0.8937
   50CHL1   C27 3697   1.489   6.283   7.556 -0.1243  0.2748  0.1251
   50CHL1  H27A 3698   1.553   6.317   7.472  2.2539 -1.8740  0.9257
   50CHL1  H27B 3699   1.469   6.362   7.632 -1.8925  1.2328 -1.2705
   50CHL1  H27C 3700   1.538   6.195   7.603 -0.5531  0.3686  0.7580
   51CHL1    C3 3701   2.173   6.863   5.772  0.0225  0.4503 -0.7668
   51CHL1    H3 3702   2.219   6.957   5.808  0.1363  0.7523 -1.6611
   51CHL1    O3 3703   2.170   6.859   5.634  0.3566 -0.4291  0.1295
   51CHL1   H3' 3704   2.184   6.765   5.622 -2.3559 -0.8476 -0.6135
   51CHL1    C4 3705   2.259   6.746   5.830 -0.1074 -0.1972  0.5313
   51CHL1   H4A 3706   2.228   6.656   5.772 -0.5682  1.2453 -1.6212
   51CHL1   H4B 3707   2.367   6.761   5.807  0.1105 -1.9475  0.2468
   51CHL1    C5 3708   2.241   6.736   5.977  0.4432  1.5700  0.9165
   51CHL1    C6 3709   2.345   6.750   6.054 -0.1973 -0.4259 -0.9067
   51CHL1    H6 3710   2.443   6.773   6.010  0.7931 -0.9517  0.9430
   51CHL1    C7 3711   2.343   6.742   6.210  0.3586  0.4980  0.0471
   51CHL1   H7A 3712   2.406   6.657   6.244 -0.7673 -0.5295 -0.3777
   51CHL1   H7B 3713   2.377   6.837   6.256 -1.5930  0.5208  1.5757
   51CHL1    C8 3714   2.206   6.695   6.262 -0.3974  0.2224 -0.6391
   51CHL1    H8 3715   2.210   6.586   6.241  0.6971  0.1390 -0.0772
   51CHL1   C14 3716   2.184   6.715   6.412 -0.0468  0.8670 -1.2876
   51CHL1   H14 3717   2.187   6.823   6.438  0.5741  0.7538 -0.8727
   51CHL1   C15 3718   2.291   6.660   6.516 -0.4379  0.1627 -0.1227
   51CHL1  H15A 3719   2.331   6.558   6.500  2.3915  0.5669  3.2127
   51CHL1  H15B 3720   2.390   6.708   6.530  0.1660 -1.7727  3.1013
   51CHL1   C16 3721   2.216   6.652   6.644 -0.1363 -0.1907  0.6213
   51CHL1  H16A 3722   2.217   6.548   6.684 -0.7827 -0.0077  1.1345
   51CHL1  H16B 3723   2.249   6.731   6.715  1.1733 -0.2232  0.0841
   51CHL1   C17 3724   2.070   6.678   6.619 -0.6426 -0.4229 -0.1039
   51CHL1   H17 3725   2.057   6.787   6.636  0.2525 -0.3307  0.0035
   51CHL1   C13 3726   2.044   6.659   6.465  0.2786  0.2157  0.0338
   51CHL1   C18 3727   2.032   6.501   6.440 -0.4747 -0.4013 -0.1290
   51CHL1  H18A 3728   2.103   6.445   6.505 -1.9422 -0.3298  1.6288
   51CHL1  H18B 3729   1.942   6.455   6.487  0.1035  0.1428  1.5909
   51CHL1  H18C 3730   2.046   6.477   6.332  0.9561 -0.3283  0.0312
   51CHL1   C12 3731   1.936   6.738   6.392 -1.1326  0.3159 -0.6203
   51CHL1  H12A 3732   1.831   6.708   6.417 -0.3214 -0.5498  2.1063
   51CHL1  H12B 3733   1.956   6.845   6.411  1.2516 -0.3660  1.1334
   51CHL1   C11 3734   1.951   6.721   6.236 -1.1069 -0.0464 -0.4580
   51CHL1  H11A 3735   1.914   6.617   6.224 -0.4814 -0.8073  3.1866
   51CHL1  H11B 3736   1.873   6.788   6.193 -0.4855 -0.0924 -1.7067
   51CHL1    C9 3737   2.089   6.752   6.182  0.7934  0.2570  0.2453
   51CHL1    H9 3738   2.103   6.861   6.198  1.9476  0.1319  0.2263
   51CHL1   C10 3739   2.093   6.725   6.027 -0.3487  0.2666  0.6266
   51CHL1   C19 3740   2.043   6.581   5.996  0.2074  0.1584  0.8714
   51CHL1  H19A 3741   1.937   6.571   6.029  0.2786 -0.7441  0.8466
   51CHL1  H19B 3742   2.042   6.569   5.885 -4.1929 -1.4357  0.8742
   51CHL1  H19C 3743   2.101   6.499   6.042  0.4210 -0.4374 -0.4186
   51CHL1    C1 3744   2.000   6.828   5.957  0.8668 -0.3864  0.2319
   51CHL1   H1A 3745   1.892   6.810   5.975  0.0599  0.1219 -3.2540
   51CHL1   H1B 3746   2.013   6.932   5.992  0.0172 -0.6182  1.2767
   51CHL1    C2 3747   2.025   6.842   5.801 -0.8033  0.5874  0.3207
   51CHL1   H2A 3748   1.958   6.918   5.755 -2.4463  0.3537  2.1881
   51CHL1   H2B 3749   1.988   6.746   5.758 -0.3109 -0.0366  1.2515
   51CHL1   C20 3750   1.974   6.608   6.710  1.1396  0.4343 -0.1535
   51CHL1   H20 3751   1.985   6.500   6.688  0.1204  0.4997 -1.0592
   51CHL1   C21 3752   1.830   6.655   6.690  0.3452  0.0207 -0.3233
   51CHL1  H21A 3753   1.770   6.611   6.772 -0.7526 -1.4801 -1.8528
   51CHL1  H21B 3754   1.782   6.619   6.597 -0.6823 -1.4181  0.7213
   51CHL1  H21C 3755   1.831   6.766   6.681 -2.0589  0.0834 -0.3264
   51CHL1   C22 3756   2.022   6.633   6.859  0.0165  0.6365 -0.3716
   51CHL1  H22A 3757   2.123   6.592   6.881 -0.8626 -2.0535 -1.0147
   51CHL1  H22B 3758   2.010   6.743   6.873 -0.8487  0.5510 -0.4043
   51CHL1   C23 3759   1.946   6.566   6.973  0.2601 -0.2620 -0.5379
   51CHL1  H23A 3760   1.845   6.609   6.957  0.8328  0.8695 -1.2595
   51CHL1  H23B 3761   1.934   6.456   6.957  1.0868 -0.4515  0.1025
   51CHL1   C24 3762   2.007   6.602   7.109  0.7272  0.9464 -0.6433
   51CHL1  H24A 3763   2.117   6.601   7.099  0.9796 -0.7891  1.5661
   51CHL1  H24B 3764   1.977   6.703   7.145  0.5856  0.1577  1.5970
   51CHL1   C25 3765   1.952   6.496   7.223 -0.2297  0.1528 -0.5544
   51CHL1   H25 3766   1.995   6.395   7.204 -0.6496  0.2045 -1.8877
   51CHL1   C26 3767   1.993   6.561   7.361 -0.1827  0.0576  0.3100
   51CHL1  H26A 3768   1.978   6.493   7.448 -1.8565 -0.3987 -0.2825
   51CHL1  H26B 3769   2.103   6.574   7.351 -0.0430 -0.5308  1.0555
   51CHL1  H26C 3770   1.944   6.658   7.385  2.0749  0.9427  1.5682
   51CHL1   C27 3771   1.799   6.481   7.229 -0.5546 -1.2261  0.1929
   51CHL1  H27A 3772   1.752   6.440   7.137  1.7562  2.0160 -2.7444
   51CHL1  H27B 3773   1.770   6.427   7.321  2.5262 -2.0337  0.8097
   51CHL1  H27C 3774   1.756   6.582   7.242  0.4844 -0.4235 -1.9905
   52CHL1    C3 3775   6.298   0.998   5.822  0.3262 -0.9348  0.4046
   52CHL1    H3 3776   6.199   0.977   5.778  1.6795 -2.0095 -2.3401
   52CHL1    O3 3777   6.390   1.007   5.715  0.2061  1.0327 -0.3766
   52CHL1   H3' 3778   6.481   1.007   5.746  0.3266  0.1821 -0.6884
   52CHL1    C4 3779   6.285   1.128   5.902 -0.1575 -0.0098  0.5205
   52CHL1   H4A 3780   6.382   1.168   5.938 -0.9037  1.0821  1.3693
   52CHL1   H4B 3781   6.254   1.206   5.828  0.0914 -0.4976 -0.1119
   52CHL1    C5 3782   6.184   1.116   6.019 -0.1255  0.4913  0.1005
   52CHL1    C6 3783   6.080   1.197   6.036  0.2120  0.2840 -0.1841
   52CHL1    H6 3784   6.067   1.283   5.969 -0.3698  0.6119  0.3403
   52CHL1    C7 3785   5.987   1.193   6.156 -0.1808 -0.2339 -0.7329
   52CHL1   H7A 3786   5.957   1.295   6.190 -0.7192 -0.9520  1.0525
   52CHL1   H7B 3787   5.900   1.133   6.122  0.4472 -1.5348 -0.0914
   52CHL1    C8 3788   6.052   1.123   6.279  0.8923  0.3860 -0.2135
   52CHL1    H8 3789   6.134   1.181   6.326  1.8666  0.7948 -2.3256
   52CHL1   C14 3790   5.946   1.107   6.386  0.1617 -0.0261  0.3623
   52CHL1   H14 3791   5.866   1.053   6.331  0.1815  1.7908 -1.6058
   52CHL1   C15 3792   5.871   1.227   6.445 -0.1420 -0.1345  0.8259
   52CHL1  H15A 3793   5.945   1.303   6.478  1.1361 -0.6021 -0.8483
   52CHL1  H15B 3794   5.816   1.278   6.362  2.4344 -2.2167 -2.4362
   52CHL1   C16 3795   5.802   1.166   6.567 -0.4811 -0.5357 -0.1584
   52CHL1  H16A 3796   5.842   1.231   6.648  0.6613 -0.4549 -0.7630
   52CHL1  H16B 3797   5.692   1.180   6.557 -0.7262 -1.6822  0.6945
   52CHL1   C17 3798   5.857   1.022   6.589 -0.3759 -0.0590  0.3471
   52CHL1   H17 3799   5.774   0.970   6.537  0.5292  0.7208 -2.0603
   52CHL1   C13 3800   5.993   1.021   6.503  0.1688 -0.0113 -0.2896
   52CHL1   C18 3801   6.108   1.084   6.583  0.0013  0.4395  0.5708
   52CHL1  H18A 3802   6.189   1.112   6.512 -0.1220 -1.1632 -0.2570
   52CHL1  H18B 3803   6.071   1.170   6.643 -0.5443  0.2899  0.4577
   52CHL1  H18C 3804   6.157   1.016   6.655  1.6574  1.7192  0.7132
   52CHL1   C12 3805   6.025   0.889   6.449  0.1047  0.3809  0.8763
   52CHL1  H12A 3806   6.060   0.808   6.516 -1.6672 -2.5113 -1.4496
   52CHL1  H12B 3807   5.936   0.839   6.406  1.4189 -0.7690 -0.6308
   52CHL1   C11 3808   6.136   0.896   6.343  0.2906 -0.5734 -0.6658
   52CHL1  H11A 3809   6.229   0.924   6.396 -0.5761 -0.3566  0.8028
   52CHL1  H11B 3810   6.156   0.792   6.309 -0.1623  0.0377 -3.0070
   52CHL1    C9 3811   6.106   0.991   6.229 -0.2411  0.1129 -0.3704
   52CHL1    H9 3812   6.021   0.945   6.174 -0.2134 -0.7846  0.2976
   52CHL1   C10 3813   6.215   1.007   6.126 -0.2231  0.8528  0.3486
   52CHL1   C19 3814   6.356   1.038   6.186  0.0790  0.3024 -0.1351
   52CHL1  H19A 3815   6.341   1.132   6.244 -1.0192  0.2186 -0.2601
   52CHL1  H19B 3816   6.385   0.952   6.250 -1.3996  0.5362  0.9266
   52CHL1  H19C 3817   6.443   1.057   6.121 -0.3004  1.4511 -0.3299
   52CHL1    C1 3818   6.228   0.878   6.030 -0.0889  0.0596  0.7376
   52CHL1   H1A 3819   6.250   0.792   6.097 -0.4889 -0.6086  0.0247
   52CHL1   H1B 3820   6.130   0.857   5.983 -0.1549 -1.0864  1.3355
   52CHL1    C2 3821   6.329   0.887   5.921 -0.4299 -0.0822  0.4284
   52CHL1   H2A 3822   6.331   0.794   5.859 -0.7259  0.0851  0.1631
   52CHL1   H2B 3823   6.434   0.899   5.955  0.4943 -0.7706 -1.9106
   52CHL1   C20 3824   5.863   0.986   6.738 -0.3084  0.0325 -0.5023
   52CHL1   H20 3825   5.926   1.059   6.793 -2.7469  0.0597  2.5326
   52CHL1   C21 3826   5.927   0.850   6.755 -0.0772  0.3027  0.0003
   52CHL1  H21A 3827   6.034   0.861   6.727  0.2235 -0.2543  0.8951
   52CHL1  H21B 3828   5.876   0.773   6.693 -1.6959  1.9563 -0.8339
   52CHL1  H21C 3829   5.912   0.817   6.860  2.1524 -1.1663 -0.0887
   52CHL1   C22 3830   5.719   0.986   6.800  0.5447  0.1431  0.5329
   52CHL1  H22A 3831   5.674   1.081   6.768 -2.0631 -1.2059 -0.0871
   52CHL1  H22B 3832   5.664   0.898   6.760  0.3697  0.3802  0.2493
   52CHL1   C23 3833   5.714   0.974   6.950  0.0613 -0.2081  0.8056
   52CHL1  H23A 3834   5.769   0.886   6.992 -1.0697 -1.0714  0.5305
   52CHL1  H23B 3835   5.774   1.062   6.983  1.6545 -0.3621 -1.4438
   52CHL1   C24 3836   5.575   0.978   7.005 -0.1509 -0.1668 -0.3960
   52CHL1  H24A 3837   5.520   1.068   6.969  1.7369  0.9354 -0.6874
   52CHL1  H24B 3838   5.528   0.882   6.976 -1.1930  0.0363  0.5526
   52CHL1   C25 3839   5.580   0.981   7.157  0.4852 -0.2026 -0.3451
   52CHL1   H25 3840   5.656   0.909   7.194  0.7175 -0.2731 -0.9547
   52CHL1   C26 3841   5.614   1.120   7.211 -0.0129 -0.3007  1.0484
   52CHL1  H26A 3842   5.702   1.158   7.154 -1.5117  2.1466  0.2110
   52CHL1  H26B 3843   5.538   1.198   7.189  1.1258  0.1312 -1.7257
   52CHL1  H26C 3844   5.636   1.120   7.320 -0.8536 -2.7118  1.2858
   52CHL1   C27 3845   5.441   0.930   7.214  0.3955  0.4550  0.3308
   52CHL1  H27A 3846   5.434   0.957   7.322 -1.0812  0.1015  0.3467
   52CHL1  H27B 3847   5.363   0.974   7.148  0.8532 -0.1401 -0.6218
   52CHL1  H27C 3848   5.433   0.820   7.206  0.0793  0.5183 -0.3246
   53CHL1    C3 3849   6.608   6.350   6.144  0.5104  0.5280 -0.1584
   53CHL1    H3 3850   6.514   6.409   6.142 -1.5418 -2.4459 -2.8933
   53CHL1    O3 3851   6.671   6.350   6.016 -0.1013 -0.1245  0.0440
   53CHL1   H3' 3852   6.741   6.285   6.018  1.1095  1.1491  0.4552
   53CHL1    C4 3853   6.716   6.385   6.251  0.3095 -0.3217 -0.7570
   53CHL1   H4A 3854   6.800   6.313   6.239  0.5029  0.0377 -1.6416
   53CHL1   H4B 3855   6.754   6.488   6.233 -2.9429  1.1516 -0.0475
   53CHL1    C5 3856   6.664   6.372   6.399  0.3448  0.1484 -0.1446
   53CHL1    C6 3857   6.674   6.476   6.480 -0.3220  0.2252 -0.2187
   53CHL1    H6 3858   6.716   6.573   6.451 -2.1147  0.7379 -1.2721
   53CHL1    C7 3859   6.633   6.470   6.623  0.2585  0.0959 -0.3226
   53CHL1   H7A 3860   6.706   6.500   6.702 -0.2582  0.1737  0.1363
   53CHL1   H7B 3861   6.547   6.541   6.629  0.5371  0.3454  1.7705
   53CHL1    C8 3862   6.582   6.328   6.671  0.7644 -0.4721 -0.5103
   53CHL1    H8 3863   6.665   6.257   6.690 -0.6676 -1.7468  1.3668
   53CHL1   C14 3864   6.494   6.341   6.794  0.9064  0.3917  0.1111
   53CHL1   H14 3865   6.410   6.402   6.755  0.3100  0.5501  1.5733
   53CHL1   C15 3866   6.532   6.414   6.921 -0.1416  0.4118  0.0558
   53CHL1  H15A 3867   6.639   6.414   6.951 -0.1991 -0.4349  0.2965
   53CHL1  H15B 3868   6.507   6.522   6.919  3.1744  1.3225  1.4425
   53CHL1   C16 3869   6.444   6.343   7.027  0.1429  0.1608  0.4404
   53CHL1  H16A 3870   6.508   6.288   7.100 -0.4973 -0.6227  0.4197
   53CHL1  H16B 3871   6.396   6.425   7.085 -0.1170  0.0195  0.4233
   53CHL1   C17 3872   6.344   6.244   6.958 -0.1457 -0.2826  0.0600
   53CHL1   H17 3873   6.261   6.307   6.918 -1.9852 -4.0323 -2.5924
   53CHL1   C13 3874   6.428   6.204   6.839  0.8497  0.0612 -0.9318
   53CHL1   C18 3875   6.535   6.101   6.873  0.7414 -0.3166  0.1710
   53CHL1  H18A 3876   6.600   6.144   6.954 -2.5890 -1.2812  3.6502
   53CHL1  H18B 3877   6.487   6.012   6.918 -2.0658  0.7080 -0.6054
   53CHL1  H18C 3878   6.599   6.073   6.787 -1.3506 -0.1355 -1.5092
   53CHL1   C12 3879   6.347   6.146   6.720 -0.5968 -0.2284 -0.0486
   53CHL1  H12A 3880   6.310   6.045   6.748 -0.6962 -0.3797 -0.7032
   53CHL1  H12B 3881   6.260   6.213   6.700  1.1939  2.4679  0.6496
   53CHL1   C11 3882   6.431   6.126   6.593 -0.3833  0.1550 -0.2136
   53CHL1  H11A 3883   6.496   6.037   6.603 -0.6727 -0.0733 -0.3401
   53CHL1  H11B 3884   6.348   6.105   6.521  0.4900 -1.2914 -0.8461
   53CHL1    C9 3885   6.500   6.258   6.559 -0.4016 -0.1285 -0.1874
   53CHL1    H9 3886   6.412   6.322   6.534 -1.6798 -1.7753 -0.0759
   53CHL1   C10 3887   6.592   6.241   6.428  0.8577 -0.3231  1.1952
   53CHL1   C19 3888   6.697   6.132   6.459 -0.3097  0.1665 -0.0351
   53CHL1  H19A 3889   6.782   6.132   6.387 -2.7368 -0.7843 -3.1702
   53CHL1  H19B 3890   6.744   6.142   6.559 -1.7910  0.1242  0.6957
   53CHL1  H19C 3891   6.660   6.028   6.464 -0.5583  0.3039  1.5102
   53CHL1    C1 3892   6.499   6.192   6.311 -0.3296  0.1506  0.0280
   53CHL1   H1A 3893   6.490   6.083   6.326 -1.3634 -0.3044 -3.1261
   53CHL1   H1B 3894   6.399   6.241   6.321 -0.3446  0.1086  0.0795
   53CHL1    C2 3895   6.555   6.204   6.164 -0.1674 -0.6760  0.0066
   53CHL1   H2A 3896   6.477   6.174   6.091 -0.9878  2.7486 -0.7110
   53CHL1   H2B 3897   6.650   6.148   6.154  1.8587  1.8153  3.2429
   53CHL1   C20 3898   6.294   6.136   7.065  0.3074 -0.0412  0.1378
   53CHL1   H20 3899   6.372   6.059   7.086 -0.6222 -1.0148  0.0942
   53CHL1   C21 3900   6.175   6.055   7.007  0.1125 -0.1106 -0.3249
   53CHL1  H21A 3901   6.194   6.017   6.904  1.1604 -0.3337 -0.0545
   53CHL1  H21B 3902   6.087   6.123   6.997 -1.0774 -1.6021 -0.4135
   53CHL1  H21C 3903   6.135   5.976   7.074  0.2744 -0.4553 -0.6300
   53CHL1   C22 3904   6.247   6.204   7.197 -0.6434  0.0201 -0.0256
   53CHL1  H22A 3905   6.332   6.264   7.235 -0.4028 -1.1437  1.3381
   53CHL1  H22B 3906   6.160   6.269   7.171 -2.9863 -3.0744 -0.4859
   53CHL1   C23 3907   6.217   6.113   7.306  0.9777  0.6255 -0.6105
   53CHL1  H23A 3908   6.124   6.055   7.285  1.2447  0.5083 -1.5008
   53CHL1  H23B 3909   6.299   6.038   7.315 -1.3545 -1.9452  0.8353
   53CHL1   C24 3910   6.203   6.180   7.442  0.6976 -0.2337 -0.1625
   53CHL1  H24A 3911   6.181   6.113   7.528  0.3551  3.0897  2.5703
   53CHL1  H24B 3912   6.301   6.229   7.460  0.5536  0.5094 -1.3618
   53CHL1   C25 3913   6.086   6.275   7.471 -0.5820  0.1383  0.2065
   53CHL1   H25 3914   6.092   6.356   7.394 -3.2115 -1.9620 -2.4539
   53CHL1   C26 3915   5.944   6.215   7.441  0.3059 -0.5167  0.2355
   53CHL1  H26A 3916   5.901   6.135   7.506 -0.4886 -1.2312 -1.1262
   53CHL1  H26B 3917   5.870   6.297   7.432 -0.8279 -1.5319  0.0022
   53CHL1  H26C 3918   5.936   6.166   7.342 -1.1365 -1.5968  0.8535
   53CHL1   C27 3919   6.098   6.335   7.610  0.8165  0.7329 -0.0400
   53CHL1  H27A 3920   6.014   6.402   7.640  1.7303  1.6998  0.4555
   53CHL1  H27B 3921   6.093   6.247   7.677 -0.1482 -0.1269 -1.1990
   53CHL1  H27C 3922   6.196   6.382   7.631  1.8298 -2.2829  2.8012
   54CHL1    C3 3923   0.888   6.342   5.886  0.0838 -0.1748 -0.8264
   54CHL1    H3 3924   0.864   6.240   5.848  0.3539 -0.1658 -1.0263
   54CHL1    O3 3925   0.877   6.433   5.780 -0.4538 -0.1242 -0.0628
   54CHL1   H3' 3926   0.868   6.513   5.832 -0.3384 -0.7920  1.0190
   54CHL1    C4 3927   0.784   6.368   5.997  0.1333 -0.3113  0.1750
   54CHL1   H4A 3928   0.784   6.471   6.038  1.4318  0.2165 -1.0591
   54CHL1   H4B 3929   0.693   6.349   5.936  0.1052 -0.3282  0.2220
   54CHL1    C5 3930   0.800   6.261   6.105  0.0706  0.5459 -0.7809
   54CHL1    C6 3931   0.694   6.183   6.138  0.1956  0.0123  0.0896
   54CHL1    H6 3932   0.594   6.198   6.094 -1.6968 -2.5612  3.0102
   54CHL1    C7 3933   0.704   6.084   6.253 -0.0172  0.3034 -0.1573
   54CHL1   H7A 3934   0.605   6.081   6.304 -1.5745 -1.5531 -3.0439
   54CHL1   H7B 3935   0.709   5.984   6.205 -0.7392  0.1436  0.0898
   54CHL1    C8 3936   0.816   6.108   6.356 -0.1666  0.4834  0.6785
   54CHL1    H8 3937   0.796   6.199   6.415 -1.3072  0.3328  0.5393
   54CHL1   C14 3938   0.825   5.985   6.454 -0.6979  0.9481 -0.8131
   54CHL1   H14 3939   0.869   5.901   6.395  3.5919  1.0011  1.8433
   54CHL1   C15 3940   0.700   5.933   6.534 -0.2963  0.1688  0.5735
   54CHL1  H15A 3941   0.636   6.016   6.571 -0.2287  1.0179 -1.1041
   54CHL1  H15B 3942   0.646   5.860   6.470  0.0681  1.5354 -1.3934
   54CHL1   C16 3943   0.766   5.857   6.656  0.0338 -0.2349 -0.6082
   54CHL1  H16A 3944   0.740   5.905   6.753 -1.3728 -1.9147 -0.0933
   54CHL1  H16B 3945   0.759   5.748   6.678  3.6758 -0.8829 -1.8474
   54CHL1   C17 3946   0.920   5.866   6.634  0.0589 -0.3729  0.4571
   54CHL1   H17 3947   0.939   5.790   6.556 -0.9524  1.3200 -1.5310
   54CHL1   C13 3948   0.941   6.003   6.555  0.0349  0.5182  0.4214
   54CHL1   C18 3949   0.921   6.116   6.656 -0.3808  0.6760  0.9171
   54CHL1  H18A 3950   0.888   6.211   6.610 -2.1762 -0.4824 -0.3273
   54CHL1  H18B 3951   0.851   6.076   6.733 -1.7795 -0.2416 -0.7621
   54CHL1  H18C 3952   1.018   6.133   6.707  0.2651 -0.7380  0.2183
   54CHL1   C12 3953   1.077   6.017   6.481  0.7031 -0.1631 -0.0736
   54CHL1  H12A 3954   1.155   6.031   6.558  0.6168  0.7786 -0.1510
   54CHL1  H12B 3955   1.107   5.933   6.414  0.7429  0.7600 -1.2551
   54CHL1   C11 3956   1.064   6.137   6.385 -0.5561 -0.6158  0.4846
   54CHL1  H11A 3957   1.049   6.229   6.446  0.7204 -0.4272  0.5428
   54CHL1  H11B 3958   1.162   6.153   6.335 -0.2457 -1.4729  0.8017
   54CHL1    C9 3959   0.949   6.122   6.279  0.2395 -0.4320 -0.5951
   54CHL1    H9 3960   0.967   6.030   6.219 -0.0533  0.5270 -2.2126
   54CHL1   C10 3961   0.943   6.243   6.177 -0.3989 -0.7103  0.2589
   54CHL1   C19 3962   0.975   6.381   6.250  0.0205 -0.4318  0.0918
   54CHL1  H19A 3963   0.916   6.394   6.343  0.9487 -0.5212  0.7106
   54CHL1  H19B 3964   1.082   6.375   6.278 -0.0299  1.2148  0.7672
   54CHL1  H19C 3965   0.959   6.470   6.184  1.0428 -1.0337 -1.0173
   54CHL1    C1 3966   1.040   6.223   6.058 -0.3847  0.1823  0.1335
   54CHL1   H1A 3967   1.142   6.228   6.101 -0.0032  1.2776 -0.8579
   54CHL1   H1B 3968   1.026   6.130   5.998 -0.2873  0.0975  0.2399
   54CHL1    C2 3969   1.027   6.339   5.951 -0.1737 -0.3809 -0.0510
   54CHL1   H2A 3970   1.103   6.328   5.871 -2.4200 -0.0249 -2.3452
   54CHL1   H2B 3971   1.031   6.439   6.000 -2.9693  1.3603 -3.0113
   54CHL1   C20 3972   1.026   5.841   6.739  0.0367  0.2074 -0.2525
   54CHL1   H20 3973   1.128   5.869   6.704 -0.0565 -0.6198 -1.2203
   54CHL1   C21 3974   1.046   5.684   6.736  0.5456 -0.3848  0.0280
   54CHL1  H21A 3975   0.951   5.639   6.772  0.4833  0.1897  0.6077
   54CHL1  H21B 3976   1.136   5.643   6.786  0.1486 -2.5310 -0.9177
   54CHL1  H21C 3977   1.058   5.656   6.629 -0.3219  2.2392 -0.8389
   54CHL1   C22 3978   1.006   5.888   6.887  0.3984 -0.0621 -0.2696
   54CHL1  H22A 3979   0.973   5.994   6.892  3.1143  0.8301  2.3339
   54CHL1  H22B 3980   0.929   5.826   6.936  0.6341  1.1518  1.7564
   54CHL1   C23 3981   1.136   5.876   6.974  0.5015 -0.0053 -0.2113
   54CHL1  H23A 3982   1.168   5.769   6.972 -0.2163 -0.3492  2.8484
   54CHL1  H23B 3983   1.214   5.938   6.925 -0.8178  1.4443 -0.5716
   54CHL1   C24 3984   1.125   5.919   7.121 -0.8763  0.6901 -0.2428
   54CHL1  H24A 3985   1.213   5.887   7.182 -2.0949 -1.9919  0.2952
   54CHL1  H24B 3986   1.122   6.030   7.115 -0.3010  0.6722 -0.8419
   54CHL1   C25 3987   1.004   5.852   7.198 -0.1387  0.5952  0.0473
   54CHL1   H25 3988   0.905   5.874   7.153  0.0013  1.4504  0.1285
   54CHL1   C26 3989   1.021   5.699   7.203 -0.2457  0.0860  0.3989
   54CHL1  H26A 3990   0.941   5.647   7.260 -0.6623 -0.7131 -0.8805
   54CHL1  H26B 3991   1.022   5.656   7.101 -0.8065 -1.7548  1.1335
   54CHL1  H26C 3992   1.119   5.666   7.243  0.4472 -1.5014 -2.3618
   54CHL1   C27 3993   0.997   5.914   7.347  1.1410  0.2861 -0.1938
   54CHL1  H27A 3994   1.013   6.024   7.340  2.0440  0.3059  1.6483
   54CHL1  H27B 3995   0.907   5.894   7.408  3.3176 -0.5876  2.9823
   54CHL1  H27C 3996   1.080   5.873   7.408  1.2619  0.9307  0.0895
   55CHL1    C3 3997   0.452   1.941   6.085  0.0398 -0.3278  0.1442
   55CHL1    H3 3998   0.407   2.043   6.081  1.9169  0.4996 -1.2479
   55CHL1    O3 3999   0.485   1.906   5.954  0.3464  0.0713  0.0732
   55CHL1   H3' 4000   0.397   1.921   5.919 -0.3988 -0.9752  1.4033
   55CHL1    C4 4001   0.582   1.944   6.169 -0.5812  0.5821  0.2483
   55CHL1   H4A 4002   0.637   1.848   6.163 -0.3264  0.8008 -1.0977
   55CHL1   H4B 4003   0.637   2.024   6.115 -0.1819  0.5587  0.6109
   55CHL1    C5 4004   0.578   1.974   6.317  0.6707  0.1022 -0.1578
   55CHL1    C6 4005   0.657   2.061   6.380  0.6515  0.5268 -0.0968
   55CHL1    H6 4006   0.748   2.093   6.327  1.0805 -0.2390  0.1595
   55CHL1    C7 4007   0.637   2.092   6.519 -0.0174  0.8896  0.2714
   55CHL1   H7A 4008   0.736   2.078   6.567 -0.1467 -1.0528  0.0462
   55CHL1   H7B 4009   0.609   2.200   6.521 -1.4370  0.5635  2.7501
   55CHL1    C8 4010   0.529   2.012   6.603 -0.9779  0.3573  0.1869
   55CHL1    H8 4011   0.568   1.910   6.622 -2.7132 -0.5425 -0.8613
   55CHL1   C14 4012   0.487   2.087   6.732  0.3345 -0.1136 -0.5636
   55CHL1   H14 4013   0.437   2.179   6.697  0.8199 -0.7566 -3.1591
   55CHL1   C15 4014   0.593   2.127   6.832  0.5234  0.7456 -0.2599
   55CHL1  H15A 4015   0.666   2.049   6.863  0.3748  1.4421  2.0042
   55CHL1  H15B 4016   0.658   2.202   6.783  0.9077  1.1481  0.8368
   55CHL1   C16 4017   0.508   2.169   6.951 -0.2299 -0.4521 -0.1562
   55CHL1  H16A 4018   0.556   2.135   7.045 -0.8359 -1.0073 -0.0353
   55CHL1  H16B 4019   0.494   2.279   6.956 -3.1657 -0.6420 -1.9296
   55CHL1   C17 4020   0.363   2.124   6.927  0.2854 -0.5702  0.2187
   55CHL1   H17 4021   0.309   2.210   6.881  1.2379 -0.0872 -0.0273
   55CHL1   C13 4022   0.377   2.012   6.813 -0.4461  0.2949 -0.3605
   55CHL1   C18 4023   0.424   1.878   6.866  0.2736 -0.0379  0.2859
   55CHL1  H18A 4024   0.504   1.885   6.944 -0.0871 -1.3254  0.7865
   55CHL1  H18B 4025   0.344   1.813   6.907  1.3735 -0.4378  1.8865
   55CHL1  H18C 4026   0.475   1.825   6.783  0.3805  0.9698 -0.3072
   55CHL1   C12 4027   0.259   2.000   6.715 -0.1032  0.1547  0.0634
   55CHL1  H12A 4028   0.171   1.941   6.749  0.4765 -1.6013 -1.3015
   55CHL1  H12B 4029   0.230   2.104   6.689 -0.9617  0.0768  0.7042
   55CHL1   C11 4030   0.296   1.915   6.584 -0.2236  0.6919 -0.6835
   55CHL1  H11A 4031   0.316   1.811   6.618  0.4002  1.2432  0.7122
   55CHL1  H11B 4032   0.199   1.911   6.529 -1.3245  0.6813  1.1634
   55CHL1    C9 4033   0.410   1.981   6.507  0.2261  0.1169 -0.6595
   55CHL1    H9 4034   0.374   2.085   6.489 -1.0314 -0.0826  0.4986
   55CHL1   C10 4035   0.451   1.906   6.382  0.5238 -0.2054 -0.1619
   55CHL1   C19 4036   0.485   1.751   6.410 -0.1633  0.0940 -0.5122
   55CHL1  H19A 4037   0.389   1.704   6.443 -0.0911 -0.3342 -0.8958
   55CHL1  H19B 4038   0.528   1.701   6.321 -1.7587 -1.5048 -0.4576
   55CHL1  H19C 4039   0.556   1.738   6.494  1.4804  0.6725 -1.7752
   55CHL1    C1 4040   0.322   1.904   6.293 -0.4050  0.6654 -0.3379
   55CHL1   H1A 4041   0.244   1.839   6.338 -0.3978 -0.6704 -2.1492
   55CHL1   H1B 4042   0.285   2.008   6.279  2.4216  1.6527 -1.1912
   55CHL1    C2 4043   0.352   1.848   6.151  0.4509  0.0137  0.4523
   55CHL1   H2A 4044   0.252   1.857   6.102  1.5564  2.6013 -1.6346
   55CHL1   H2B 4045   0.397   1.747   6.153  0.7168  0.1407  0.8943
   55CHL1   C20 4046   0.276   2.074   7.048 -0.0654 -0.4184  0.2591
   55CHL1   H20 4047   0.334   1.985   7.080 -1.0906 -1.5185 -0.8245
   55CHL1   C21 4048   0.129   2.045   7.007 -0.6539  0.4346  0.0363
   55CHL1  H21A 4049   0.121   1.945   6.959  2.9014 -0.2126  0.5001
   55CHL1  H21B 4050   0.101   2.122   6.933  0.1346 -0.0957 -0.8394
   55CHL1  H21C 4051   0.070   2.062   7.100  2.8933  2.9634  2.0848
   55CHL1   C22 4052   0.281   2.181   7.159  0.1083 -0.9885 -0.3884
   55CHL1  H22A 4053   0.379   2.233   7.160  0.5683 -1.8071 -1.4173
   55CHL1  H22B 4054   0.220   2.273   7.149  1.7178  0.4047  1.6321
   55CHL1   C23 4055   0.264   2.123   7.308 -0.7211 -0.0320  0.0684
   55CHL1  H23A 4056   0.170   2.067   7.329 -0.2066 -1.1078 -0.4389
   55CHL1  H23B 4057   0.349   2.052   7.308 -2.5461 -2.3319  0.0904
   55CHL1   C24 4058   0.295   2.241   7.409 -0.2311 -0.1634  0.0723
   55CHL1  H24A 4059   0.397   2.283   7.395  0.0270 -0.7647  0.1173
   55CHL1  H24B 4060   0.217   2.316   7.384  0.0699  0.4987  1.0717
   55CHL1   C25 4061   0.276   2.197   7.548  0.4706 -0.2950  0.2220
   55CHL1   H25 4062   0.330   2.101   7.561  1.8189  0.5012  0.7211
   55CHL1   C26 4063   0.344   2.295   7.643 -0.4352  0.0789 -0.7133
   55CHL1  H26A 4064   0.440   2.337   7.608  0.9512 -0.6002  1.9995
   55CHL1  H26B 4065   0.275   2.379   7.662 -0.3672 -0.4333  2.4002
   55CHL1  H26C 4066   0.361   2.261   7.748  0.6109  1.8724 -0.2634
   55CHL1   C27 4067   0.129   2.176   7.584  0.3704  0.6174  0.3086
   55CHL1  H27A 4068   0.080   2.093   7.528 -0.0872  0.5463  0.8026
   55CHL1  H27B 4069   0.121   2.144   7.691  1.7329 -0.3794  0.1466
   55CHL1  H27C 4070   0.063   2.262   7.561 -0.4649 -0.9568 -4.0373
   56CHL1    C3 4071   0.277   0.180   6.139  0.0029  0.4805  0.0327
   56CHL1    H3 4072   0.182   0.187   6.083  0.7752 -0.4673 -1.4760
   56CHL1    O3 4073   0.373   0.176   6.030  0.3638  0.7032 -0.4225
   56CHL1   H3' 4074   0.439   0.113   6.059  1.0598  1.3457 -0.6047
   56CHL1    C4 4075   0.309   0.293   6.233 -0.5267  0.4895 -0.4126
   56CHL1   H4A 4076   0.406   0.276   6.282 -0.9432 -0.2765  0.1563
   56CHL1   H4B 4077   0.314   0.396   6.190 -2.4507  0.6826 -0.2726
   56CHL1    C5 4078   0.210   0.289   6.348 -0.1795  0.2411 -0.7190
   56CHL1    C6 4079   0.122   0.389   6.364  0.8605  0.1066  0.1982
   56CHL1    H6 4080   0.130   0.485   6.309 -1.2830  0.6812  0.7750
   56CHL1    C7 4081   0.034   0.400   6.485 -0.1415  0.6360 -0.6718
   56CHL1   H7A 4082   0.040   0.500   6.533 -2.5827  0.0353  1.0886
   56CHL1   H7B 4083  -0.074   0.405   6.458 -0.2328 -1.5115 -0.8895
   56CHL1    C8 4084   0.055   0.288   6.588 -0.6097  0.0432  0.2469
   56CHL1    H8 4085   0.143   0.318   6.649 -0.0517 -0.4699 -0.2922
   56CHL1   C14 4086  -0.073   0.283   6.676 -0.8038 -0.7568 -0.1161
   56CHL1   H14 4087  -0.160   0.261   6.611 -0.6179 -2.5674  0.1786
   56CHL1   C15 4088  -0.119   0.406   6.750  0.1129 -0.0806  0.1775
   56CHL1  H15A 4089  -0.039   0.462   6.803 -1.0371  1.8430 -0.0069
   56CHL1  H15B 4090  -0.151   0.482   6.674 -0.0447 -0.8478 -0.5363
   56CHL1   C16 4091  -0.216   0.357   6.860 -0.8634  0.0610 -0.1030
   56CHL1  H16A 4092  -0.190   0.394   6.961  0.8798 -1.0181 -0.1058
   56CHL1  H16B 4093  -0.321   0.386   6.837 -1.1563  0.6246  1.7671
   56CHL1   C17 4094  -0.200   0.207   6.861 -0.3957  0.4404  0.1725
   56CHL1   H17 4095  -0.280   0.153   6.806 -1.0233 -0.8443  2.2365
   56CHL1   C13 4096  -0.067   0.177   6.784  0.4983 -0.2913 -0.7661
   56CHL1   C18 4097   0.057   0.211   6.871 -0.7219  0.2463  0.4134
   56CHL1  H18A 4098   0.148   0.191   6.810 -0.9453 -0.1265  0.1974
   56CHL1  H18B 4099   0.056   0.306   6.929  0.1291  0.6567 -0.2241
   56CHL1  H18C 4100   0.050   0.131   6.947 -1.3462 -1.4318 -1.3304
   56CHL1   C12 4101  -0.055   0.039   6.711 -0.1284 -0.3642 -0.2013
   56CHL1  H12A 4102  -0.040  -0.038   6.789 -0.6201 -0.0905  0.1704
   56CHL1  H12B 4103  -0.151   0.022   6.657  0.6357 -1.2363 -1.3401
   56CHL1   C11 4104   0.062   0.032   6.617  0.1375 -0.4628  0.1026
   56CHL1  H11A 4105   0.150   0.023   6.684  0.7704 -0.4242 -0.7056
   56CHL1  H11B 4106   0.055  -0.063   6.558  3.2940 -0.6944 -0.0895
   56CHL1    C9 4107   0.076   0.151   6.517  0.5543 -0.1469 -0.7392
   56CHL1    H9 4108  -0.016   0.142   6.455  0.9622 -0.6656 -1.2702
   56CHL1   C10 4109   0.197   0.160   6.426  0.2157 -0.1958  0.6562
   56CHL1   C19 4110   0.330   0.146   6.499 -0.0125 -0.0968  0.2648
   56CHL1  H19A 4111   0.420   0.139   6.433 -0.8935  1.4593 -1.1903
   56CHL1  H19B 4112   0.347   0.229   6.570 -0.2528  1.0076 -0.9262
   56CHL1  H19C 4113   0.337   0.052   6.557  0.5017 -0.1812  0.0779
   56CHL1    C1 4114   0.183   0.038   6.326  0.3013  0.1151 -0.0187
   56CHL1   H1A 4115   0.193  -0.056   6.384  0.7783  0.9615  1.3529
   56CHL1   H1B 4116   0.083   0.043   6.279  0.3919  0.2446 -0.1958
   56CHL1    C2 4117   0.276   0.044   6.205  0.2677  0.3114 -0.0298
   56CHL1   H2A 4118   0.244  -0.033   6.131  1.8521  0.0401 -0.4601
   56CHL1   H2B 4119   0.375   0.004   6.236 -0.4177 -0.7088  0.9419
   56CHL1   C20 4120  -0.219   0.153   7.008 -0.5310  0.4106 -0.5407
   56CHL1   H20 4121  -0.149   0.208   7.074 -0.0982 -1.2638  0.4551
   56CHL1   C21 4122  -0.197   0.009   7.020 -0.4296  0.6000 -0.1095
   56CHL1  H21A 4123  -0.090  -0.009   6.995  0.6346  2.3755  2.6781
   56CHL1  H21B 4124  -0.254  -0.059   6.953  0.2438  2.0831 -2.2604
   56CHL1  H21C 4125  -0.222  -0.024   7.124  1.7260 -0.7569  0.0487
   56CHL1   C22 4126  -0.362   0.204   7.064 -0.2513  0.2295 -0.4475
   56CHL1  H22A 4127  -0.389   0.310   7.044  0.2996  0.4782  0.0813
   56CHL1  H22B 4128  -0.438   0.150   7.004 -0.4179  1.2646 -1.1821
   56CHL1   C23 4129  -0.395   0.179   7.209 -0.5498  0.4411 -0.0722
   56CHL1  H23A 4130  -0.501   0.204   7.227 -0.5939 -0.6517  1.2832
   56CHL1  H23B 4131  -0.395   0.068   7.209  0.9260  0.4098  0.5960
   56CHL1   C24 4132  -0.303   0.242   7.310 -0.8795  0.5313 -0.2369
   56CHL1  H24A 4133  -0.203   0.193   7.303 -0.2230  1.8502 -0.2453
   56CHL1  H24B 4134  -0.279   0.348   7.289  1.4176 -0.1881 -1.6321
   56CHL1   C25 4135  -0.350   0.232   7.461 -0.7732 -0.1601 -0.1654
   56CHL1   H25 4136  -0.350   0.123   7.486 -1.0632  0.1072  1.0586
   56CHL1   C26 4137  -0.245   0.288   7.553 -0.0425 -0.2788 -0.2774
   56CHL1  H26A 4138  -0.259   0.398   7.563 -2.5635 -0.6661  1.5572
   56CHL1  H26B 4139  -0.142   0.271   7.517  0.0836  0.6904 -0.3980
   56CHL1  H26C 4140  -0.253   0.244   7.655 -0.2542  0.4598  0.0287
   56CHL1   C27 4141  -0.485   0.295   7.497  0.0924  0.1688 -0.3769
   56CHL1  H27A 4142  -0.481   0.400   7.460 -0.6631  0.4188  0.2396
   56CHL1  H27B 4143  -0.573   0.241   7.457  0.4275  0.0163 -0.9226
   56CHL1  H27C 4144  -0.483   0.298   7.608  0.7763 -0.1453 -0.3753
   57SAPC     N 4145   3.010   2.687   9.847  0.4009 -0.1224 -0.0710
   57SAPC   C12 4146   2.918   2.762   9.754  0.3697  0.5137  0.0298
   57SAPC  H12A 4147   2.886   2.693   9.677  0.8751 -0.4876  0.7012
   57SAPC  H12B 4148   2.982   2.835   9.707  1.7049  0.8076  2.2159
   57SAPC   C13 4149   3.092   2.586   9.768 -0.0452  0.0380  0.1457
   57SAPC  H13A 4150   3.141   2.623   9.679  2.1890 -2.5991  0.1398
   57SAPC  H13B 4151   3.167   2.541   9.832  1.5195 -2.9926 -3.4603
   57SAPC  H13C 4152   3.016   2.516   9.737 -2.1254  1.7507  1.1067
   57SAPC   C14 4153   3.103   2.781   9.914 -0.0351  0.0358  0.3889
   57SAPC  H14A 4154   3.181   2.804   9.843 -1.1646  3.0516 -0.0196
   57SAPC  H14B 4155   3.051   2.869   9.947  1.1457  1.3200 -1.0444
   57SAPC  H14C 4156   3.150   2.734   9.999  0.1995 -1.2507 -0.4230
   57SAPC   C15 4157   2.928   2.615   9.948  0.5824 -0.1655 -0.3197
   57SAPC  H15A 4158   2.856   2.548   9.905  1.9940  0.0187 -3.1585
   57SAPC  H15B 4159   3.002   2.559  10.004  1.3875  0.2261 -0.9676
   57SAPC  H15C 4160   2.870   2.682  10.011 -1.7773 -0.6051 -1.9184
   57SAPC   C11 4161   2.793   2.835   9.807  1.0679 -0.4345 -0.1274
   57SAPC  H11A 4162   2.722   2.754   9.835 -2.2291  2.1143 -0.4908
   57SAPC  H11B 4163   2.735   2.892   9.732 -0.8009 -0.8762  0.9268
   57SAPC     P 4164   2.868   3.045   9.921 -0.3426  0.4935  0.1261
   57SAPC   O13 4165   2.755   3.131   9.904  0.3406  0.3244 -0.4435
   57SAPC   O14 4166   2.933   3.071  10.047 -0.4468  0.2104 -0.1388
   57SAPC   O12 4167   2.817   2.899   9.928  0.0733  0.1608  0.8114
   57SAPC   O11 4168   2.980   3.054   9.805  0.0738  0.0132 -0.0103
   57SAPC    C1 4169   2.937   3.100   9.679  0.0261  0.1587 -0.3626
   57SAPC    HA 4170   2.996   3.050   9.599 -0.4449 -0.3311 -0.4061
   57SAPC    HB 4171   2.835   3.077   9.643  0.2214 -0.6561 -0.4108
   57SAPC    C2 4172   2.948   3.257   9.662 -0.5395  0.1708  0.5565
   57SAPC    HS 4173   2.884   3.292   9.745 -0.7742  0.1433  0.3857
   57SAPC   O21 4174   2.911   3.292   9.527  0.0104 -0.0534 -0.2344
   57SAPC   C21 4175   2.886   3.422   9.522  0.2620  0.3135 -0.2424
   57SAPC   O22 4176   2.862   3.496   9.619  0.1164 -0.3538 -0.0416
   57SAPC   C22 4177   2.879   3.466   9.375  0.4985 -0.5223  0.1813
   57SAPC   H2R 4178   2.986   3.450   9.349  0.2339 -2.1098 -0.0358
   57SAPC   H2S 4179   2.823   3.389   9.318  0.4420 -0.2138 -0.1799
   57SAPC    C3 4180   3.094   3.297   9.687  0.3098 -0.0545 -0.5737
   57SAPC    HX 4181   3.110   3.277   9.796 -0.4733 -0.3275 -0.5011
   57SAPC    HY 4182   3.108   3.407   9.693 -1.9816  0.2108  2.5550
   57SAPC   O31 4183   3.192   3.234   9.597 -0.6966  0.1446 -0.5201
   57SAPC   C31 4184   3.229   3.301   9.490  0.5427  0.2393  0.0886
   57SAPC   O32 4185   3.203   3.418   9.465  0.0999  0.0525 -0.2838
   57SAPC   C32 4186   3.288   3.211   9.386 -0.5195  0.0377 -0.5646
   57SAPC   H2X 4187   3.251   3.108   9.403 -0.7278 -0.3389 -3.0078
   57SAPC   H2Y 4188   3.396   3.204   9.414 -0.2747  0.4563 -1.3558
   57SAPC   C23 4189   2.836   3.612   9.350 -0.0378  0.6637 -0.3181
   57SAPC   H3R 4190   2.902   3.679   9.410  0.1967 -2.3344  3.1316
   57SAPC   H3S 4191   2.737   3.610   9.400 -0.2854 -1.4994 -0.8098
   57SAPC   C24 4192   2.830   3.663   9.198 -0.0402  0.1183  0.0312
   57SAPC   H4R 4193   2.777   3.760   9.198 -0.6501 -0.2065  0.1040
   57SAPC   H4S 4194   2.761   3.594   9.144 -1.0681  0.1920  1.2016
   57SAPC   C25 4195   2.966   3.685   9.135  0.0475 -0.9570  1.0853
   57SAPC   H5R 4196   3.045   3.730   9.197  1.4429 -3.3900  1.2260
   57SAPC   C26 4197   2.994   3.649   9.010  0.1891  0.3970 -0.0751
   57SAPC   H6R 4198   3.090   3.686   8.971 -0.1591  0.3908 -0.9547
   57SAPC   C27 4199   2.905   3.582   8.906  0.6378 -0.3418 -0.6153
   57SAPC   H7R 4200   2.839   3.666   8.875  0.6944  0.3692  1.0759
   57SAPC   H7S 4201   2.841   3.512   8.964  0.4433 -0.8558 -1.4384
   57SAPC   C28 4202   2.968   3.506   8.794 -0.1983 -0.4071  0.2416
   57SAPC   H8R 4203   3.068   3.462   8.806  0.5847  0.6052 -2.0249
   57SAPC   C29 4204   2.909   3.486   8.673 -0.3619 -0.1802  0.0612
   57SAPC   H9R 4205   2.949   3.418   8.596 -2.0683  1.5169 -2.5027
   57SAPC  C210 4206   2.780   3.542   8.621  0.1658  0.1237 -0.6515
   57SAPC  H10R 4207   2.757   3.643   8.662 -1.6801 -0.0804 -1.0843
   57SAPC  H10S 4208   2.707   3.473   8.668  0.9967 -0.8502 -0.7531
   57SAPC  C211 4209   2.770   3.526   8.468  0.1369 -0.7621 -0.1333
   57SAPC  H11R 4210   2.825   3.599   8.407  1.7776 -3.4660 -2.1215
   57SAPC  C212 4211   2.704   3.427   8.406  0.4868 -0.2533 -0.2453
   57SAPC  H12R 4212   2.706   3.453   8.299  0.0033  1.3494  0.0930
   57SAPC  C213 4213   2.624   3.317   8.467 -0.5933 -0.3906 -0.9356
   57SAPC  H13R 4214   2.530   3.356   8.512 -2.1250 -2.2080 -2.3693
   57SAPC  H13S 4215   2.673   3.277   8.559 -2.7649 -0.1399  0.4055
   57SAPC  C214 4216   2.600   3.205   8.370  0.3219 -0.3987 -0.3812
   57SAPC  H14R 4217   2.665   3.116   8.372 -0.9396 -1.3546 -0.9305
   57SAPC  C215 4218   2.491   3.208   8.282  0.4159 -0.2093 -0.2651
   57SAPC  H15R 4219   2.466   3.121   8.219 -3.3715  1.3472 -1.1339
   57SAPC  C216 4220   2.378   3.308   8.273  0.0137 -0.0143 -0.1792
   57SAPC  H16R 4221   2.419   3.407   8.244 -0.8543  0.5393  0.4311
   57SAPC  H16S 4222   2.336   3.331   8.373 -0.7841  2.6719 -1.0467
   57SAPC  C217 4223   2.273   3.253   8.184  0.2533  0.9936 -0.0229
   57SAPC  H17R 4224   2.317   3.187   8.105  1.1185  0.9033  0.5137
   57SAPC  H17S 4225   2.220   3.338   8.137  0.1752  0.3917 -1.0722
   57SAPC  C218 4226   2.165   3.181   8.268 -0.0949 -0.0744 -0.2622
   57SAPC  H18R 4227   2.145   3.239   8.361  1.8953 -2.6964  1.9795
   57SAPC  H18S 4228   2.199   3.083   8.307 -0.0381 -0.5357 -1.4321
   57SAPC  C219 4229   2.022   3.161   8.209 -0.2369 -0.2722  0.0490
   57SAPC  H19R 4230   1.985   3.264   8.192  0.2129 -0.1222 -0.0271
   57SAPC  H19S 4231   1.957   3.107   8.282 -0.5867  0.0041 -0.0590
   57SAPC  C220 4232   2.024   3.092   8.068 -0.4915  0.2805 -0.9180
   57SAPC  H20R 4233   2.090   3.149   7.999  0.7881 -0.2220 -0.1493
   57SAPC  H20S 4234   1.919   3.085   8.032 -1.6752  0.3135  2.2377
   57SAPC  H20T 4235   2.065   2.989   8.081 -1.3526  0.0718  0.3108
   57SAPC   C33 4236   3.288   3.255   9.240  0.4482  0.1105 -0.5707
   57SAPC   H3X 4237   3.337   3.354   9.230  1.0453 -0.1281 -0.1109
   57SAPC   H3Y 4238   3.181   3.257   9.212 -0.3474  0.1380  2.1940
   57SAPC   C34 4239   3.353   3.153   9.144 -0.2121 -0.9015  0.6221
   57SAPC   H4X 4240   3.305   3.054   9.163 -1.1490 -0.3446  1.2043
   57SAPC   H4Y 4241   3.461   3.136   9.163  0.0541 -0.3499 -0.3320
   57SAPC   C35 4242   3.346   3.191   8.994  0.6021  0.7072 -0.1033
   57SAPC   H5X 4243   3.404   3.281   8.963 -1.6559  1.9353 -1.0049
   57SAPC   H5Y 4244   3.242   3.216   8.964  0.9106  1.7053 -0.3954
   57SAPC   C36 4245   3.393   3.064   8.914  0.0731 -0.2528  0.7754
   57SAPC   H6X 4246   3.331   2.977   8.943  0.5838 -0.5818  0.9114
   57SAPC   H6Y 4247   3.497   3.037   8.944  0.3103 -0.0065  0.1872
   57SAPC   C37 4248   3.392   3.088   8.754 -0.5243 -0.3477 -0.4097
   57SAPC   H7X 4249   3.288   3.093   8.716 -1.5913  1.1227  2.3974
   57SAPC   H7Y 4250   3.448   2.997   8.723 -1.8203 -2.3064  2.5374
   57SAPC   C38 4251   3.474   3.214   8.706 -0.0876  0.2287 -0.0531
   57SAPC   H8X 4252   3.428   3.310   8.738 -0.5189 -0.5963  1.9608
   57SAPC   H8Y 4253   3.466   3.193   8.597 -0.9093 -0.7934  0.1880
   57SAPC   C39 4254   3.613   3.220   8.768  1.0544  0.5391 -0.0046
   57SAPC   H9X 4255   3.660   3.120   8.754 -0.7864 -0.8513  2.8762
   57SAPC   H9Y 4256   3.598   3.235   8.877  1.4507  1.5805 -0.0901
   57SAPC  C310 4257   3.704   3.338   8.718 -0.2433 -0.3415  0.1062
   57SAPC  H10X 4258   3.800   3.333   8.774 -1.4424 -1.3367  2.2011
   57SAPC  H10Y 4259   3.662   3.434   8.753  0.4837  0.0895 -0.1847
   57SAPC  C311 4260   3.733   3.348   8.568 -0.4289  0.3605  0.2303
   57SAPC  H11X 4261   3.639   3.358   8.510  0.3091 -0.2286 -1.1137
   57SAPC  H11Y 4262   3.778   3.254   8.530  3.9096  0.9012  3.3141
   57SAPC  C312 4263   3.806   3.472   8.521 -0.0797 -0.2845 -0.3903
   57SAPC  H12X 4264   3.903   3.473   8.575  0.6010  0.6818 -1.5769
   57SAPC  H12Y 4265   3.753   3.566   8.546 -2.1546 -1.3954 -0.4133
   57SAPC  C313 4266   3.856   3.466   8.377  0.0500 -0.2203  0.1877
   57SAPC  H13X 4267   3.788   3.500   8.297  0.9045 -2.2443 -1.5001
   57SAPC  H13Y 4268   3.890   3.362   8.355  0.1482 -0.2661  0.5480
   57SAPC  C314 4269   3.987   3.545   8.362 -0.1489 -0.0214 -0.3975
   57SAPC  H14X 4270   4.065   3.487   8.415 -2.4724  0.3980  3.8976
   57SAPC  H14Y 4271   3.976   3.644   8.410  2.0623 -0.1762  0.5113
   57SAPC  C315 4272   4.024   3.569   8.218  0.2704  0.0377 -0.1513
   57SAPC  H15X 4273   4.116   3.630   8.205 -0.3463  0.8827 -0.6852
   57SAPC  H15Y 4274   3.934   3.612   8.168 -0.7079 -2.9194 -1.1067
   57SAPC  C316 4275   4.057   3.438   8.140  0.0283 -0.1587 -0.3859
   57SAPC  H16X 4276   3.971   3.367   8.132 -0.8410  0.9717 -1.4077
   57SAPC  H16Y 4277   4.137   3.379   8.190  0.6755  1.4881  0.5964
   57SAPC  C317 4278   4.088   3.482   8.000  0.9491 -0.2477 -0.3082
   57SAPC  H17X 4279   4.170   3.556   8.009 -1.4767  2.6434 -0.1255
   57SAPC  H17Y 4280   3.996   3.521   7.951  1.1814  2.0096  0.8893
   57SAPC  C318 4281   4.143   3.372   7.909 -0.3052  0.0888  0.0500
   57SAPC  H18X 4282   4.067   3.302   7.868  0.1065  0.0773 -0.7040
   57SAPC  H18Y 4283   4.225   3.309   7.947  1.2798  0.2672 -2.7898
   57SAPC  H18Z 4284   4.192   3.423   7.823 -3.4533 -0.0622 -1.9872
   58SAPC     N 4285   4.283   2.585   9.705  0.0768  0.5119 -0.2284
   58SAPC   C12 4286   4.185   2.490   9.774 -1.0117  1.3696 -0.2998
   58SAPC  H12A 4287   4.114   2.455   9.701  0.1558 -0.8658 -0.4768
   58SAPC  H12B 4288   4.137   2.541   9.856 -0.2132  1.4502  0.1363
   58SAPC   C13 4289   4.215   2.711   9.664  0.2084  0.2146 -0.6970
   58SAPC  H13A 4290   4.132   2.682   9.602  0.4013 -2.1318  0.0316
   58SAPC  H13B 4291   4.178   2.754   9.756  1.9770  0.8875 -0.2576
   58SAPC  H13C 4292   4.284   2.778   9.615  2.9469 -1.1881  0.9381
   58SAPC   C14 4293   4.402   2.611   9.781  0.3878 -0.3111 -0.0391
   58SAPC  H14A 4294   4.392   2.691   9.853 -1.2170  1.0362 -1.6618
   58SAPC  H14B 4295   4.444   2.526   9.833  4.3225  1.2071 -0.3351
   58SAPC  H14C 4296   4.488   2.638   9.721 -0.2497  0.3497 -0.6836
   58SAPC   C15 4297   4.317   2.515   9.574  0.2359 -0.3344  1.0792
   58SAPC  H15A 4298   4.379   2.577   9.510 -1.1484  0.2072  0.2206
   58SAPC  H15B 4299   4.385   2.435   9.602  2.6492  1.9363  2.1379
   58SAPC  H15C 4300   4.233   2.472   9.522  0.8132 -0.9297  0.6028
   58SAPC   C11 4301   4.236   2.356   9.839 -0.3375 -0.0929 -0.8767
   58SAPC  H11A 4302   4.150   2.311   9.893 -0.5441 -1.1297 -2.0271
   58SAPC  H11B 4303   4.308   2.406   9.907  0.2422  2.3336 -3.1403
   58SAPC     P 4304   4.386   2.151   9.805  0.1957  0.4353  0.1792
   58SAPC   O13 4305   4.526   2.191   9.800  0.0163 -0.7587  0.0566
   58SAPC   O14 4306   4.348   2.109   9.943  0.0090 -0.2135  0.2171
   58SAPC   O12 4307   4.293   2.259   9.746 -0.4384 -0.4020  0.3332
   58SAPC   O11 4308   4.369   2.026   9.709 -0.4657  0.1086 -0.3669
   58SAPC    C1 4309   4.393   2.058   9.571  0.6114  0.6094 -0.3982
   58SAPC    HA 4310   4.409   2.165   9.546  2.1128  0.0010 -2.2996
   58SAPC    HB 4311   4.491   2.014   9.544 -1.2609 -3.5949 -1.2790
   58SAPC    C2 4312   4.286   2.000   9.480  0.7005 -0.0112  0.3676
   58SAPC    HS 4313   4.319   2.039   9.381 -0.1011  1.8325  0.7872
   58SAPC   O21 4314   4.153   2.039   9.529 -0.3371  0.0523  0.5966
   58SAPC   C21 4315   4.117   2.159   9.480 -0.2028 -0.2983 -0.1820
   58SAPC   O22 4316   4.179   2.231   9.404  0.3273  0.1299 -0.0776
   58SAPC   C22 4317   3.976   2.190   9.527  0.3379 -0.1352  0.1470
   58SAPC   H2R 4318   3.919   2.095   9.528  0.0761  0.0166  0.7271
   58SAPC   H2S 4319   3.989   2.202   9.637  0.5548 -3.8737  0.6368
   58SAPC    C3 4320   4.300   1.844   9.482 -0.9243  0.2551  0.3540
   58SAPC    HX 4321   4.269   1.808   9.582  1.9221  1.3519  1.7504
   58SAPC    HY 4322   4.405   1.814   9.461 -1.4331 -0.7399 -0.9167
   58SAPC   O31 4323   4.222   1.768   9.387 -0.2542  0.0361 -0.1271
   58SAPC   C31 4324   4.243   1.637   9.389 -0.2865 -0.1866 -0.2476
   58SAPC   O32 4325   4.314   1.576   9.465 -1.1072 -0.1157  0.2012
   58SAPC   C32 4326   4.156   1.574   9.284  0.1485 -0.3171 -0.7475
   58SAPC   H2X 4327   4.190   1.628   9.193  1.3350  0.5906  0.2066
   58SAPC   H2Y 4328   4.054   1.616   9.300 -0.4802 -1.2419 -2.1090
   58SAPC   C23 4329   3.901   2.310   9.462  0.1513 -0.5560 -0.2739
   58SAPC   H3R 4330   3.792   2.312   9.482  0.3602  1.1400  0.8213
   58SAPC   H3S 4331   3.911   2.301   9.351 -1.9620  3.5139 -0.9742
   58SAPC   C24 4332   3.960   2.447   9.505 -0.3093  0.0972 -0.1741
   58SAPC   H4R 4333   4.067   2.445   9.475  0.0418 -0.9950  1.0332
   58SAPC   H4S 4334   3.952   2.451   9.616  0.0209 -2.3634 -0.0058
   58SAPC   C25 4335   3.889   2.566   9.455 -0.2606  0.1732 -0.4633
   58SAPC   H5R 4336   3.815   2.598   9.530  0.6602  0.7740  0.2086
   58SAPC   C26 4337   3.908   2.630   9.339 -0.1583 -0.6492 -0.6202
   58SAPC   H6R 4338   3.839   2.707   9.300  3.1517  1.1171 -3.5567
   58SAPC   C27 4339   4.003   2.597   9.225  0.5963 -0.4444 -0.2571
   58SAPC   H7R 4340   4.106   2.614   9.263  0.3390  0.0049  0.2467
   58SAPC   H7S 4341   3.986   2.666   9.140 -1.0729 -1.2843 -0.6537
   58SAPC   C28 4342   3.979   2.461   9.161  0.6196  0.3516  0.8039
   58SAPC   H8R 4343   3.877   2.422   9.175  0.3318  0.3900 -0.9386
   58SAPC   C29 4344   4.077   2.383   9.117 -0.0350 -0.1417  0.2418
   58SAPC   H9R 4345   4.048   2.287   9.072  1.7651 -0.1110 -1.1332
   58SAPC  C210 4346   4.225   2.420   9.105  1.0623 -0.3969 -0.7516
   58SAPC  H10R 4347   4.294   2.337   9.077  1.6270 -0.2394  0.1327
   58SAPC  H10S 4348   4.264   2.451   9.205 -0.6118  2.7366 -0.9354
   58SAPC  C211 4349   4.245   2.542   9.015 -0.5254  0.5757 -0.1892
   58SAPC  H11R 4350   4.213   2.636   9.061  1.3664  1.7205 -1.0584
   58SAPC  C212 4351   4.297   2.558   8.893  0.8788  0.2369 -0.6233
   58SAPC  H12R 4352   4.298   2.663   8.859  0.5249  0.8556  1.1255
   58SAPC  C213 4353   4.342   2.443   8.811 -0.6000  0.8465  0.1514
   58SAPC  H13R 4354   4.260   2.370   8.796 -0.2886  0.7033 -0.9172
   58SAPC  H13S 4355   4.416   2.387   8.872  0.1832  0.9075 -0.7271
   58SAPC  C214 4356   4.402   2.476   8.671  0.3113  0.3816 -0.6810
   58SAPC  H14R 4357   4.512   2.474   8.672  0.3390  1.4335  0.0787
   58SAPC  C215 4358   4.333   2.506   8.558 -0.0078 -0.2436 -0.3916
   58SAPC  H15R 4359   4.397   2.526   8.471  1.3010  0.7441  0.7626
   58SAPC  C216 4360   4.189   2.511   8.551  1.2872  0.3839 -0.0012
   58SAPC  H16R 4361   4.145   2.524   8.652  1.4385  1.0871 -0.0194
   58SAPC  H16S 4362   4.149   2.412   8.518  1.3479  0.3140  0.1352
   58SAPC  C217 4363   4.135   2.621   8.449  0.3245 -0.7485  0.0181
   58SAPC  H17R 4364   4.202   2.710   8.449  0.0216 -0.4935 -1.7295
   58SAPC  H17S 4365   4.032   2.650   8.480 -0.7067 -2.3681 -1.6632
   58SAPC  C218 4366   4.134   2.586   8.303  0.0479 -0.6597  0.4288
   58SAPC  H18R 4367   4.119   2.477   8.286 -2.4727 -0.0021 -2.3217
   58SAPC  H18S 4368   4.228   2.624   8.257 -0.3826  1.8959  1.4805
   58SAPC  C219 4369   4.027   2.657   8.222  0.0810  0.3310 -0.1168
   58SAPC  H19R 4370   4.056   2.656   8.114 -0.1838  1.0355 -0.2004
   58SAPC  H19S 4371   4.027   2.764   8.252  0.6047  0.5563 -0.8665
   58SAPC  C220 4372   3.883   2.605   8.239 -0.4721  0.1387  0.2861
   58SAPC  H20R 4373   3.815   2.683   8.198  3.4323  2.4577 -2.4293
   58SAPC  H20S 4374   3.864   2.588   8.348  0.6265  0.6526  0.5700
   58SAPC  H20T 4375   3.869   2.508   8.188 -1.7753  0.3349  0.2249
   58SAPC   C33 4376   4.161   1.425   9.266  0.2284  0.2380 -0.4894
   58SAPC   H3X 4377   4.171   1.373   9.364  1.6633 -0.9271 -1.2051
   58SAPC   H3Y 4378   4.253   1.410   9.205 -0.3379  0.0571 -1.3262
   58SAPC   C34 4379   4.033   1.371   9.199 -0.6111 -0.3587  0.3196
   58SAPC   H4X 4380   3.945   1.394   9.263 -1.4517  0.0578 -0.9433
   58SAPC   H4Y 4381   4.037   1.260   9.193 -0.5798 -0.5692  2.9334
   58SAPC   C35 4382   4.006   1.432   9.058  0.1056 -0.1262  0.0705
   58SAPC   H5X 4383   4.080   1.411   8.977 -0.4649  2.3514 -1.2050
   58SAPC   H5Y 4384   3.998   1.542   9.070 -0.4051 -0.1418 -0.0996
   58SAPC   C36 4385   3.866   1.382   9.013  0.0839  0.2753 -0.1685
   58SAPC   H6X 4386   3.802   1.437   9.085 -1.1983 -0.0269 -1.0572
   58SAPC   H6Y 4387   3.857   1.272   9.015  2.5110  0.0304  1.2038
   58SAPC   C37 4388   3.812   1.433   8.876  0.0917 -0.3205 -0.2553
   58SAPC   H7X 4389   3.711   1.388   8.864 -0.4802  0.1285  2.4122
   58SAPC   H7Y 4390   3.876   1.395   8.793 -0.9656 -1.2934 -0.6661
   58SAPC   C38 4391   3.796   1.581   8.841 -0.2579  0.0475  0.5722
   58SAPC   H8X 4392   3.890   1.639   8.829 -0.2609 -0.2473 -1.1797
   58SAPC   H8Y 4393   3.741   1.627   8.925  0.9847  1.2163  0.7729
   58SAPC   C39 4394   3.719   1.592   8.709 -0.2508  0.0942 -0.0916
   58SAPC   H9X 4395   3.684   1.698   8.708 -1.5989 -0.2497 -3.4169
   58SAPC   H9Y 4396   3.636   1.518   8.712 -0.1581  0.0037  0.3661
   58SAPC  C310 4397   3.804   1.569   8.580  0.4680 -0.0928 -0.6766
   58SAPC  H10X 4398   3.817   1.460   8.564 -0.4552 -0.0771 -1.6505
   58SAPC  H10Y 4399   3.903   1.616   8.600 -0.6651  2.3504 -0.4333
   58SAPC  C311 4400   3.734   1.619   8.455  0.2005 -0.5075 -0.0721
   58SAPC  H11X 4401   3.737   1.730   8.458 -0.3590 -0.5064  0.7756
   58SAPC  H11Y 4402   3.626   1.593   8.445  0.2730 -1.1784  0.7873
   58SAPC  C312 4403   3.806   1.569   8.335 -0.0438  0.5924  0.1943
   58SAPC  H12X 4404   3.845   1.465   8.343 -0.8494  0.1325 -1.3352
   58SAPC  H12Y 4405   3.897   1.632   8.323  1.2186 -0.7925  2.0383
   58SAPC  C313 4406   3.717   1.590   8.211  0.5472 -0.9534 -1.2802
   58SAPC  H13X 4407   3.669   1.690   8.214  2.4190  0.0163 -2.1119
   58SAPC  H13Y 4408   3.636   1.514   8.219  0.5947 -0.9482 -0.7271
   58SAPC  C314 4409   3.785   1.572   8.072  0.5007 -0.6633  0.1357
   58SAPC  H14X 4410   3.705   1.556   7.998 -0.4119  0.3347  0.8751
   58SAPC  H14Y 4411   3.850   1.481   8.078  3.5414  1.1725 -2.0109
   58SAPC  C315 4412   3.858   1.703   8.044 -0.7275  0.3559  0.0971
   58SAPC  H15X 4413   3.932   1.690   7.962  0.0475  0.2937  0.7920
   58SAPC  H15Y 4414   3.910   1.728   8.139  0.4574  0.6292 -0.6007
   58SAPC  C316 4415   3.772   1.830   7.988 -0.1330  0.5307  0.0424
   58SAPC  H16X 4416   3.816   1.929   8.012 -0.0051  0.6995 -0.8627
   58SAPC  H16Y 4417   3.666   1.823   8.018 -0.5657  0.5784 -1.4088
   58SAPC  C317 4418   3.763   1.825   7.837 -0.0683 -0.1817  0.1574
   58SAPC  H17X 4419   3.711   1.736   7.795  0.2203 -0.2630 -0.0318
   58SAPC  H17Y 4420   3.867   1.827   7.797 -0.5714 -1.2009 -1.3019
   58SAPC  C318 4421   3.697   1.950   7.782  0.5094  0.4898 -0.2703
   58SAPC  H18X 4422   3.589   1.942   7.810  0.2458 -0.5613 -1.4934
   58SAPC  H18Y 4423   3.702   1.950   7.671  0.8834  0.1094 -0.2530
   58SAPC  H18Z 4424   3.750   2.037   7.826  0.9082  0.1340 -0.0428
   59SAPC     N 4425   6.022   1.422   9.654  0.2425  0.2067 -1.3843
   59SAPC   C12 4426   6.083   1.459   9.781 -0.3981  0.3550  0.0867
   59SAPC  H12A 4427   6.186   1.429   9.794 -0.0019  1.0795 -1.1940
   59SAPC  H12B 4428   6.032   1.413   9.864 -1.5029 -0.1185 -0.8358
   59SAPC   C13 4429   6.007   1.273   9.652  0.0341 -0.5950 -0.2536
   59SAPC  H13A 4430   6.101   1.221   9.664  1.1857  1.3055 -0.6409
   59SAPC  H13B 4431   5.958   1.236   9.741  0.1554 -0.6585 -0.2123
   59SAPC  H13C 4432   5.952   1.235   9.568 -0.1555 -0.2568 -0.2834
   59SAPC   C14 4433   5.888   1.478   9.631 -0.2603 -0.0530  0.5743
   59SAPC  H14A 4434   5.820   1.454   9.712 -2.2120  0.8033 -0.7240
   59SAPC  H14B 4435   5.891   1.583   9.606 -2.8020 -0.2547 -0.9764
   59SAPC  H14C 4436   5.846   1.431   9.543 -1.8395 -0.3819  1.4617
   59SAPC   C15 4437   6.113   1.460   9.541  0.4540  0.9142 -0.5606
   59SAPC  H15A 4438   6.206   1.403   9.544  0.3290  0.7379  1.5067
   59SAPC  H15B 4439   6.081   1.431   9.442  1.2228  2.0829 -1.1803
   59SAPC  H15C 4440   6.137   1.565   9.543 -0.3879  1.1060 -0.2924
   59SAPC   C11 4441   6.078   1.613   9.817  0.2230  0.8772  0.2783
   59SAPC  H11A 4442   6.126   1.630   9.916 -0.1660  1.2439  0.4085
   59SAPC  H11B 4443   5.973   1.637   9.844 -0.2947 -1.7330  0.7682
   59SAPC     P 4444   6.151   1.851   9.737 -0.4082  0.2490  0.2699
   59SAPC   O13 4445   6.104   1.880   9.875 -0.4291  0.1203  0.2981
   59SAPC   O14 4446   6.297   1.888   9.714  0.0676  0.7570 -0.0882
   59SAPC   O12 4447   6.141   1.698   9.711  0.6235  0.2308 -0.2557
   59SAPC   O11 4448   6.056   1.926   9.643 -0.7898 -0.3215 -0.3850
   59SAPC    C1 4449   5.976   1.887   9.535 -0.2662 -0.1326 -0.3829
   59SAPC    HA 4450   5.948   1.779   9.536 -0.4690 -0.0802  1.2364
   59SAPC    HB 4451   5.882   1.945   9.533  0.4501  1.1187  0.6718
   59SAPC    C2 4452   6.046   1.925   9.403  0.2884 -0.0243  0.9236
   59SAPC    HS 4453   5.991   1.871   9.323 -0.8325  0.5353  1.2949
   59SAPC   O21 4454   6.194   1.905   9.406  0.6365  0.0042 -0.3022
   59SAPC   C21 4455   6.224   1.781   9.357 -0.3475  0.1078  0.0361
   59SAPC   O22 4456   6.140   1.698   9.321 -0.6460 -0.4220  0.0866
   59SAPC   C22 4457   6.376   1.756   9.353  0.4820 -0.7725  1.1100
   59SAPC   H2R 4458   6.428   1.835   9.295 -3.1619  0.7604 -0.3659
   59SAPC   H2S 4459   6.404   1.760   9.461 -1.8950 -0.3208  1.7748
   59SAPC    C3 4460   6.035   2.076   9.371  0.0751  0.1102  0.0191
   59SAPC    HX 4461   6.075   2.124   9.463  0.3636 -0.2027  0.0603
   59SAPC    HY 4462   5.932   2.117   9.364 -0.4862 -1.1611  0.3974
   59SAPC   O31 4463   6.104   2.122   9.256  0.3014 -0.0778  0.2165
   59SAPC   C31 4464   6.040   2.110   9.138  0.5042 -0.5227 -0.6335
   59SAPC   O32 4465   5.931   2.059   9.116  0.5926 -0.7603 -0.2008
   59SAPC   C32 4466   6.125   2.183   9.036  0.2952  0.3002 -0.6556
   59SAPC   H2X 4467   6.208   2.117   9.004  0.0469 -1.0376  1.2626
   59SAPC   H2Y 4468   6.177   2.266   9.088 -0.1593  0.6582 -0.7627
   59SAPC   C23 4469   6.406   1.616   9.297  1.0460  0.1242 -0.4166
   59SAPC   H3R 4470   6.339   1.535   9.331 -2.0938  1.7950 -2.1717
   59SAPC   H3S 4471   6.508   1.599   9.339  1.2532  2.6092  0.2652
   59SAPC   C24 4472   6.400   1.609   9.137  0.1020  0.2962 -0.0642
   59SAPC   H4R 4473   6.295   1.635   9.114 -0.2122 -1.0443 -0.2232
   59SAPC   H4S 4474   6.421   1.506   9.101  1.2008  0.1297  0.9822
   59SAPC   C25 4475   6.485   1.709   9.069  0.2154  0.1504 -0.5177
   59SAPC   H5R 4476   6.576   1.734   9.126 -0.8959 -1.2802  2.0562
   59SAPC   C26 4477   6.457   1.778   8.954  0.2549 -0.2528 -0.8487
   59SAPC   H6R 4478   6.536   1.847   8.922  0.1329  1.7334  2.5959
   59SAPC   C27 4479   6.327   1.762   8.874  0.9764  0.4126  0.4065
   59SAPC   H7R 4480   6.310   1.653   8.864 -0.0130  0.6673 -1.0117
   59SAPC   H7S 4481   6.343   1.793   8.768 -0.0383 -0.4455 -0.0147
   59SAPC   C28 4482   6.197   1.812   8.933  0.0661  0.0425  0.3252
   59SAPC   H8R 4483   6.187   1.793   9.041  0.9568  0.6928  0.5304
   59SAPC   C29 4484   6.099   1.878   8.871  0.2461  0.5620 -0.1794
   59SAPC   H9R 4485   6.016   1.919   8.930  1.8131  2.8643  0.5232
   59SAPC  C210 4486   6.097   1.918   8.728  0.1252  0.6810 -0.6464
   59SAPC  H10R 4487   6.202   1.919   8.690  0.3831 -1.0945 -0.0600
   59SAPC  H10S 4488   6.065   2.024   8.723 -1.6402  0.1933 -0.1945
   59SAPC  C211 4489   6.011   1.830   8.644 -0.0269 -0.1306  0.2084
   59SAPC  H11R 4490   5.964   1.747   8.698 -0.9732  0.6714  0.6595
   59SAPC  C212 4491   5.989   1.849   8.514  0.5762  0.2582 -0.8466
   59SAPC  H12R 4492   5.930   1.770   8.465 -0.9635 -0.5094  1.9988
   59SAPC  C213 4493   6.035   1.965   8.423  0.6250  0.0640 -0.8291
   59SAPC  H13R 4494   6.096   2.030   8.489 -1.4212 -1.5270  2.9690
   59SAPC  H13S 4495   5.948   2.027   8.397  1.8603  2.0093 -0.4996
   59SAPC  C214 4496   6.116   1.934   8.306  0.0157 -1.2859 -0.6430
   59SAPC  H14R 4497   6.207   1.873   8.318 -0.3083 -2.0359 -1.7956
   59SAPC  C215 4498   6.099   1.981   8.180 -0.5095 -0.3241 -0.4680
   59SAPC  H15R 4499   6.173   1.958   8.102 -0.0760  2.5781 -1.0101
   59SAPC  C216 4500   6.000   2.081   8.124  0.4058  0.4398 -0.2024
   59SAPC  H16R 4501   6.042   2.159   8.058 -1.1238  0.9065 -0.6759
   59SAPC  H16S 4502   5.948   2.139   8.203  0.5899 -1.0581  1.0674
   59SAPC  C217 4503   5.886   2.017   8.045  0.1881  0.2792 -0.6966
   59SAPC  H17R 4504   5.802   2.089   8.061  0.6004  0.2903  2.0174
   59SAPC  H17S 4505   5.842   1.923   8.086 -0.7524  1.1116  0.3049
   59SAPC  C218 4506   5.909   1.998   7.896  0.0426  0.0678  0.2533
   59SAPC  H18R 4507   6.006   1.944   7.886 -0.8152 -1.0616 -3.5883
   59SAPC  H18S 4508   5.914   2.090   7.834  0.8747  0.0830  0.3204
   59SAPC  C219 4509   5.795   1.911   7.834 -0.3598 -0.3575 -0.6553
   59SAPC  H19R 4510   5.696   1.961   7.844  0.5443  1.2051  1.2591
   59SAPC  H19S 4511   5.786   1.823   7.902 -1.0416 -0.4359 -0.8386
   59SAPC  C220 4512   5.807   1.878   7.687 -0.2811 -0.2093  0.0735
   59SAPC  H20R 4513   5.820   1.979   7.645  1.3975  0.1645  1.4039
   59SAPC  H20S 4514   5.710   1.835   7.652 -1.8546  0.4118  3.2579
   59SAPC  H20T 4515   5.893   1.810   7.667  0.9555  0.3669  2.8907
   59SAPC   C33 4516   6.031   2.228   8.926  0.5906 -1.2724  0.1711
   59SAPC   H3X 4517   5.959   2.295   8.977 -0.3571 -1.8831 -0.3379
   59SAPC   H3Y 4518   5.980   2.140   8.881 -2.5525  0.5597 -0.1122
   59SAPC   C34 4519   6.107   2.288   8.800 -0.6449 -0.4632  0.1480
   59SAPC   H4X 4520   6.188   2.221   8.764 -1.0314 -0.7195 -0.2566
   59SAPC   H4Y 4521   6.147   2.387   8.830  0.0788 -0.6535 -0.1811
   59SAPC   C35 4522   6.013   2.317   8.680 -0.3394  0.2217  0.0835
   59SAPC   H5X 4523   5.950   2.404   8.708 -0.8874  0.1394 -0.8593
   59SAPC   H5Y 4524   5.949   2.231   8.650 -1.7418  1.1732  0.2176
   59SAPC   C36 4525   6.099   2.364   8.562  0.1078 -0.1758 -0.2179
   59SAPC   H6X 4526   6.182   2.293   8.540 -0.2137 -0.6217 -0.0010
   59SAPC   H6Y 4527   6.144   2.459   8.598 -2.5221  0.6653  1.1160
   59SAPC   C37 4528   6.022   2.402   8.431 -0.1398 -0.8315  0.1603
   59SAPC   H7X 4529   5.920   2.440   8.455 -0.8888 -2.2520 -0.6053
   59SAPC   H7Y 4530   6.015   2.309   8.370  1.6593  0.0573 -1.4942
   59SAPC   C38 4531   6.097   2.499   8.340  0.2594 -0.3297 -0.3702
   59SAPC   H8X 4532   6.177   2.444   8.286  0.7692  0.1480 -0.1177
   59SAPC   H8Y 4533   6.146   2.575   8.405 -1.6031  0.9949 -0.4542
   59SAPC   C39 4534   6.014   2.566   8.226 -0.0975  0.7564 -0.5063
   59SAPC   H9X 4535   6.068   2.648   8.173  0.2738  0.8892  0.0661
   59SAPC   H9Y 4536   5.928   2.605   8.285  0.1946  0.6525 -0.0139
   59SAPC  C310 4537   5.980   2.464   8.113  0.7335 -0.4035 -0.5805
   59SAPC  H10X 4538   5.952   2.369   8.162 -0.3797 -0.4183 -1.2239
   59SAPC  H10Y 4539   6.074   2.446   8.057  1.0024  0.9084 -0.5904
   59SAPC  C311 4540   5.877   2.508   8.012  0.5023 -0.0307  0.6773
   59SAPC  H11X 4541   5.908   2.585   7.939 -0.3622  0.6645  1.0284
   59SAPC  H11Y 4542   5.787   2.544   8.066 -0.6751 -2.9295  0.8586
   59SAPC  C312 4543   5.825   2.394   7.916 -0.5112  0.1824  0.0610
   59SAPC  H12X 4544   5.817   2.296   7.967 -1.3158 -0.0465 -0.4768
   59SAPC  H12Y 4545   5.908   2.378   7.844  0.1128 -0.1833  0.8530
   59SAPC  C313 4546   5.680   2.420   7.861  0.2568  0.3570 -0.0998
   59SAPC  H13X 4547   5.674   2.527   7.834  0.7906  0.3387 -0.3097
   59SAPC  H13Y 4548   5.610   2.416   7.947  0.0843  1.7563 -0.1513
   59SAPC  C314 4549   5.645   2.332   7.749 -0.2081 -0.1065  0.5287
   59SAPC  H14X 4550   5.688   2.231   7.764  0.9130  0.1288 -0.8351
   59SAPC  H14Y 4551   5.699   2.370   7.660  2.0045 -1.4624  1.2402
   59SAPC  C315 4552   5.496   2.305   7.723  0.6278  0.6115  0.5981
   59SAPC  H15X 4553   5.437   2.286   7.816 -0.5786  0.4293 -0.1891
   59SAPC  H15Y 4554   5.495   2.214   7.659  1.8327  0.5950  0.5731
   59SAPC  C316 4555   5.433   2.427   7.651 -0.3642  0.0237  0.3691
   59SAPC  H16X 4556   5.475   2.511   7.710  0.7220  0.4436 -0.9419
   59SAPC  H16Y 4557   5.327   2.405   7.678  0.2386 -2.4481  0.9378
   59SAPC  C317 4558   5.466   2.427   7.504 -0.1865  0.2864  0.4930
   59SAPC  H17X 4559   5.440   2.330   7.458  0.7428  0.4767 -0.4698
   59SAPC  H17Y 4560   5.576   2.433   7.496 -0.3432  0.9481 -2.0795
   59SAPC  C318 4561   5.411   2.541   7.420  0.0990  0.4221 -0.1002
   59SAPC  H18X 4562   5.304   2.522   7.395  0.2432 -0.0611 -0.3627
   59SAPC  H18Y 4563   5.473   2.542   7.328 -0.5561  0.1375 -0.5550
   59SAPC  H18Z 4564   5.443   2.637   7.465  2.2975 -0.1548 -0.3322
   60SAPC     N 4565   5.109   1.220   9.807  0.8943 -0.2244 -0.0539
   60SAPC   C12 4566   5.201   1.197   9.683 -0.6682 -0.8437 -0.5558
   60SAPC  H12A 4567   5.176   1.103   9.635 -1.4367 -1.4083  0.8731
   60SAPC  H12B 4568   5.304   1.180   9.711 -0.1495  1.0842 -1.1267
   60SAPC   C13 4569   4.981   1.273   9.754  0.2258  0.1776 -0.4960
   60SAPC  H13A 4570   4.922   1.200   9.701  0.5182 -0.9591  0.7041
   60SAPC  H13B 4571   4.912   1.304   9.831 -2.4458 -4.5694 -0.5764
   60SAPC  H13C 4572   4.996   1.359   9.690 -0.4392  0.6026 -0.0927
   60SAPC   C14 4573   5.086   1.095   9.874 -0.1472  0.0780 -0.4419
   60SAPC  H14A 4574   5.027   1.101   9.964 -0.6821 -1.1852 -0.6769
   60SAPC  H14B 4575   5.037   1.022   9.811  2.7185  0.2566 -3.1165
   60SAPC  H14C 4576   5.181   1.051   9.899 -0.2616 -0.3930 -0.8119
   60SAPC   C15 4577   5.161   1.323   9.908 -0.0029  0.2718 -0.1685
   60SAPC  H15A 4578   5.088   1.352   9.982  1.9951  1.7003  1.3489
   60SAPC  H15B 4579   5.251   1.297   9.962 -1.1977  0.3640  1.9623
   60SAPC  H15C 4580   5.186   1.418   9.864 -1.8739  0.7194 -0.3330
   60SAPC   C11 4581   5.204   1.305   9.561  0.2885  0.1806  0.2329
   60SAPC  H11A 4582   5.112   1.320   9.501  1.1307  3.2716 -0.4535
   60SAPC  H11B 4583   5.280   1.282   9.484 -1.9344  2.1409 -2.7951
   60SAPC     P 4584   5.380   1.473   9.658  0.0900 -0.1302  0.1511
   60SAPC   O13 4585   5.379   1.517   9.796 -0.4531  0.4549  0.2791
   60SAPC   O14 4586   5.463   1.353   9.631 -0.5936 -0.1108  0.3959
   60SAPC   O12 4587   5.228   1.438   9.613 -0.1645  0.5175 -0.5846
   60SAPC   O11 4588   5.412   1.594   9.564  0.0394  0.5500  0.5428
   60SAPC    C1 4589   5.350   1.621   9.436 -0.2877 -0.1164  0.3690
   60SAPC    HA 4590   5.265   1.552   9.419  1.1004 -1.7298 -0.2910
   60SAPC    HB 4591   5.326   1.728   9.421 -0.0987  0.2075  2.1252
   60SAPC    C2 4592   5.458   1.602   9.322 -0.4569 -0.1487 -0.1488
   60SAPC    HS 4593   5.403   1.642   9.235 -0.4455  0.3352  0.0659
   60SAPC   O21 4594   5.486   1.461   9.307  0.0525 -0.4183 -0.5395
   60SAPC   C21 4595   5.391   1.395   9.243  0.4961  0.3484 -1.5026
   60SAPC   O22 4596   5.285   1.436   9.206 -0.0167  0.4976 -0.0875
   60SAPC   C22 4597   5.437   1.251   9.226  0.1442 -0.2121  0.3263
   60SAPC   H2R 4598   5.542   1.235   9.258 -0.2704  0.9598  2.4097
   60SAPC   H2S 4599   5.365   1.199   9.293  0.0784  1.5183  1.6456
   60SAPC    C3 4600   5.586   1.691   9.360 -0.3322  0.0061 -0.9062
   60SAPC    HX 4601   5.641   1.653   9.449 -1.7687 -0.2982 -0.1176
   60SAPC    HY 4602   5.545   1.788   9.394  0.5168  0.2358 -0.5003
   60SAPC   O31 4603   5.662   1.717   9.243  0.6940  0.1758 -0.0050
   60SAPC   C31 4604   5.762   1.633   9.230 -0.7512  0.2719 -0.7464
   60SAPC   O32 4605   5.788   1.551   9.313  0.0351 -0.5127 -0.1560
   60SAPC   C32 4606   5.830   1.647   9.094  0.4182  0.2283 -0.0634
   60SAPC   H2X 4607   5.939   1.628   9.106  0.3429 -0.4284 -0.3874
   60SAPC   H2Y 4608   5.823   1.752   9.057  1.1239  0.1582 -0.4269
   60SAPC   C23 4609   5.414   1.202   9.079  0.2268  0.2651  0.0788
   60SAPC   H3R 4610   5.321   1.240   9.031 -0.3699 -1.1216  0.0968
   60SAPC   H3S 4611   5.396   1.093   9.085  0.6546  0.2564  1.5162
   60SAPC   C24 4612   5.532   1.232   8.991 -0.3304  0.5174 -0.0100
   60SAPC   H4R 4613   5.568   1.337   8.989  0.5262  0.3138 -4.2103
   60SAPC   H4S 4614   5.503   1.223   8.884 -0.6628  0.3144  0.0963
   60SAPC   C25 4615   5.644   1.134   9.020  0.8958 -0.8662  0.0094
   60SAPC   H5R 4616   5.693   1.157   9.116  0.2705  0.6213  0.0044
   60SAPC   C26 4617   5.684   1.018   8.966  0.9882  0.2187 -0.0024
   60SAPC   H6R 4618   5.765   0.964   9.019  1.8358 -0.6280 -2.0647
   60SAPC   C27 4619   5.638   0.961   8.840  0.8869 -0.1410 -0.0113
   60SAPC   H7R 4620   5.554   1.021   8.802  1.3305  1.0226  0.7716
   60SAPC   H7S 4621   5.607   0.855   8.858 -0.6672  0.1749 -0.7433
   60SAPC   C28 4622   5.746   0.958   8.735  0.4437 -0.0848  0.1868
   60SAPC   H8R 4623   5.781   1.056   8.699 -1.3635  1.2160  1.7947
   60SAPC   C29 4624   5.798   0.846   8.679 -0.4074  0.0468  0.5765
   60SAPC   H9R 4625   5.873   0.864   8.601 -0.9334 -0.6879 -0.1128
   60SAPC  C210 4626   5.762   0.701   8.703  0.1326 -0.2234  0.3863
   60SAPC  H10R 4627   5.660   0.670   8.672 -0.0588  0.6206  0.1425
   60SAPC  H10S 4628   5.746   0.686   8.812 -0.9894  0.0442  0.2700
   60SAPC  C211 4629   5.854   0.597   8.644 -0.1333 -0.2996  0.3018
   60SAPC  H11R 4630   5.900   0.525   8.713 -2.1731 -1.5126  0.4723
   60SAPC  C212 4631   5.883   0.577   8.516  0.2991 -0.1868 -0.5548
   60SAPC  H12R 4632   5.952   0.495   8.492 -0.9002 -0.9639 -1.5018
   60SAPC  C213 4633   5.831   0.650   8.392 -0.1402  0.1462  0.1354
   60SAPC  H13R 4634   5.912   0.649   8.316 -2.0038  0.1937 -1.9571
   60SAPC  H13S 4635   5.795   0.753   8.413 -2.8817 -0.2914 -1.8030
   60SAPC  C214 4636   5.704   0.580   8.349  0.0305  0.1897 -0.5422
   60SAPC  H14R 4637   5.703   0.474   8.380  1.2918 -0.3641 -2.2130
   60SAPC  C215 4638   5.599   0.629   8.282 -0.5553  0.5950  0.3262
   60SAPC  H15R 4639   5.513   0.564   8.261  0.6713 -0.6157 -1.3075
   60SAPC  C216 4640   5.605   0.776   8.228 -0.4853 -0.3187  0.3547
   60SAPC  H16R 4641   5.586   0.769   8.119  2.3057  0.8178 -0.2939
   60SAPC  H16S 4642   5.707   0.818   8.240 -0.8766  1.1471 -1.1590
   60SAPC  C217 4643   5.491   0.856   8.311 -0.1013  0.5019 -0.0737
   60SAPC  H17R 4644   5.536   0.866   8.413 -1.0998  1.4903  0.2972
   60SAPC  H17S 4645   5.399   0.795   8.314  0.9956 -1.1941  0.3824
   60SAPC  C218 4646   5.464   0.992   8.262 -0.2266 -1.0353  0.0548
   60SAPC  H18R 4647   5.413   0.986   8.163 -1.3477  1.0032  0.4598
   60SAPC  H18S 4648   5.565   1.039   8.255 -0.6250 -0.4169 -2.6264
   60SAPC  C219 4649   5.380   1.082   8.363 -0.0934  0.3386  0.3372
   60SAPC  H19R 4650   5.284   1.033   8.390 -0.0926 -0.6546 -1.3536
   60SAPC  H19S 4651   5.360   1.181   8.317 -0.6714  0.9695  1.8675
   60SAPC  C220 4652   5.450   1.122   8.493  0.8423  0.2505 -0.2800
   60SAPC  H20R 4653   5.549   1.163   8.465  1.4788  0.1564  1.6621
   60SAPC  H20S 4654   5.465   1.037   8.564  0.1166 -0.6730 -1.1924
   60SAPC  H20T 4655   5.381   1.195   8.541  0.7010 -0.4734  0.6580
   60SAPC   C33 4656   5.774   1.556   8.992  0.2902 -0.2994  0.4402
   60SAPC   H3X 4657   5.665   1.576   8.978  0.3802  0.2070  0.4615
   60SAPC   H3Y 4658   5.781   1.448   9.016  2.1144 -0.6133 -1.2798
   60SAPC   C34 4659   5.827   1.562   8.848 -1.0816 -0.2792 -0.0357
   60SAPC   H4X 4660   5.937   1.544   8.851 -0.8633  1.0691  0.6479
   60SAPC   H4Y 4661   5.824   1.667   8.809 -0.5883 -1.1466 -2.6465
   60SAPC   C35 4662   5.740   1.472   8.752 -0.1071 -0.0860 -0.6567
   60SAPC   H5X 4663   5.636   1.463   8.789  0.5823  0.8204  1.6305
   60SAPC   H5Y 4664   5.771   1.369   8.781 -0.5469 -0.2687 -0.8252
   60SAPC   C36 4665   5.764   1.508   8.602  0.1369 -0.3747  0.4027
   60SAPC   H6X 4666   5.862   1.472   8.565 -0.7634 -0.7578 -1.7798
   60SAPC   H6Y 4667   5.772   1.617   8.582 -1.4185 -0.4504 -0.8710
   60SAPC   C37 4668   5.660   1.440   8.507 -0.2024 -0.7158 -0.8157
   60SAPC   H7X 4669   5.556   1.469   8.533  0.3373  1.6314 -1.0682
   60SAPC   H7Y 4670   5.669   1.329   8.506  2.0993 -0.7223 -5.2135
   60SAPC   C38 4671   5.689   1.481   8.361  0.1079  0.5870 -0.5503
   60SAPC   H8X 4672   5.780   1.433   8.318  0.3200  0.8857 -0.4428
   60SAPC   H8Y 4673   5.705   1.591   8.359  1.4008  0.4174 -1.5611
   60SAPC   C39 4674   5.574   1.469   8.253 -0.1786  0.5730  0.1374
   60SAPC   H9X 4675   5.477   1.490   8.304 -0.6339  1.5808 -1.1001
   60SAPC   H9Y 4676   5.585   1.366   8.214  0.5938  0.3803  0.8326
   60SAPC  C310 4677   5.594   1.562   8.137 -0.1848 -0.6586 -0.6170
   60SAPC  H10X 4678   5.684   1.529   8.081  0.8570 -0.5504  0.9236
   60SAPC  H10Y 4679   5.609   1.666   8.172 -0.5847 -0.8193  0.0464
   60SAPC  C311 4680   5.467   1.563   8.042  0.3891  0.4333  0.6773
   60SAPC  H11X 4681   5.373   1.591   8.094 -0.4707  2.2969 -1.6592
   60SAPC  H11Y 4682   5.453   1.459   8.005  0.0230 -0.8140  4.0423
   60SAPC  C312 4683   5.476   1.646   7.911  0.4052  0.1279  0.1628
   60SAPC  H12X 4684   5.556   1.591   7.856 -0.5148 -1.2792  0.1826
   60SAPC  H12Y 4685   5.501   1.751   7.936 -2.1115  0.9445 -0.4184
   60SAPC  C313 4686   5.338   1.635   7.835 -0.1656 -0.0991 -1.0008
   60SAPC  H13X 4687   5.272   1.696   7.900  0.9306  0.8401 -0.7268
   60SAPC  H13Y 4688   5.312   1.527   7.826  0.8116 -0.5633  1.1078
   60SAPC  C314 4689   5.350   1.687   7.694 -0.3970 -1.1583  0.1787
   60SAPC  H14X 4690   5.433   1.624   7.654  0.2626 -0.2184  0.0255
   60SAPC  H14Y 4691   5.397   1.787   7.689  1.0012 -1.8518 -2.5224
   60SAPC  C315 4692   5.218   1.684   7.613 -0.6775 -0.4001  0.0603
   60SAPC  H15X 4693   5.164   1.592   7.645  1.1249 -1.1419  1.1662
   60SAPC  H15Y 4694   5.248   1.669   7.507  1.6302 -1.0583  0.7487
   60SAPC  C316 4695   5.138   1.814   7.629 -0.3944 -0.1121  0.1259
   60SAPC  H16X 4696   5.196   1.899   7.588 -1.9223  1.2430  0.6852
   60SAPC  H16Y 4697   5.115   1.839   7.735  0.3408 -0.2269  0.3248
   60SAPC  C317 4698   5.006   1.792   7.565  0.6903 -0.3199 -0.3056
   60SAPC  H17X 4699   4.958   1.701   7.607  1.8681 -2.2558 -2.8788
   60SAPC  H17Y 4700   5.021   1.768   7.457 -1.3866 -3.8359  0.0098
   60SAPC  C318 4701   4.921   1.919   7.592  0.5948  0.4411 -0.0206
   60SAPC  H18X 4702   4.840   1.928   7.516 -0.7087  0.1323  1.2908
   60SAPC  H18Y 4703   4.991   2.004   7.584  2.3089 -0.9415 -0.3106
   60SAPC  H18Z 4704   4.877   1.912   7.693 -0.3300 -1.6822 -0.5093
   61SAPC     N 4705   1.764   6.806   9.413 -0.1361  0.1473 -0.4441
   61SAPC   C12 4706   1.758   6.724   9.280  0.5824  0.2692 -0.0744
   61SAPC  H12A 4707   1.818   6.767   9.201  1.8913  1.0341  1.2705
   61SAPC  H12B 4708   1.658   6.744   9.242  0.2713  1.0448  1.0907
   61SAPC   C13 4709   1.809   6.945   9.382 -0.1340 -0.2828 -0.2021
   61SAPC  H13A 4710   1.914   6.960   9.361 -0.1583 -1.1884 -1.0381
   61SAPC  H13B 4711   1.753   6.985   9.299  2.3269 -0.0415 -1.8448
   61SAPC  H13C 4712   1.789   7.009   9.467  1.9022 -0.8468  0.7616
   61SAPC   C14 4713   1.631   6.823   9.476 -0.6795 -0.2292 -0.7214
   61SAPC  H14A 4714   1.597   6.726   9.505 -0.0245 -0.4046 -0.5203
   61SAPC  H14B 4715   1.633   6.886   9.564  0.6550  0.7330 -1.3976
   61SAPC  H14C 4716   1.568   6.862   9.397  1.2496  1.9801 -1.3016
   61SAPC   C15 4717   1.861   6.751   9.516  0.0519  0.3797  0.0294
   61SAPC  H15A 4718   1.845   6.805   9.608  1.2790 -0.5616  0.8289
   61SAPC  H15B 4719   1.842   6.645   9.527 -0.2240  0.2055 -1.8104
   61SAPC  H15C 4720   1.966   6.760   9.494  0.2247 -0.2117  0.6006
   61SAPC   C11 4721   1.776   6.569   9.288 -0.1394 -1.1809  0.1490
   61SAPC  H11A 4722   1.885   6.555   9.300  0.2102  0.4512 -0.7799
   61SAPC  H11B 4723   1.749   6.531   9.187 -0.5021  0.9197 -0.6048
   61SAPC     P 4724   1.562   6.458   9.392  0.1997  0.2656 -0.5373
   61SAPC   O13 4725   1.560   6.323   9.453  0.2774  0.3237  0.2533
   61SAPC   O14 4726   1.481   6.560   9.468 -0.0292 -0.0918  0.7265
   61SAPC   O12 4727   1.714   6.507   9.396  0.2316  0.5286  0.2471
   61SAPC   O11 4728   1.513   6.462   9.246  0.4574 -0.3281 -0.5291
   61SAPC    C1 4729   1.531   6.366   9.154 -0.0023  0.0463  0.1468
   61SAPC    HA 4730   1.634   6.363   9.113  0.0221  0.6489  0.1588
   61SAPC    HB 4731   1.499   6.270   9.201 -1.7091  1.0855  1.2309
   61SAPC    C2 4732   1.453   6.409   9.028 -0.5461 -0.3275  0.2114
   61SAPC    HS 4733   1.343   6.407   9.041 -0.7922 -0.2742 -1.6196
   61SAPC   O21 4734   1.502   6.330   8.916  0.0235 -0.2513 -0.3359
   61SAPC   C21 4735   1.426   6.303   8.812 -0.2563  0.3688 -0.2288
   61SAPC   O22 4736   1.306   6.301   8.811  0.0912 -0.4821  0.2079
   61SAPC   C22 4737   1.509   6.270   8.685  0.0859 -0.3878  0.3531
   61SAPC   H2R 4738   1.594   6.342   8.684  2.1335 -2.6603 -0.0587
   61SAPC   H2S 4739   1.549   6.167   8.698  0.2503 -0.5770 -1.5059
   61SAPC    C3 4740   1.478   6.557   8.988 -0.0191 -0.0893  0.0993
   61SAPC    HX 4741   1.588   6.567   9.002 -0.3875  1.5719  2.5660
   61SAPC    HY 4742   1.437   6.610   9.077 -1.0215 -0.9396  0.1636
   61SAPC   O31 4743   1.439   6.606   8.854  0.1644  0.6249  0.0718
   61SAPC   C31 4744   1.480   6.735   8.847 -0.4551  0.4269 -0.6331
   61SAPC   O32 4745   1.512   6.807   8.942  0.4282 -0.0790 -0.3014
   61SAPC   C32 4746   1.489   6.786   8.692  0.1582 -0.1370 -0.2497
   61SAPC   H2X 4747   1.392   6.760   8.644 -0.7040  1.5487  0.5201
   61SAPC   H2Y 4748   1.570   6.725   8.645  1.7774  1.2009  0.7222
   61SAPC   C23 4749   1.423   6.269   8.554 -0.0022 -0.5778  0.3121
   61SAPC   H3R 4750   1.376   6.369   8.540 -1.1067 -0.5773  3.2071
   61SAPC   H3S 4751   1.332   6.206   8.569 -0.4118 -0.2697 -0.8227
   61SAPC   C24 4752   1.489   6.198   8.435  0.3060  0.5777 -0.3523
   61SAPC   H4R 4753   1.414   6.207   8.354  0.8440 -0.2546 -0.9552
   61SAPC   H4S 4754   1.478   6.093   8.469  0.4113  0.8176  0.4577
   61SAPC   C25 4755   1.625   6.258   8.415 -0.8197  0.1607 -0.0056
   61SAPC   H5R 4756   1.642   6.366   8.427 -1.4225  0.2281  0.2457
   61SAPC   C26 4757   1.739   6.186   8.406 -0.3011 -0.3130 -0.1283
   61SAPC   H6R 4758   1.837   6.237   8.409 -0.4406 -0.0532  0.0452
   61SAPC   C27 4759   1.748   6.040   8.411  0.6684  0.5899  0.8201
   61SAPC   H7R 4760   1.707   6.000   8.316 -0.4547  0.2262  1.4387
   61SAPC   H7S 4761   1.684   5.991   8.488 -0.0977 -0.2806 -0.3267
   61SAPC   C28 4762   1.894   5.979   8.427 -0.0390  0.0541 -0.3154
   61SAPC   H8R 4763   1.928   6.000   8.530 -1.7481  0.3243  0.2295
   61SAPC   C29 4764   1.984   5.934   8.338  0.3399  0.1132 -0.1113
   61SAPC   H9R 4765   2.080   5.892   8.373  0.6347  1.0064  0.1818
   61SAPC  C210 4766   1.968   5.898   8.191 -0.5310 -0.6323 -0.9898
   61SAPC  H10R 4767   1.873   5.944   8.157 -1.1787 -1.2708 -0.1114
   61SAPC  H10S 4768   1.963   5.787   8.183 -1.4495 -0.6062 -0.8882
   61SAPC  C211 4769   2.088   5.934   8.101 -0.2937  0.4974  0.1417
   61SAPC  H11R 4770   2.174   5.866   8.107  0.3987  1.2095 -1.2814
   61SAPC  C212 4771   2.101   6.041   8.021  0.8151  0.0410 -0.6110
   61SAPC  H12R 4772   2.196   6.059   7.969  2.1726 -1.3222  1.2591
   61SAPC  C213 4773   1.986   6.144   8.003 -0.4055 -0.3028 -0.6724
   61SAPC  H13R 4774   2.034   6.229   7.950  0.2424 -0.8122 -0.9113
   61SAPC  H13S 4775   1.961   6.178   8.106  0.4973 -2.8103  0.4519
   61SAPC  C214 4776   1.868   6.092   7.918 -0.1469  0.0018  0.2375
   61SAPC  H14R 4777   1.840   5.989   7.945  1.0834 -0.2959  0.4477
   61SAPC  C215 4778   1.816   6.142   7.811  0.7916 -0.4912 -0.1454
   61SAPC  H15R 4779   1.740   6.082   7.759 -0.0657  1.8621 -1.7566
   61SAPC  C216 4780   1.843   6.275   7.747  0.2270  0.3127  0.2064
   61SAPC  H16R 4781   1.843   6.274   7.636 -1.2867  0.4739  0.1823
   61SAPC  H16S 4782   1.943   6.316   7.773 -0.0355  1.7079 -0.8557
   61SAPC  C217 4783   1.743   6.387   7.784 -0.1535 -0.4178 -0.1189
   61SAPC  H17R 4784   1.745   6.395   7.895 -1.1332 -0.9311 -0.0457
   61SAPC  H17S 4785   1.647   6.335   7.758 -0.5287 -1.3404  2.7665
   61SAPC  C218 4786   1.772   6.520   7.712  0.2093  0.1582  0.4257
   61SAPC  H18R 4787   1.738   6.509   7.607 -0.3523 -0.3531  0.6553
   61SAPC  H18S 4788   1.883   6.525   7.718  0.5238 -0.8080 -2.9049
   61SAPC  C219 4789   1.684   6.640   7.767  0.4690 -0.4693  0.6652
   61SAPC  H19R 4790   1.718   6.736   7.722  1.2852 -1.6256 -1.3271
   61SAPC  H19S 4791   1.689   6.661   7.876  0.7191 -0.8044  0.7219
   61SAPC  C220 4792   1.540   6.623   7.733 -0.6679 -0.1984 -0.3402
   61SAPC  H20R 4793   1.493   6.557   7.809 -0.2274 -0.3380 -0.1800
   61SAPC  H20S 4794   1.532   6.583   7.629  1.0206  0.1679 -0.6511
   61SAPC  H20T 4795   1.482   6.717   7.742  0.8309  0.7405 -0.0181
   61SAPC   C33 4796   1.499   6.939   8.678 -0.5765 -0.1063  0.1252
   61SAPC   H3X 4797   1.591   6.972   8.731 -1.0853 -1.1953  1.7723
   61SAPC   H3Y 4798   1.415   6.976   8.740 -0.2686  2.9585 -1.1337
   61SAPC   C34 4799   1.492   7.005   8.542 -0.4645  0.0330  0.0720
   61SAPC   H4X 4800   1.529   7.109   8.555  0.5554 -0.5956  3.3601
   61SAPC   H4Y 4801   1.384   7.007   8.516 -0.5360 -1.4338  0.1765
   61SAPC   C35 4802   1.578   6.933   8.440 -0.8225  0.7723  0.7863
   61SAPC   H5X 4803   1.518   6.845   8.408  2.7460 -1.9504  0.9344
   61SAPC   H5Y 4804   1.670   6.888   8.483  1.5357  2.4118 -2.1747
   61SAPC   C36 4805   1.630   7.019   8.324 -0.2962  0.8729  0.1871
   61SAPC   H6X 4806   1.691   6.955   8.256 -0.5416  0.6543  0.1714
   61SAPC   H6Y 4807   1.687   7.103   8.369  0.6313  0.2474  0.2298
   61SAPC   C37 4808   1.517   7.075   8.229  0.0542  0.1814 -0.3446
   61SAPC   H7X 4809   1.466   7.158   8.283 -1.6228 -2.7206  2.9725
   61SAPC   H7Y 4810   1.456   6.984   8.212 -0.8156  0.6109  0.4027
   61SAPC   C38 4811   1.565   7.127   8.094  0.5542  0.4347 -0.5019
   61SAPC   H8X 4812   1.673   7.153   8.090  0.8104 -0.6491 -0.7900
   61SAPC   H8Y 4813   1.492   7.205   8.064  1.5275  1.9554  0.8990
   61SAPC   C39 4814   1.533   7.006   7.990  0.0539  0.5441 -0.2951
   61SAPC   H9X 4815   1.427   6.982   8.014  0.2244  0.4787  0.4197
   61SAPC   H9Y 4816   1.584   6.913   8.025  1.7157  1.7050  0.4921
   61SAPC  C310 4817   1.556   7.039   7.840  0.1221 -0.3188 -1.0040
   61SAPC  H10X 4818   1.541   6.940   7.791 -2.4810 -0.1277 -0.7173
   61SAPC  H10Y 4819   1.656   7.080   7.814  0.0820 -0.9454 -2.2437
   61SAPC  C311 4820   1.439   7.136   7.796 -0.5999 -0.3790  0.7656
   61SAPC  H11X 4821   1.456   7.240   7.831  0.8466 -0.5579  0.6569
   61SAPC  H11Y 4822   1.348   7.088   7.838 -0.6694 -2.5230 -1.6299
   61SAPC  C312 4823   1.417   7.139   7.645  0.2779  0.9043 -0.3104
   61SAPC  H12X 4824   1.396   7.035   7.613  0.4248  0.4513  1.0025
   61SAPC  H12Y 4825   1.518   7.171   7.611  2.2331 -1.4263  2.7706
   61SAPC  C313 4826   1.323   7.232   7.593 -0.8233 -0.1625  0.1260
   61SAPC  H13X 4827   1.350   7.335   7.625  1.6199 -0.7960  0.3105
   61SAPC  H13Y 4828   1.226   7.212   7.645  0.5045  1.1395  3.3428
   61SAPC  C314 4829   1.290   7.217   7.438 -0.6414  0.4652  0.2354
   61SAPC  H14X 4830   1.202   7.282   7.420 -1.5632 -1.0123 -0.7804
   61SAPC  H14Y 4831   1.254   7.113   7.422  2.4677 -0.5279 -0.9841
   61SAPC  C315 4832   1.411   7.250   7.347 -0.2750  1.7207 -0.0094
   61SAPC  H15X 4833   1.399   7.209   7.244 -0.3753 -0.7867  0.9248
   61SAPC  H15Y 4834   1.504   7.196   7.375 -0.9412 -0.6741 -1.9845
   61SAPC  C316 4835   1.440   7.402   7.322 -0.0850 -0.3309  0.0881
   61SAPC  H16X 4836   1.522   7.415   7.248 -0.4286 -1.1966 -0.4573
   61SAPC  H16Y 4837   1.482   7.445   7.416 -2.3406  0.7153  0.6914
   61SAPC  C317 4838   1.321   7.482   7.281  1.1050  0.9305 -0.3873
   61SAPC  H17X 4839   1.257   7.489   7.371  0.2031 -0.9350 -0.8260
   61SAPC  H17Y 4840   1.266   7.413   7.213 -0.0120 -2.6565  3.7145
   61SAPC  C318 4841   1.373   7.624   7.235 -0.7327 -0.2162 -0.5810
   61SAPC  H18X 4842   1.416   7.606   7.134 -0.6678  0.5440 -0.6893
   61SAPC  H18Y 4843   1.455   7.659   7.300  0.4058  0.1349 -2.1478
   61SAPC  H18Z 4844   1.290   7.697   7.237 -0.3753  0.1768  0.7995
   62SAPC     N 4845   0.879   5.860   9.690  0.7369  0.0618  0.2290
   62SAPC   C12 4846   0.803   5.896   9.567  0.0151 -0.2269  0.0219
   62SAPC  H12A 4847   0.715   5.948   9.600  0.0289  1.8751 -2.8683
   62SAPC  H12B 4848   0.790   5.813   9.499 -0.0098  1.5646 -2.2942
   62SAPC   C13 4849   0.868   5.972   9.790  0.3953 -0.3576 -0.4237
   62SAPC  H13A 4850   0.761   5.980   9.809  0.7246  0.9682  1.0914
   62SAPC  H13B 4851   0.904   5.935   9.885 -1.9266  1.2614  1.2267
   62SAPC  H13C 4852   0.900   6.068   9.753  1.5259 -1.6258 -2.9922
   62SAPC   C14 4853   0.820   5.733   9.754  0.1255 -0.6228 -0.2908
   62SAPC  H14A 4854   0.712   5.737   9.755  0.1379  0.7494 -1.6662
   62SAPC  H14B 4855   0.854   5.644   9.704 -0.4178 -0.1828 -1.4613
   62SAPC  H14C 4856   0.862   5.731   9.854  0.6905  1.9054 -0.4290
   62SAPC   C15 4857   1.023   5.820   9.655 -0.1818  0.0647 -0.5009
   62SAPC  H15A 4858   1.068   5.782   9.746 -4.3701  2.8793  3.2073
   62SAPC  H15B 4859   1.032   5.744   9.579 -0.9001 -0.8051  0.2473
   62SAPC  H15C 4860   1.077   5.909   9.627 -1.9605  0.8229 -1.7812
   62SAPC   C11 4861   0.879   6.003   9.477  0.0748  0.3243 -0.3841
   62SAPC  H11A 4862   0.813   6.018   9.388 -2.1637  1.4124  1.3650
   62SAPC  H11B 4863   0.970   5.961   9.431 -0.0334  0.6011 -0.8626
   62SAPC     P 4864   0.802   6.252   9.557  0.2101 -0.3224 -0.0535
   62SAPC   O13 4865   0.678   6.194   9.616  0.2998 -0.1525  0.1784
   62SAPC   O14 4866   0.854   6.370   9.628 -0.0954  0.3316  0.0482
   62SAPC   O12 4867   0.907   6.132   9.542 -0.8512 -0.2969 -0.4818
   62SAPC   O11 4868   0.776   6.287   9.410 -0.5855  0.1301  0.4197
   62SAPC    C1 4869   0.884   6.296   9.317 -0.3892  0.3286  0.8717
   62SAPC    HA 4870   0.975   6.254   9.365 -1.6244 -0.1179  2.9815
   62SAPC    HB 4871   0.860   6.239   9.225 -0.3454 -1.6948  2.0434
   62SAPC    C2 4872   0.908   6.444   9.274 -0.6060 -0.5793  0.1916
   62SAPC    HS 4873   0.922   6.504   9.366  1.0996 -1.6155  0.6538
   62SAPC   O21 4874   0.802   6.503   9.194  0.0102  0.4120  0.4972
   62SAPC   C21 4875   0.803   6.625   9.152 -0.6109 -0.2577 -0.1952
   62SAPC   O22 4876   0.872   6.714   9.201  0.5940 -0.1594  0.1723
   62SAPC   C22 4877   0.691   6.656   9.041  0.6509 -0.0968 -0.3370
   62SAPC   H2R 4878   0.591   6.649   9.089 -0.1713  0.0957 -1.9494
   62SAPC   H2S 4879   0.706   6.763   9.015  0.1775  1.8459  5.7751
   62SAPC    C3 4880   1.040   6.452   9.195  0.4990 -0.5855  0.4364
   62SAPC    HX 4881   1.119   6.427   9.270  0.0728 -0.9835  0.7680
   62SAPC    HY 4882   1.044   6.554   9.152  0.5079 -1.1159 -0.8700
   62SAPC   O31 4883   1.050   6.348   9.090  0.2470 -0.5146  0.2462
   62SAPC   C31 4884   1.020   6.389   8.965  0.0701  0.5269  0.2567
   62SAPC   O32 4885   1.029   6.500   8.917 -0.4083 -0.0144  0.0715
   62SAPC   C32 4886   0.967   6.272   8.897  0.1973 -0.7265 -0.9284
   62SAPC   H2X 4887   0.867   6.256   8.941  0.5341 -1.0530 -0.2744
   62SAPC   H2Y 4888   1.024   6.179   8.917 -0.5491 -0.4987  2.9546
   62SAPC   C23 4889   0.696   6.571   8.907  0.7970 -0.1411  0.3879
   62SAPC   H3R 4890   0.700   6.467   8.946 -1.0916  0.1203  1.3989
   62SAPC   H3S 4891   0.793   6.591   8.856 -0.8752 -0.1939 -3.0809
   62SAPC   C24 4892   0.570   6.581   8.814 -0.0435 -0.5514 -0.3496
   62SAPC   H4R 4893   0.474   6.581   8.870 -1.6347  2.0183 -2.7897
   62SAPC   H4S 4894   0.565   6.492   8.747 -0.5932  0.5340 -1.7856
   62SAPC   C25 4895   0.578   6.706   8.729 -0.4114 -0.3540 -0.4258
   62SAPC   H5R 4896   0.555   6.800   8.782 -0.4117 -1.3719  1.4485
   62SAPC   C26 4897   0.636   6.713   8.610  0.0948  0.2898 -0.5403
   62SAPC   H6R 4898   0.630   6.808   8.555 -3.1154 -0.1007 -1.0411
   62SAPC   C27 4899   0.701   6.602   8.531  0.2790  0.4491 -0.0200
   62SAPC   H7R 4900   0.641   6.582   8.439 -1.0707  0.5746  0.8126
   62SAPC   H7S 4901   0.695   6.506   8.585 -0.7831  1.1237  1.1141
   62SAPC   C28 4902   0.844   6.625   8.489 -0.4629  0.2978 -0.7187
   62SAPC   H8R 4903   0.914   6.630   8.574 -1.4049  0.7927  0.0547
   62SAPC   C29 4904   0.878   6.643   8.359 -0.5412 -0.6281  0.1677
   62SAPC   H9R 4905   0.983   6.665   8.334 -0.4580  0.4801  1.3623
   62SAPC  C210 4906   0.783   6.653   8.242  0.6609  0.5558 -1.0627
   62SAPC  H10R 4907   0.828   6.730   8.176 -0.1512  1.2643 -0.8027
   62SAPC  H10S 4908   0.686   6.694   8.277  0.8988 -1.5017  2.5964
   62SAPC  C211 4909   0.754   6.519   8.180 -0.1941  0.0403  0.1607
   62SAPC  H11R 4910   0.686   6.452   8.235 -0.6777  1.1062  0.8912
   62SAPC  C212 4911   0.796   6.490   8.056  0.0117  0.6722 -0.2554
   62SAPC  H12R 4912   0.769   6.391   8.014 -1.1097  0.9429 -0.1997
   62SAPC  C213 4913   0.880   6.580   7.966  0.6603  0.2076  0.1060
   62SAPC  H13R 4914   0.942   6.655   8.019  0.7472 -0.1921  0.5853
   62SAPC  H13S 4915   0.815   6.641   7.900  0.7793 -1.9120 -2.1128
   62SAPC  C214 4916   0.962   6.498   7.864  0.2130 -0.1019 -0.0955
   62SAPC  H14R 4917   0.907   6.414   7.821  0.4584  0.1995 -1.0342
   62SAPC  C215 4918   1.087   6.518   7.839  0.1765 -0.1351  0.1524
   62SAPC  H15R 4919   1.151   6.448   7.783 -0.2994 -1.1308  0.8206
   62SAPC  C216 4920   1.167   6.625   7.903  0.8756 -0.1247  0.2136
   62SAPC  H16R 4921   1.104   6.716   7.912 -1.2905 -1.3312 -1.6884
   62SAPC  H16S 4922   1.253   6.649   7.837  0.8323 -0.2202  0.1219
   62SAPC  C217 4923   1.210   6.592   8.043  0.6601  0.7470  0.2607
   62SAPC  H17R 4924   1.258   6.493   8.059  1.1986  1.5466  5.5525
   62SAPC  H17S 4925   1.124   6.594   8.113 -0.3466 -2.0391 -0.7477
   62SAPC  C218 4926   1.321   6.687   8.089  0.0354 -0.3001 -0.1920
   62SAPC  H18R 4927   1.285   6.791   8.108  1.1317 -0.1430  1.1918
   62SAPC  H18S 4928   1.400   6.691   8.011  2.2225  0.1660  1.9105
   62SAPC  C219 4929   1.395   6.658   8.220 -0.0408 -0.1652 -0.6397
   62SAPC  H19R 4930   1.477   6.733   8.233  0.4904 -0.7583 -0.5196
   62SAPC  H19S 4931   1.451   6.563   8.211  2.8750  1.3311  0.2177
   62SAPC  C220 4932   1.315   6.670   8.354  0.6713 -0.7426  0.1531
   62SAPC  H20R 4933   1.246   6.585   8.368 -1.2521  0.5517 -0.9344
   62SAPC  H20S 4934   1.244   6.753   8.335  1.2279 -0.1736  0.4927
   62SAPC  H20T 4935   1.382   6.686   8.441  1.4869  0.4058 -0.6437
   62SAPC   C33 4936   0.950   6.299   8.745  0.0328 -0.3788 -0.1433
   62SAPC   H3X 4937   1.051   6.326   8.708  0.1870  0.7407  1.0235
   62SAPC   H3Y 4938   0.881   6.384   8.726  0.6188  0.0351 -0.4580
   62SAPC   C34 4939   0.900   6.171   8.689 -0.5274 -0.2470 -0.3347
   62SAPC   H4X 4940   0.798   6.150   8.728 -1.0338 -0.7465 -1.8353
   62SAPC   H4Y 4941   0.957   6.081   8.718  0.9886  0.2143 -1.7108
   62SAPC   C35 4942   0.893   6.162   8.534  0.5137 -0.4687  0.3052
   62SAPC   H5X 4943   0.811   6.230   8.504  0.9531 -0.0377  0.0597
   62SAPC   H5Y 4944   0.864   6.063   8.494  1.1871 -0.0443 -1.2943
   62SAPC   C36 4945   1.023   6.186   8.458  0.2379  0.0182 -0.7433
   62SAPC   H6X 4946   1.097   6.113   8.498 -1.1180 -0.7518  0.4842
   62SAPC   H6Y 4947   1.069   6.285   8.481 -2.5519  0.9667  1.3009
   62SAPC   C37 4948   1.004   6.166   8.311  0.0338  0.5169  0.3957
   62SAPC   H7X 4949   0.935   6.239   8.265  2.0204  3.4246  1.7367
   62SAPC   H7Y 4950   0.965   6.064   8.289  3.1305 -0.3360 -1.8621
   62SAPC   C38 4951   1.137   6.176   8.235  0.4770  0.2883  0.6800
   62SAPC   H8X 4952   1.216   6.100   8.253  1.5923  0.8360 -1.5149
   62SAPC   H8Y 4953   1.187   6.272   8.258 -1.8015  1.0854  2.6204
   62SAPC   C39 4954   1.112   6.164   8.088  0.0057 -0.5104  0.8895
   62SAPC   H9X 4955   1.052   6.248   8.047  1.3887 -0.5381 -1.3507
   62SAPC   H9Y 4956   1.048   6.075   8.065  1.6353 -0.9409 -2.6996
   62SAPC  C310 4957   1.241   6.141   8.001 -0.6190 -0.3202 -0.4958
   62SAPC  H10X 4958   1.310   6.226   8.018 -0.3488 -0.1068 -2.5167
   62SAPC  H10Y 4959   1.213   6.141   7.894  2.9447  2.2069 -1.6051
   62SAPC  C311 4960   1.310   6.008   8.032 -0.0314 -0.6617  0.0027
   62SAPC  H11X 4961   1.233   5.929   8.019 -2.1879  1.4393 -0.8569
   62SAPC  H11Y 4962   1.356   6.005   8.133 -1.7592 -2.7275  0.7987
   62SAPC  C312 4963   1.418   5.986   7.917  0.9792  0.3374 -0.4305
   62SAPC  H12X 4964   1.490   6.070   7.928 -2.0767  3.0404  0.5398
   62SAPC  H12Y 4965   1.366   5.999   7.819 -1.3872  0.3227  0.7462
   62SAPC  C313 4966   1.478   5.845   7.930  0.5549 -1.1912  0.7441
   62SAPC  H13X 4967   1.538   5.830   7.838 -0.1833  1.2464 -0.2295
   62SAPC  H13Y 4968   1.393   5.774   7.927  0.6540 -1.3091 -1.9708
   62SAPC  C314 4969   1.564   5.824   8.052  0.3061  0.0565  0.0222
   62SAPC  H14X 4970   1.506   5.840   8.145 -0.1647 -2.6220  0.2808
   62SAPC  H14Y 4971   1.657   5.884   8.054 -0.1070  0.9654 -2.9291
   62SAPC  C315 4972   1.594   5.675   8.073 -0.3757 -0.5848 -0.2744
   62SAPC  H15X 4973   1.498   5.620   8.061 -0.3776 -0.5025 -0.6701
   62SAPC  H15Y 4974   1.636   5.656   8.174 -0.5387  0.8053  0.0858
   62SAPC  C316 4975   1.685   5.613   7.970  0.1222  0.1215 -0.3300
   62SAPC  H16X 4976   1.792   5.643   7.981 -0.4138  3.1678 -2.2540
   62SAPC  H16Y 4977   1.659   5.652   7.869  1.6196 -0.6903 -1.0565
   62SAPC  C317 4978   1.687   5.458   7.970  0.8718  0.1544 -0.7705
   62SAPC  H17X 4979   1.582   5.427   7.955 -0.1795  1.5634  2.6794
   62SAPC  H17Y 4980   1.728   5.422   8.067 -1.5049 -1.1138 -0.1743
   62SAPC  C318 4981   1.778   5.395   7.858  0.4471 -0.9159  0.1024
   62SAPC  H18X 4982   1.883   5.428   7.873  0.6304 -0.9331 -1.0567
   62SAPC  H18Y 4983   1.749   5.419   7.753 -0.7283 -2.2554  0.1002
   62SAPC  H18Z 4984   1.781   5.284   7.860 -0.8465 -0.9660  1.3705
   63SAPC     N 4985   3.430   4.283   5.216 -0.1977  0.2328  0.0932
   63SAPC   C12 4986   3.451   4.194   5.330 -0.0596  0.0309 -0.0605
   63SAPC  H12A 4987   3.485   4.099   5.290 -0.2223  0.2593 -0.7514
   63SAPC  H12B 4988   3.359   4.177   5.383  1.8797 -0.5518  3.3989
   63SAPC   C13 4989   3.563   4.313   5.155 -0.2221  0.5087  0.6426
   63SAPC  H13A 4990   3.625   4.356   5.233  0.1601  1.9172 -0.4012
   63SAPC  H13B 4991   3.617   4.226   5.120 -2.4753 -0.1777 -1.3829
   63SAPC  H13C 4992   3.561   4.386   5.076 -1.1673 -0.1834  0.0061
   63SAPC   C14 4993   3.352   4.230   5.106  0.4091  0.1522 -0.0928
   63SAPC  H14A 4994   3.320   4.305   5.036 -0.3482 -0.5083 -0.4715
   63SAPC  H14B 4995   3.405   4.157   5.045 -0.8907  0.3196 -1.4764
   63SAPC  H14C 4996   3.261   4.194   5.151 -0.8287  2.2834 -0.7693
   63SAPC   C15 4997   3.362   4.412   5.270 -0.3805 -0.0629  0.1114
   63SAPC  H15A 4998   3.421   4.451   5.352 -1.8342 -1.4740  1.9122
   63SAPC  H15B 4999   3.346   4.484   5.191  2.3082  0.0042 -0.4798
   63SAPC  H15C 5000   3.270   4.392   5.322  0.3008 -1.4810  0.8318
   63SAPC   C11 5001   3.545   4.232   5.435  0.3066  0.2030  0.2440
   63SAPC  H11A 5002   3.647   4.242   5.392  1.3763 -2.2338  1.9431
   63SAPC  H11B 5003   3.564   4.141   5.497 -1.0785 -0.7145 -0.6258
   63SAPC     P 5004   3.587   4.461   5.561 -0.1218 -0.1715  0.0481
   63SAPC   O13 5005   3.691   4.503   5.470 -0.1700  0.1493  0.4297
   63SAPC   O14 5006   3.487   4.570   5.587  0.2193 -0.5063 -0.1265
   63SAPC   O12 5007   3.501   4.339   5.518  0.1670  0.1588 -0.1226
   63SAPC   O11 5008   3.650   4.412   5.690 -0.7393  0.1645 -0.1543
   63SAPC    C1 5009   3.603   4.306   5.774  0.1458  0.4465 -0.2795
   63SAPC    HA 5010   3.559   4.229   5.706  0.3534 -0.2522  0.3657
   63SAPC    HB 5011   3.690   4.267   5.829 -0.5245  0.8784  1.1376
   63SAPC    C2 5012   3.509   4.359   5.884 -0.0626  0.3755  0.8131
   63SAPC    HS 5013   3.403   4.375   5.855 -0.1095 -0.9637  0.1421
   63SAPC   O21 5014   3.566   4.477   5.948 -0.1815  0.0957  0.1106
   63SAPC   C21 5015   3.490   4.572   5.992  0.7469  0.2577  0.0725
   63SAPC   O22 5016   3.367   4.563   5.993  0.8126  0.5431  0.3695
   63SAPC   C22 5017   3.568   4.700   6.028  0.0913  0.2164  0.2523
   63SAPC   H2R 5018   3.638   4.724   5.944  0.5410 -0.6456  0.3646
   63SAPC   H2S 5019   3.496   4.784   6.027 -1.1163 -0.6175  3.7238
   63SAPC    C3 5020   3.484   4.251   5.990  0.4463  0.0827 -0.3464
   63SAPC    HX 5021   3.427   4.169   5.942 -2.3543  0.8389  1.4679
   63SAPC    HY 5022   3.416   4.288   6.069  2.2745 -0.4837  1.6050
   63SAPC   O31 5023   3.600   4.212   6.061  0.2841  0.5703  0.3235
   63SAPC   C31 5024   3.585   4.096   6.126  0.0775  0.2034  0.2679
   63SAPC   O32 5025   3.497   4.013   6.094  0.5842  0.7290 -0.3502
   63SAPC   C32 5026   3.694   4.076   6.230  0.3417  0.3239  0.3954
   63SAPC   H2X 5027   3.787   4.057   6.172 -0.7961  1.4739 -1.9394
   63SAPC   H2Y 5028   3.656   3.989   6.288  2.7624 -1.2782 -0.2594
   63SAPC   C23 5029   3.635   4.700   6.166  0.3339 -0.3213  0.3137
   63SAPC   H3R 5030   3.701   4.614   6.188  0.5669 -0.5001 -0.9813
   63SAPC   H3S 5031   3.562   4.709   6.249  1.1112  0.2865  0.9504
   63SAPC   C24 5032   3.720   4.832   6.179 -0.0522 -0.2592 -0.9916
   63SAPC   H4R 5033   3.736   4.831   6.289 -2.1012 -0.8441 -0.6563
   63SAPC   H4S 5034   3.656   4.915   6.142 -0.2982 -0.1693 -0.3858
   63SAPC   C25 5035   3.843   4.824   6.089  0.0525 -0.1855  0.0392
   63SAPC   H5R 5036   3.812   4.847   5.985 -0.2832 -2.3664 -0.3963
   63SAPC   C26 5037   3.967   4.787   6.114 -0.1833  0.3287 -0.5473
   63SAPC   H6R 5038   4.040   4.794   6.031  1.4999 -0.7037  0.7691
   63SAPC   C27 5039   4.034   4.735   6.238 -0.1069 -0.1752  0.7467
   63SAPC   H7R 5040   4.011   4.807   6.319  1.7920  0.2046  1.0047
   63SAPC   H7S 5041   4.144   4.745   6.224  0.2732 -2.1428  2.0114
   63SAPC   C28 5042   3.993   4.599   6.272 -0.1790 -0.0313  0.7854
   63SAPC   H8R 5043   3.884   4.591   6.283 -0.3150  0.9305  0.2144
   63SAPC   C29 5044   4.066   4.488   6.288 -0.3441  0.5422 -0.3304
   63SAPC   H9R 5045   4.004   4.400   6.309 -3.2283  2.3524 -0.6508
   63SAPC  C210 5046   4.217   4.467   6.272  0.5489  0.3425  0.0346
   63SAPC  H10R 5047   4.275   4.535   6.338  0.0542  0.7034  0.1035
   63SAPC  H10S 5048   4.234   4.481   6.163  1.4306 -1.0135 -0.0230
   63SAPC  C211 5049   4.250   4.321   6.284  0.0956  0.3067  0.6825
   63SAPC  H11R 5050   4.239   4.267   6.190 -0.1457  2.2103 -0.4440
   63SAPC  C212 5051   4.266   4.248   6.399  0.8100 -0.0976  0.8404
   63SAPC  H12R 5052   4.263   4.138   6.393  0.8864 -0.0847  0.5466
   63SAPC  C213 5053   4.268   4.295   6.543 -0.4969 -0.7157 -0.1021
   63SAPC  H13R 5054   4.302   4.401   6.555 -2.3770 -0.2524  1.6134
   63SAPC  H13S 5055   4.350   4.234   6.586  0.6307  1.0414  0.3842
   63SAPC  C214 5056   4.138   4.264   6.611 -0.5970  0.0144  0.4615
   63SAPC  H14R 5057   4.066   4.346   6.622  0.5687  1.1669 -0.2434
   63SAPC  C215 5058   4.088   4.149   6.662  0.1693  0.1193  0.3150
   63SAPC  H15R 5059   3.991   4.154   6.712  0.5710 -1.1470  1.2564
   63SAPC  C216 5060   4.152   4.016   6.657  0.5065 -0.3597  0.4647
   63SAPC  H16R 5061   4.187   3.988   6.758 -1.3093 -0.6610  1.0397
   63SAPC  H16S 5062   4.236   4.017   6.585 -0.8486 -1.9546 -1.2502
   63SAPC  C217 5063   4.060   3.903   6.614  0.2048 -0.1263  0.5306
   63SAPC  H17R 5064   3.973   3.876   6.678 -0.9439  2.8315  0.3923
   63SAPC  H17S 5065   4.127   3.818   6.591 -0.2590  0.1168 -2.1034
   63SAPC  C218 5066   4.002   3.935   6.476  0.1511  0.0171 -0.6154
   63SAPC  H18R 5067   4.067   3.997   6.410  2.5678 -2.3103 -0.5925
   63SAPC  H18S 5068   3.906   3.988   6.491  0.4735  0.5612 -0.4575
   63SAPC  C219 5069   3.962   3.802   6.401  0.0226  0.0825  0.2980
   63SAPC  H19R 5070   4.050   3.755   6.352 -0.7015  0.1917 -1.1353
   63SAPC  H19S 5071   3.895   3.830   6.318 -1.6630 -2.9517  0.5168
   63SAPC  C220 5072   3.884   3.693   6.472  0.4459  0.4206 -0.3030
   63SAPC  H20R 5073   3.790   3.735   6.514  1.2133 -1.9328  4.3276
   63SAPC  H20S 5074   3.947   3.655   6.554 -0.2833 -1.1361 -0.4251
   63SAPC  H20T 5075   3.858   3.607   6.406  0.0332  0.5395 -0.2971
   63SAPC   C33 5076   3.711   4.198   6.312  0.2371  1.5037 -0.0461
   63SAPC   H3X 5077   3.755   4.273   6.243 -0.8471  0.8041 -1.5396
   63SAPC   H3Y 5078   3.784   4.181   6.394  1.9555  1.8204 -1.4513
   63SAPC   C34 5079   3.576   4.246   6.367  0.1568  0.5122 -0.2644
   63SAPC   H4X 5080   3.518   4.161   6.409  0.1126  0.6746  0.0056
   63SAPC   H4Y 5081   3.524   4.300   6.285 -2.5705 -1.1241  0.2644
   63SAPC   C35 5082   3.606   4.338   6.492  0.5181  0.1023  0.7166
   63SAPC   H5X 5083   3.648   4.274   6.572  1.5151  0.7869  0.7549
   63SAPC   H5Y 5084   3.510   4.385   6.524  0.4040  0.1909  0.2540
   63SAPC   C36 5085   3.716   4.447   6.465 -0.0622  0.2501 -1.1824
   63SAPC   H6X 5086   3.670   4.514   6.388 -2.1024  0.9934  0.6017
   63SAPC   H6Y 5087   3.809   4.396   6.432  1.1068  1.9896 -0.7425
   63SAPC   C37 5088   3.750   4.523   6.596  0.0580 -0.9453  0.1319
   63SAPC   H7X 5089   3.762   4.469   6.692 -1.4571  1.0743  1.5298
   63SAPC   H7Y 5090   3.661   4.589   6.610  1.2801  0.4855  1.6028
   63SAPC   C38 5091   3.864   4.622   6.581  0.1224  0.0438 -0.1726
   63SAPC   H8X 5092   3.855   4.690   6.494 -0.5666 -0.3312 -0.4002
   63SAPC   H8Y 5093   3.960   4.567   6.571 -0.6819 -1.1389 -1.5842
   63SAPC   C39 5094   3.865   4.716   6.695 -0.0633  0.4242 -0.1822
   63SAPC   H9X 5095   3.766   4.761   6.717  0.3633 -0.0318  3.3134
   63SAPC   H9Y 5096   3.940   4.796   6.675 -0.4251  0.1389 -2.9495
   63SAPC  C310 5097   3.924   4.649   6.826  0.3715  0.0705  0.0269
   63SAPC  H10X 5098   4.028   4.622   6.797  1.2518  4.0754 -1.0989
   63SAPC  H10Y 5099   3.881   4.550   6.853  2.3098 -1.3713 -1.7222
   63SAPC  C311 5100   3.941   4.741   6.947  0.6514  0.2380 -0.4062
   63SAPC  H11X 5101   3.987   4.838   6.918  0.9869  2.0866  5.1352
   63SAPC  H11Y 5102   4.007   4.698   7.025  0.3278  0.2554 -0.1196
   63SAPC  C312 5103   3.808   4.784   7.005 -0.4142  0.2330 -0.5840
   63SAPC  H12X 5104   3.744   4.700   7.037 -3.8412  2.5951 -0.6981
   63SAPC  H12Y 5105   3.743   4.822   6.923 -2.3654 -1.0331  0.3176
   63SAPC  C313 5106   3.824   4.886   7.115 -0.0405 -0.3224 -0.0699
   63SAPC  H13X 5107   3.869   4.981   7.079  2.4617 -0.6220  1.9619
   63SAPC  H13Y 5108   3.895   4.841   7.187  0.5177  0.7516  0.0744
   63SAPC  C314 5109   3.689   4.922   7.182 -0.3251  0.3050 -0.1186
   63SAPC  H14X 5110   3.646   4.821   7.197  3.3755 -1.0869  2.8377
   63SAPC  H14Y 5111   3.628   4.989   7.118 -0.0256  0.5268 -0.1720
   63SAPC  C315 5112   3.692   4.993   7.323 -0.5421 -0.2869 -0.3890
   63SAPC  H15X 5113   3.739   5.093   7.309 -1.1185 -0.1771 -1.6719
   63SAPC  H15Y 5114   3.750   4.927   7.390 -0.0779  1.5761  1.1218
   63SAPC  C316 5115   3.546   5.020   7.374 -0.2794 -0.3619  0.3375
   63SAPC  H16X 5116   3.486   4.927   7.360  0.3814 -1.2238  2.7019
   63SAPC  H16Y 5117   3.488   5.081   7.302  3.1430  1.8211 -0.7555
   63SAPC  C317 5118   3.526   5.084   7.516 -0.9513 -0.2719 -0.6673
   63SAPC  H17X 5119   3.558   5.008   7.590 -0.8239  0.6684  0.2548
   63SAPC  H17Y 5120   3.421   5.110   7.539 -0.0696  0.9633  2.4517
   63SAPC  C318 5121   3.620   5.210   7.530  0.6602  0.1030 -0.4206
   63SAPC  H18X 5122   3.730   5.192   7.531  0.7424  0.5773  0.9163
   63SAPC  H18Y 5123   3.597   5.260   7.627  2.4920  3.4523 -1.5604
   63SAPC  H18Z 5124   3.593   5.288   7.456  2.5613  1.7916  0.5632
   64SAPC     N 5125   3.783   6.132   5.329 -0.1514  0.2435  0.4893
   64SAPC   C12 5126   3.763   6.091   5.472 -1.0743 -0.3373  0.0819
   64SAPC  H12A 5127   3.764   5.983   5.477 -3.7873 -0.4870 -0.7402
   64SAPC  H12B 5128   3.662   6.107   5.506 -0.7652 -0.6558  1.2092
   64SAPC   C13 5129   3.690   6.052   5.234 -0.1350 -0.5158 -0.0400
   64SAPC  H13A 5130   3.703   5.946   5.252 -0.3006 -0.8617 -1.8282
   64SAPC  H13B 5131   3.587   6.077   5.251 -1.4364 -3.7813 -2.3391
   64SAPC  H13C 5132   3.713   6.073   5.131  0.5698 -1.9765 -0.2093
   64SAPC   C14 5133   3.741   6.276   5.310 -0.2396  0.3280  0.1561
   64SAPC  H14A 5134   3.634   6.283   5.320 -0.3412 -0.7472 -0.0453
   64SAPC  H14B 5135   3.790   6.333   5.388  1.1253 -0.2297 -0.2585
   64SAPC  H14C 5136   3.772   6.316   5.215  2.2644  1.9725  1.5544
   64SAPC   C15 5137   3.923   6.122   5.288  0.7560  0.1286  0.1442
   64SAPC  H15A 5138   3.983   6.165   5.367  0.2900  1.0145  0.0184
   64SAPC  H15B 5139   3.942   6.016   5.277 -0.8008 -0.1283 -0.2900
   64SAPC  H15C 5140   3.948   6.173   5.196  0.7667 -2.6445 -1.5186
   64SAPC   C11 5141   3.844   6.155   5.577  0.3200  0.0274 -0.0671
   64SAPC  H11A 5142   3.949   6.131   5.551  0.4432  1.2034 -0.7275
   64SAPC  H11B 5143   3.818   6.112   5.677 -0.3944  2.2621  0.7614
   64SAPC     P 5144   3.701   6.361   5.650 -0.1620 -0.0597 -0.0460
   64SAPC   O13 5145   3.732   6.503   5.635  0.2947 -0.0720  0.4261
   64SAPC   O14 5146   3.579   6.315   5.585  0.4242  0.1577 -0.6891
   64SAPC   O12 5147   3.830   6.296   5.586  0.1517  0.1904 -0.0408
   64SAPC   O11 5148   3.712   6.324   5.802 -0.1553 -0.2070  0.0886
   64SAPC    C1 5149   3.808   6.364   5.901 -0.4480  0.1263  0.2827
   64SAPC    HA 5150   3.858   6.463   5.893  1.2659 -0.5243  2.0938
   64SAPC    HB 5151   3.749   6.375   5.995  0.2395 -3.1766  1.2125
   64SAPC    C2 5152   3.904   6.245   5.937  0.2020  0.0426 -0.2498
   64SAPC    HS 5153   3.986   6.243   5.862 -0.6488  1.5268 -1.2798
   64SAPC   O21 5154   3.838   6.117   5.940 -0.2890  0.1651 -0.7000
   64SAPC   C21 5155   3.920   6.014   5.926  0.3231  0.9223  0.2543
   64SAPC   O22 5156   4.041   6.014   5.906  0.1411 -0.3908 -0.0234
   64SAPC   C22 5157   3.831   5.887   5.930 -0.3836  0.3564 -0.1243
   64SAPC   H2R 5158   3.723   5.909   5.939 -0.5134  0.1266 -1.1059
   64SAPC   H2S 5159   3.843   5.841   5.830 -1.3730  0.6439 -0.3827
   64SAPC    C3 5160   3.977   6.281   6.074  0.4955 -0.3156  0.4346
   64SAPC    HX 5161   4.044   6.368   6.057 -0.6244  1.1068  2.8815
   64SAPC    HY 5162   4.044   6.199   6.106  1.6097 -0.0185 -1.0591
   64SAPC   O31 5163   3.876   6.308   6.175 -0.5694  0.4581 -0.4179
   64SAPC   C31 5164   3.839   6.206   6.251 -0.1017 -0.4133  0.1110
   64SAPC   O32 5165   3.874   6.088   6.237  0.2156 -0.3072  0.5538
   64SAPC   C32 5166   3.740   6.254   6.356  0.2015  0.5289  0.3939
   64SAPC   H2X 5167   3.658   6.180   6.346  0.6452  0.2684 -1.9883
   64SAPC   H2Y 5168   3.690   6.346   6.315 -1.0311 -0.9116 -1.5495
   64SAPC   C23 5169   3.881   5.786   6.036  0.8133 -0.0516 -0.0599
   64SAPC   H3R 5170   3.891   5.839   6.133  0.9261  0.0443 -0.1234
   64SAPC   H3S 5171   3.984   5.757   6.005  0.7377  1.0674 -1.5067
   64SAPC   C24 5172   3.798   5.663   6.048 -0.8759  0.2369  0.4511
   64SAPC   H4R 5173   3.836   5.591   6.123 -1.3114  0.8837  1.3046
   64SAPC   H4S 5174   3.812   5.606   5.953  0.5546  1.3253 -0.0113
   64SAPC   C25 5175   3.656   5.691   6.085  0.0001  0.3152 -0.7055
   64SAPC   H5R 5176   3.580   5.711   6.007 -3.7842  0.4483  2.7000
   64SAPC   C26 5177   3.615   5.700   6.215 -0.8194 -0.3672 -0.2457
   64SAPC   H6R 5178   3.511   5.728   6.238  0.3185  2.0068  2.6272
   64SAPC   C27 5179   3.694   5.703   6.347  0.0772 -0.1491  0.1240
   64SAPC   H7R 5180   3.795   5.662   6.329  0.0176  0.4473 -1.7047
   64SAPC   H7S 5181   3.649   5.634   6.422  2.5939  1.2503  3.1864
   64SAPC   C28 5182   3.720   5.842   6.404 -0.3303  0.2130  0.2303
   64SAPC   H8R 5183   3.795   5.896   6.344  0.7834  1.1279  2.3186
   64SAPC   C29 5184   3.687   5.905   6.520  0.0936  0.3616  0.1445
   64SAPC   H9R 5185   3.729   6.003   6.547  0.2047  0.5809 -0.7822
   64SAPC  C210 5186   3.608   5.849   6.636  0.1772 -0.4033  0.8677
   64SAPC  H10R 5187   3.525   5.789   6.594  0.6112 -0.0446 -0.5649
   64SAPC  H10S 5188   3.543   5.920   6.691  0.9943  0.8508  0.2773
   64SAPC  C211 5189   3.666   5.757   6.736  0.1327  1.3084  0.3651
   64SAPC  H11R 5190   3.719   5.673   6.691 -0.4731  1.8010 -1.3352
   64SAPC  C212 5191   3.643   5.754   6.869 -0.1889  0.3723  0.1913
   64SAPC  H12R 5192   3.691   5.672   6.925 -2.1319 -0.8079  0.2262
   64SAPC  C213 5193   3.565   5.847   6.954 -0.5256  0.0965 -0.0578
   64SAPC  H13R 5194   3.482   5.805   7.014  0.5307  0.3246  1.6237
   64SAPC  H13S 5195   3.528   5.926   6.885  1.5291  0.5879 -0.6596
   64SAPC  C214 5196   3.662   5.920   7.049  1.1282  0.0133  0.5588
   64SAPC  H14R 5197   3.739   5.980   6.999 -0.1236  0.5667 -0.7835
   64SAPC  C215 5198   3.641   5.937   7.180  0.7359  0.1657 -0.4495
   64SAPC  H15R 5199   3.719   5.979   7.246 -0.2549  0.1865  0.7401
   64SAPC  C216 5200   3.536   5.876   7.269  0.4189  0.3872 -0.1143
   64SAPC  H16R 5201   3.466   5.812   7.210  0.1771  1.4918 -1.0786
   64SAPC  H16S 5202   3.471   5.956   7.310 -1.6344 -0.1785 -2.0101
   64SAPC  C217 5203   3.601   5.781   7.379  0.1463  0.0056 -0.0479
   64SAPC  H17R 5204   3.684   5.842   7.420  0.3977  0.1742 -0.7916
   64SAPC  H17S 5205   3.645   5.692   7.329 -2.3977 -0.4595 -1.6617
   64SAPC  C218 5206   3.503   5.754   7.494 -0.3920  0.2690  0.5503
   64SAPC  H18R 5207   3.427   5.700   7.434  0.7046  0.4771 -1.0923
   64SAPC  H18S 5208   3.455   5.850   7.521 -0.4933  0.7362 -1.1902
   64SAPC  C219 5209   3.550   5.664   7.611 -0.0193 -0.6152  0.5982
   64SAPC  H19R 5210   3.632   5.714   7.666 -0.3344  2.1014 -1.2204
   64SAPC  H19S 5211   3.595   5.571   7.572  0.1748 -0.1613 -0.2785
   64SAPC  C220 5212   3.445   5.624   7.704  0.0994 -0.2016  0.2342
   64SAPC  H20R 5213   3.375   5.547   7.666 -0.0031 -0.0465  0.1048
   64SAPC  H20S 5214   3.373   5.707   7.722  0.2582 -0.3726  1.7882
   64SAPC  H20T 5215   3.481   5.591   7.804 -1.6735 -1.7048  0.4427
   64SAPC   C33 5216   3.801   6.275   6.493 -0.1409  0.6113  0.4616
   64SAPC   H3X 5217   3.875   6.359   6.490  1.7887 -0.9264 -3.8987
   64SAPC   H3Y 5218   3.856   6.185   6.525 -1.7938 -0.8270 -0.5676
   64SAPC   C34 5219   3.689   6.285   6.598 -0.1563  0.0534  0.4900
   64SAPC   H4X 5220   3.630   6.191   6.588  0.8889 -0.3448 -3.5105
   64SAPC   H4Y 5221   3.611   6.360   6.572 -0.8614 -1.0441 -0.6677
   64SAPC   C35 5222   3.726   6.307   6.740 -0.1900  0.0436  0.5743
   64SAPC   H5X 5223   3.772   6.407   6.751  0.5288 -0.4339  2.3573
   64SAPC   H5Y 5224   3.803   6.233   6.772 -0.6618  0.2654  2.3214
   64SAPC   C36 5225   3.600   6.304   6.827  0.2287 -0.0639  0.0749
   64SAPC   H6X 5226   3.555   6.205   6.806 -1.8758  1.2666 -2.0840
   64SAPC   H6Y 5227   3.528   6.381   6.791  0.5963 -1.1423 -3.2819
   64SAPC   C37 5228   3.634   6.313   6.978 -0.0258 -0.2421 -0.1947
   64SAPC   H7X 5229   3.689   6.408   6.995 -0.6898  0.1545 -0.2601
   64SAPC   H7Y 5230   3.706   6.233   7.008  1.8755  1.1437 -0.8803
   64SAPC   C38 5231   3.512   6.302   7.064  0.4244 -0.6092  0.0503
   64SAPC   H8X 5232   3.468   6.203   7.042 -1.2509  0.1413 -0.1272
   64SAPC   H8Y 5233   3.438   6.381   7.039  1.6141  0.2316 -0.9629
   64SAPC   C39 5234   3.550   6.308   7.215 -0.1245 -0.2029  0.3471
   64SAPC   H9X 5235   3.600   6.403   7.243 -2.1510  0.7137  1.0438
   64SAPC   H9Y 5236   3.620   6.224   7.233  0.5327  0.3698  0.4811
   64SAPC  C310 5237   3.424   6.301   7.304  0.5077 -0.3107 -0.0580
   64SAPC  H10X 5238   3.362   6.210   7.289  2.9157 -2.3402  1.4454
   64SAPC  H10Y 5239   3.363   6.392   7.287  0.2732 -0.5623 -0.6082
   64SAPC  C311 5240   3.456   6.319   7.455 -0.7075 -0.0893  0.0587
   64SAPC  H11X 5241   3.371   6.345   7.521 -1.0986 -3.6749  1.2054
   64SAPC  H11Y 5242   3.524   6.406   7.464 -1.9981  1.0449 -0.8252
   64SAPC  C312 5243   3.519   6.186   7.513  0.2361 -0.0736  0.7343
   64SAPC  H12X 5244   3.597   6.153   7.442  0.7385 -2.2159  2.1992
   64SAPC  H12Y 5245   3.444   6.104   7.510 -0.9425  0.9800  0.5406
   64SAPC  C313 5246   3.558   6.196   7.660  0.2906 -0.0546  0.0680
   64SAPC  H13X 5247   3.461   6.186   7.712  0.6941  0.1479  0.8769
   64SAPC  H13Y 5248   3.595   6.297   7.688  0.9892 -0.1801 -0.3784
   64SAPC  C314 5249   3.658   6.081   7.699  0.3790  0.3092  0.0687
   64SAPC  H14X 5250   3.600   5.988   7.714  1.7192 -0.5748 -0.0666
   64SAPC  H14Y 5251   3.693   6.095   7.804 -0.3648 -0.6200  0.4540
   64SAPC  C315 5252   3.782   6.075   7.611 -0.2311  0.3294 -0.1616
   64SAPC  H15X 5253   3.821   6.174   7.582  1.0237 -0.4699 -1.3304
   64SAPC  H15Y 5254   3.753   6.007   7.528  0.6909  0.3117 -0.4871
   64SAPC  C316 5255   3.897   6.010   7.681 -0.6358  0.1522 -0.9033
   64SAPC  H16X 5256   3.858   5.913   7.719 -1.5701  1.4130  1.5914
   64SAPC  H16Y 5257   3.932   6.072   7.766 -0.5037 -0.8852 -0.1767
   64SAPC  C317 5258   4.025   5.989   7.599  0.1207  0.4077  0.4317
   64SAPC  H17X 5259   4.058   6.093   7.576 -0.1822 -0.1649 -3.1375
   64SAPC  H17Y 5260   4.009   5.936   7.503  0.0809 -1.0085  1.1975
   64SAPC  C318 5261   4.127   5.916   7.678 -0.7605 -0.0258 -0.6892
   64SAPC  H18X 5262   4.189   5.848   7.615 -1.1650 -1.6543  0.5718
   64SAPC  H18Y 5263   4.076   5.847   7.749  1.3607 -0.3965  0.5719
   64SAPC  H18Z 5264   4.201   5.977   7.733 -1.2868 -1.0676  1.2756
   65SAPC     N 5265   4.941   6.552   5.857  0.6380  0.0253 -0.6456
   65SAPC   C12 5266   5.044   6.469   5.920  0.4552  0.9188  0.7068
   65SAPC  H12A 5267   5.005   6.430   6.013  0.6624 -2.3275 -0.4582
   65SAPC  H12B 5268   5.133   6.529   5.935  1.8954 -0.5153 -1.4818
   65SAPC   C13 5269   4.811   6.478   5.833  0.0498  0.3420  0.5607
   65SAPC  H13A 5270   4.770   6.430   5.921 -0.3639 -0.0841  0.1382
   65SAPC  H13B 5271   4.740   6.529   5.770 -0.1465  0.3901  0.8201
   65SAPC  H13C 5272   4.840   6.390   5.777  3.3165  0.5706  1.6444
   65SAPC   C14 5273   4.912   6.660   5.961 -0.1032 -0.2316  0.5025
   65SAPC  H14A 5274   5.001   6.691   6.014 -0.2448 -0.7808  1.0700
   65SAPC  H14B 5275   4.858   6.749   5.932  1.2969  2.0488  4.1728
   65SAPC  H14C 5276   4.852   6.616   6.039  0.2862 -1.2720  0.2220
   65SAPC   C15 5277   4.989   6.623   5.733 -0.0690 -0.5375  0.1532
   65SAPC  H15A 5278   5.073   6.686   5.757 -0.5462 -0.7805  2.7266
   65SAPC  H15B 5279   5.022   6.557   5.654  1.1446 -0.2702  0.4242
   65SAPC  H15C 5280   4.904   6.678   5.696  0.0995 -1.3777 -1.5994
   65SAPC   C11 5281   5.082   6.329   5.856 -0.2798  0.7580  0.3862
   65SAPC  H11A 5282   5.183   6.306   5.895 -0.5115 -2.7368 -0.7597
   65SAPC  H11B 5283   5.097   6.348   5.747  1.9230  2.1365  0.8662
   65SAPC     P 5284   4.992   6.086   5.876  0.4950  0.4498  0.1467
   65SAPC   O13 5285   4.873   6.045   5.803 -0.4345  0.3426 -0.2590
   65SAPC   O14 5286   5.123   6.053   5.815 -0.1891  0.4399 -0.2918
   65SAPC   O12 5287   4.981   6.241   5.899  0.0492  0.3243  0.8022
   65SAPC   O11 5288   4.986   6.034   6.024  0.9672 -0.6961  0.2935
   65SAPC    C1 5289   4.856   6.029   6.083  0.0756 -0.5001 -0.2958
   65SAPC    HA 5290   4.769   6.001   6.020 -1.4820 -0.8626  1.8996
   65SAPC    HB 5291   4.870   5.974   6.179  0.7120  2.0755  1.2020
   65SAPC    C2 5292   4.817   6.173   6.144 -0.0107  0.6194  0.2818
   65SAPC    HS 5293   4.807   6.239   6.055  3.9548  1.6277  0.3854
   65SAPC   O21 5294   4.918   6.233   6.222  0.5229  0.1859 -0.1062
   65SAPC   C21 5295   4.905   6.362   6.244 -0.2044  0.2039  0.8872
   65SAPC   O22 5296   4.840   6.439   6.176  0.2075 -0.4313 -0.7939
   65SAPC   C22 5297   5.013   6.403   6.343 -0.3778 -0.3638 -0.1530
   65SAPC   H2R 5298   5.022   6.319   6.415 -4.0704 -0.0626  0.8367
   65SAPC   H2S 5299   5.114   6.412   6.296 -0.1292  0.1733  0.4512
   65SAPC    C3 5300   4.683   6.164   6.214  0.1190 -0.4569 -0.1467
   65SAPC    HX 5301   4.606   6.131   6.142 -1.4496  0.5633  0.9942
   65SAPC    HY 5302   4.640   6.263   6.241  1.5865  0.1200  0.1914
   65SAPC   O31 5303   4.690   6.082   6.338  0.3360 -0.0286  0.3425
   65SAPC   C31 5304   4.704   6.147   6.447 -0.5780 -0.1272  0.2804
   65SAPC   O32 5305   4.725   6.266   6.466 -0.0722  0.1788  0.1045
   65SAPC   C32 5306   4.683   6.056   6.565  0.0433  0.2273 -0.1799
   65SAPC   H2X 5307   4.616   5.971   6.542 -0.3138  0.6421 -0.6968
   65SAPC   H2Y 5308   4.637   6.108   6.652 -1.4135 -2.4431  0.7440
   65SAPC   C23 5309   4.994   6.537   6.419 -0.5092 -0.4851 -0.0562
   65SAPC   H3R 5310   4.941   6.529   6.516 -0.9175  2.2649  0.0501
   65SAPC   H3S 5311   4.927   6.597   6.354 -0.2128 -1.1856 -1.0304
   65SAPC   C24 5312   5.130   6.622   6.417  0.6424 -0.0006  0.0714
   65SAPC   H4R 5313   5.093   6.720   6.453 -0.0800  0.1419 -1.0120
   65SAPC   H4S 5314   5.178   6.619   6.317  1.6287 -1.5031  0.5615
   65SAPC   C25 5315   5.220   6.553   6.517 -0.0492 -0.5054  0.4200
   65SAPC   H5R 5316   5.269   6.461   6.482  0.4673 -0.3014  0.5950
   65SAPC   C26 5317   5.249   6.597   6.640 -0.1590 -0.4817 -0.0050
   65SAPC   H6R 5318   5.303   6.537   6.714  0.7037  1.2018  0.7847
   65SAPC   C27 5319   5.180   6.718   6.700 -0.0929  0.0097  0.3819
   65SAPC   H7R 5320   5.070   6.704   6.710 -0.0880  1.0073  2.3649
   65SAPC   H7S 5321   5.194   6.814   6.647  0.2649  0.3871  1.1349
   65SAPC   C28 5322   5.217   6.733   6.850 -0.3638  0.0570  0.2488
   65SAPC   H8R 5323   5.283   6.818   6.873 -1.1082  0.8397 -0.4623
   65SAPC   C29 5324   5.179   6.662   6.970 -0.2743 -0.2297  0.5866
   65SAPC   H9R 5325   5.238   6.683   7.060  2.2480  0.5930 -1.1418
   65SAPC  C210 5326   5.088   6.535   6.968  0.3465 -0.0706  0.3471
   65SAPC  H10R 5327   5.136   6.453   7.025  0.3600 -0.8604 -0.7802
   65SAPC  H10S 5328   5.089   6.488   6.868 -1.2417  0.1352  0.2056
   65SAPC  C211 5329   4.950   6.565   7.024  0.2996 -0.8472  0.3230
   65SAPC  H11R 5330   4.939   6.638   7.106 -1.5943 -0.0061 -0.6237
   65SAPC  C212 5331   4.833   6.523   6.975  0.1536  0.3968  0.4179
   65SAPC  H12R 5332   4.742   6.555   7.028  0.4662 -0.6174  1.6315
   65SAPC  C213 5333   4.813   6.432   6.853 -0.8545 -0.8086 -0.8927
   65SAPC  H13R 5334   4.865   6.334   6.860  2.2885  0.8120  0.3802
   65SAPC  H13S 5335   4.870   6.479   6.770 -1.1156  1.4567  0.1518
   65SAPC  C214 5336   4.674   6.419   6.788 -0.2329  0.6969 -0.1027
   65SAPC  H14R 5337   4.684   6.451   6.683  2.6053  0.0502 -0.1053
   65SAPC  C215 5338   4.563   6.368   6.844 -0.2190  0.1330  0.7364
   65SAPC  H15R 5339   4.466   6.376   6.793 -0.7036  0.3475  1.6739
   65SAPC  C216 5340   4.565   6.297   6.972  0.2544  0.1746  0.2604
   65SAPC  H16R 5341   4.543   6.383   7.039  0.2785  0.2015  0.2338
   65SAPC  H16S 5342   4.658   6.237   6.984 -0.1384 -0.6888 -0.8026
   65SAPC  C217 5343   4.439   6.206   6.975  0.1039  0.8696 -0.1206
   65SAPC  H17R 5344   4.464   6.113   6.919  0.8311  0.1732  1.3029
   65SAPC  H17S 5345   4.349   6.242   6.921 -1.7169 -1.0589  1.4250
   65SAPC  C218 5346   4.403   6.168   7.124  0.8362 -0.5191  1.3942
   65SAPC  H18R 5347   4.333   6.252   7.148 -0.1710 -0.9386  0.0366
   65SAPC  H18S 5348   4.495   6.169   7.186  1.0537 -3.2146  1.2181
   65SAPC  C219 5349   4.313   6.040   7.137  0.5900  0.2402  0.5105
   65SAPC  H19R 5350   4.374   5.949   7.118 -1.2176 -0.9594  0.2281
   65SAPC  H19S 5351   4.236   6.042   7.057 -0.0729  1.3447  1.1472
   65SAPC  C220 5352   4.234   6.027   7.274  0.4049  0.5010  0.5482
   65SAPC  H20R 5353   4.191   5.924   7.278 -0.4139  0.8628  1.4342
   65SAPC  H20S 5354   4.153   6.101   7.290 -1.1860 -0.8133 -1.0322
   65SAPC  H20T 5355   4.309   6.042   7.355  2.6036 -1.1626 -1.0407
   65SAPC   C33 5356   4.818   5.999   6.617 -0.4221  0.3781  0.2038
   65SAPC   H3X 5357   4.882   6.086   6.640  0.9322 -0.6942  0.6195
   65SAPC   H3Y 5358   4.860   5.941   6.532 -1.1626  1.6148 -1.0465
   65SAPC   C34 5359   4.808   5.919   6.748  1.1682  0.8079  0.7886
   65SAPC   H4X 5360   4.895   5.851   6.756  0.8957  0.2830 -0.5132
   65SAPC   H4Y 5361   4.714   5.859   6.750  0.7134  1.4931  2.7227
   65SAPC   C35 5362   4.788   6.000   6.871 -0.0732 -0.3027 -0.3915
   65SAPC   H5X 5363   4.681   6.018   6.892 -0.2399  1.1722 -2.2396
   65SAPC   H5Y 5364   4.831   6.096   6.836 -0.5971 -0.6191 -1.9755
   65SAPC   C36 5365   4.875   5.956   6.994 -0.0091 -0.0830  0.3041
   65SAPC   H6X 5366   4.978   5.968   6.956  0.6700 -2.4852  1.2096
   65SAPC   H6Y 5367   4.863   5.847   7.015  0.1207 -0.3001 -0.7332
   65SAPC   C37 5368   4.857   6.041   7.115  0.1282 -1.0851 -1.1172
   65SAPC   H7X 5369   4.759   6.012   7.157  0.7961 -0.5342  0.9337
   65SAPC   H7Y 5370   4.850   6.150   7.091  0.4174 -0.6093  0.7517
   65SAPC   C38 5371   4.971   6.024   7.223  0.2817  0.2002 -0.1845
   65SAPC   H8X 5372   5.063   6.065   7.177 -1.2000  2.6547 -1.1577
   65SAPC   H8Y 5373   4.982   5.915   7.236  3.2157  0.4241 -0.1193
   65SAPC   C39 5374   4.933   6.070   7.363 -0.8872  0.6692  0.4035
   65SAPC   H9X 5375   4.865   5.992   7.403  0.8969 -0.9074  0.5074
   65SAPC   H9Y 5376   4.887   6.171   7.369  0.2593  1.3217 -1.0809
   65SAPC  C310 5377   5.056   6.062   7.460 -0.2327 -0.2940  1.1999
   65SAPC  H10X 5378   5.116   6.156   7.463 -0.7702  0.1480 -0.7797
   65SAPC  H10Y 5379   5.131   5.998   7.410  0.9911  0.6016  1.8341
   65SAPC  C311 5380   5.026   6.010   7.608  0.4579 -0.1541 -0.3900
   65SAPC  H11X 5381   5.000   5.902   7.605 -1.1069  0.2222 -1.7850
   65SAPC  H11Y 5382   4.937   6.071   7.637 -0.0306 -1.1853  0.3551
   65SAPC  C312 5383   5.129   6.044   7.706 -0.2512 -0.2455  0.7686
   65SAPC  H12X 5384   5.175   6.146   7.703  1.3425 -0.7900  3.2513
   65SAPC  H12Y 5385   5.204   5.969   7.675  1.7632  1.6261  0.8626
   65SAPC  C313 5386   5.095   6.013   7.850 -0.3227 -0.0736  1.0323
   65SAPC  H13X 5387   5.080   5.903   7.851  0.9499 -0.3456 -1.6126
   65SAPC  H13Y 5388   5.012   6.075   7.889  1.1267  3.2778 -0.7740
   65SAPC  C314 5389   5.215   6.034   7.940 -0.6622 -0.3059 -0.5639
   65SAPC  H14X 5390   5.237   6.143   7.936 -0.4942 -0.3348 -0.4409
   65SAPC  H14Y 5391   5.301   5.973   7.906  0.1634 -1.0227  2.4462
   65SAPC  C315 5392   5.189   5.996   8.089  0.0571 -0.4589 -0.3710
   65SAPC  H15X 5393   5.175   5.888   8.109 -2.1375 -0.2245 -0.3017
   65SAPC  H15Y 5394   5.093   6.040   8.126 -0.7350 -1.7006 -0.8730
   65SAPC  C316 5395   5.287   6.049   8.193 -0.0099 -0.3756 -0.5981
   65SAPC  H16X 5396   5.278   6.160   8.187  1.0352 -0.0863  1.7790
   65SAPC  H16Y 5397   5.394   6.025   8.173  0.2931 -0.3305  0.8384
   65SAPC  C317 5398   5.247   6.022   8.333 -0.1825  0.9423  0.2063
   65SAPC  H17X 5399   5.217   5.916   8.343 -1.2768  1.1734 -0.4180
   65SAPC  H17Y 5400   5.154   6.073   8.366  1.1277  1.1354  4.0231
   65SAPC  C318 5401   5.343   6.049   8.447 -0.4457 -0.0019  0.9216
   65SAPC  H18X 5402   5.447   6.017   8.426 -0.7796 -1.3718  1.2922
   65SAPC  H18Y 5403   5.312   6.001   8.542 -1.1418 -0.1453  0.6315
   65SAPC  H18Z 5404   5.339   6.156   8.476 -0.3152  0.7584 -1.6219
   66SAPC     N 5405   2.619   5.727   5.422 -0.2112  0.1922  0.1650
   66SAPC   C12 5406   2.731   5.833   5.419  0.7085 -0.2309  0.6344
   66SAPC  H12A 5407   2.827   5.790   5.397  0.3481 -0.5045 -0.4756
   66SAPC  H12B 5408   2.733   5.883   5.515  1.1169  3.1549 -0.9804
   66SAPC   C13 5409   2.518   5.777   5.525  0.3893  0.0202  0.1317
   66SAPC  H13A 5410   2.484   5.876   5.499 -1.8950 -0.9920 -1.0760
   66SAPC  H13B 5411   2.429   5.715   5.520  0.8532 -0.6300 -0.2886
   66SAPC  H13C 5412   2.567   5.779   5.621  0.7064  0.6690 -0.0434
   66SAPC   C14 5413   2.564   5.704   5.288  0.2425  0.2770  0.7944
   66SAPC  H14A 5414   2.638   5.662   5.220  0.3083 -1.5943  1.9440
   66SAPC  H14B 5415   2.486   5.630   5.284  0.9387 -0.4479 -1.9573
   66SAPC  H14C 5416   2.528   5.791   5.235 -0.3089 -0.0178  0.6783
   66SAPC   C15 5417   2.668   5.604   5.486  0.0173  0.4735 -0.2340
   66SAPC  H15A 5418   2.742   5.568   5.415 -0.5482  0.7873 -0.9975
   66SAPC  H15B 5419   2.714   5.614   5.583  1.1254  0.4889 -0.7399
   66SAPC  H15C 5420   2.598   5.524   5.502  1.6576 -0.6954  1.6144
   66SAPC   C11 5421   2.712   5.947   5.323  0.1092  0.1180 -0.3576
   66SAPC  H11A 5422   2.719   5.906   5.220  0.4312  0.2040 -0.3699
   66SAPC  H11B 5423   2.798   6.015   5.342  1.2095 -1.1254 -0.7252
   66SAPC     P 5424   2.562   6.150   5.412 -0.0905 -0.2631 -0.1499
   66SAPC   O13 5425   2.690   6.224   5.415 -0.0311  0.7168 -0.1039
   66SAPC   O14 5426   2.452   6.212   5.333 -0.5541  0.0316  0.0946
   66SAPC   O12 5427   2.585   6.013   5.342 -0.0039  0.6331 -1.0184
   66SAPC   O11 5428   2.520   6.112   5.555  0.4426 -0.5580  0.0749
   66SAPC    C1 5429   2.390   6.147   5.610  0.2301  1.0518  0.0695
   66SAPC    HA 5430   2.315   6.159   5.529  0.6263 -0.3507 -0.5334
   66SAPC    HB 5431   2.352   6.068   5.678 -0.8142  2.2889  0.9695
   66SAPC    C2 5432   2.397   6.277   5.688  0.0432  0.2087 -0.1065
   66SAPC    HS 5433   2.456   6.348   5.627  2.2925 -1.1397  0.3821
   66SAPC   O21 5434   2.478   6.243   5.805  0.2300  0.0331  0.5599
   66SAPC   C21 5435   2.525   6.353   5.863 -0.3838 -1.1022  0.6381
   66SAPC   O22 5436   2.537   6.459   5.809  0.1286  0.0815 -0.0660
   66SAPC   C22 5437   2.576   6.311   5.999  0.3011 -0.2614  0.1886
   66SAPC   H2R 5438   2.544   6.209   6.031 -2.9164  1.0637  1.6057
   66SAPC   H2S 5439   2.684   6.337   5.995  0.4267  0.3382  3.8703
   66SAPC    C3 5440   2.256   6.326   5.737 -0.6184 -0.4991  0.4043
   66SAPC    HX 5441   2.200   6.315   5.641  1.4048 -1.5100 -0.7563
   66SAPC    HY 5442   2.257   6.436   5.753 -0.1756 -0.5091  0.4608
   66SAPC   O31 5443   2.202   6.250   5.854  0.1558  0.3598 -0.3530
   66SAPC   C31 5444   2.068   6.267   5.879 -0.1329 -0.0893  0.4718
   66SAPC   O32 5445   1.989   6.319   5.798  0.3063  0.1442 -0.2449
   66SAPC   C32 5446   2.022   6.187   5.998  1.0831 -0.2056  0.2392
   66SAPC   H2X 5447   2.102   6.188   6.074  2.3711  0.8100 -1.0720
   66SAPC   H2Y 5448   2.004   6.083   5.964  0.6796 -0.2797  0.6730
   66SAPC   C23 5449   2.519   6.409   6.113 -0.2884  0.2138 -0.5381
   66SAPC   H3R 5450   2.408   6.415   6.106 -0.4341 -0.9463  0.4820
   66SAPC   H3S 5451   2.565   6.507   6.086 -1.3225  0.2397 -2.3849
   66SAPC   C24 5452   2.558   6.371   6.256 -0.5746 -0.0661  0.3362
   66SAPC   H4R 5453   2.522   6.270   6.283  0.3242  0.1247  2.4193
   66SAPC   H4S 5454   2.508   6.447   6.320  1.7190  0.7447  1.2789
   66SAPC   C25 5455   2.705   6.375   6.275  0.3939 -0.5119  0.0171
   66SAPC   H5R 5456   2.756   6.394   6.180 -1.4758  0.0384 -0.9246
   66SAPC   C26 5457   2.765   6.348   6.393  0.6852  0.1513 -0.7679
   66SAPC   H6R 5458   2.875   6.340   6.399  0.6904 -1.2651 -2.1161
   66SAPC   C27 5459   2.693   6.321   6.521  0.1392 -0.0352 -0.9883
   66SAPC   H7R 5460   2.770   6.274   6.587  1.1570  1.7965 -0.7821
   66SAPC   H7S 5461   2.617   6.240   6.511  0.8814 -1.3762  2.6811
   66SAPC   C28 5462   2.633   6.438   6.588  0.0881 -0.5062 -0.2378
   66SAPC   H8R 5463   2.609   6.528   6.529 -1.3422  0.2243  1.3831
   66SAPC   C29 5464   2.584   6.442   6.716  1.0176 -0.4193  0.0030
   66SAPC   H9R 5465   2.554   6.541   6.754  0.8562 -0.3160 -0.3912
   66SAPC  C210 5466   2.596   6.340   6.830 -0.0524 -0.1123  0.0332
   66SAPC  H10R 5467   2.670   6.368   6.909  0.3269  2.1698 -1.0618
   66SAPC  H10S 5468   2.634   6.243   6.792 -0.5662 -0.0119 -0.7496
   66SAPC  C211 5469   2.454   6.321   6.888 -0.1972 -0.3274 -0.5625
   66SAPC  H11R 5470   2.444   6.377   6.982  2.5329  1.8508 -1.4441
   66SAPC  C212 5471   2.347   6.260   6.833 -0.6322 -0.0820 -0.6649
   66SAPC  H12R 5472   2.253   6.259   6.890  0.4949  3.0753  1.5418
   66SAPC  C213 5473   2.354   6.178   6.708  0.4553  0.1379  0.8285
   66SAPC  H13R 5474   2.413   6.242   6.639 -1.0354 -0.4935 -1.1399
   66SAPC  H13S 5475   2.257   6.166   6.656 -0.4080  1.5410  2.0223
   66SAPC  C214 5476   2.418   6.041   6.714 -0.7137  0.6257 -0.9592
   66SAPC  H14R 5477   2.477   6.021   6.805  2.2418  1.3052 -2.5995
   66SAPC  C215 5478   2.457   5.979   6.607 -0.6924  0.7141 -0.1200
   66SAPC  H15R 5479   2.505   5.881   6.621  1.0261  1.2138 -2.1120
   66SAPC  C216 5480   2.439   6.011   6.466  0.2120 -0.4495  0.1951
   66SAPC  H16R 5481   2.534   6.009   6.408  0.1369  0.3771  0.0297
   66SAPC  H16S 5482   2.399   6.113   6.450  1.1304 -0.1740 -0.3910
   66SAPC  C217 5483   2.341   5.927   6.394  0.4609 -0.1243  0.4864
   66SAPC  H17R 5484   2.251   5.901   6.453 -2.1146  1.8346 -2.2492
   66SAPC  H17S 5485   2.396   5.833   6.375  1.5353  0.1486  2.0747
   66SAPC  C218 5486   2.312   5.991   6.254  0.5053  0.0106  0.7708
   66SAPC  H18R 5487   2.412   6.001   6.208 -0.3042 -1.8221 -1.5798
   66SAPC  H18S 5488   2.250   6.082   6.272  1.0665  0.0485  2.8801
   66SAPC  C219 5489   2.237   5.883   6.171 -0.3077 -0.7726 -0.3595
   66SAPC  H19R 5490   2.128   5.877   6.195 -0.2672 -1.7409 -0.3985
   66SAPC  H19S 5491   2.268   5.782   6.204 -1.8581 -1.0394  0.4120
   66SAPC  C220 5492   2.264   5.889   6.015  0.4225  0.1577 -0.5854
   66SAPC  H20R 5493   2.205   5.811   5.961  0.9450  0.3979 -1.5124
   66SAPC  H20S 5494   2.368   5.896   5.978  0.4274  1.0970 -0.4075
   66SAPC  H20T 5495   2.215   5.982   5.978 -1.1631  0.5402  2.1480
   66SAPC   C33 5496   1.883   6.235   6.050  0.1052  0.6718 -0.0150
   66SAPC   H3X 5497   1.812   6.219   5.966  0.3634  0.2565 -0.1564
   66SAPC   H3Y 5498   1.881   6.341   6.083  0.3463  0.1287  1.8548
   66SAPC   C34 5499   1.825   6.163   6.174 -0.7047 -0.2515  0.5496
   66SAPC   H4X 5500   1.821   6.053   6.165 -0.5764 -0.2965  1.0244
   66SAPC   H4Y 5501   1.721   6.201   6.185 -0.3227  0.3926  2.3063
   66SAPC   C35 5502   1.912   6.204   6.296 -0.4680  1.0957 -0.0082
   66SAPC   H5X 5503   1.896   6.313   6.310  0.6206  0.9963  2.3292
   66SAPC   H5Y 5504   2.018   6.176   6.278 -0.7829  0.1734 -0.5354
   66SAPC   C36 5505   1.879   6.113   6.418  0.3088  0.3204 -0.1021
   66SAPC   H6X 5506   1.916   6.009   6.409 -1.6156 -0.4236  0.1661
   66SAPC   H6Y 5507   1.770   6.091   6.415  0.7444 -2.0600 -0.0282
   66SAPC   C37 5508   1.931   6.161   6.547  0.3695  0.2569 -0.1602
   66SAPC   H7X 5509   1.895   6.263   6.571  0.3375 -0.3276  2.6968
   66SAPC   H7Y 5510   2.041   6.178   6.542  0.1849  1.0732 -2.1964
   66SAPC   C38 5511   1.907   6.062   6.660 -0.3879 -0.0808 -0.6857
   66SAPC   H8X 5512   1.938   5.960   6.627  1.5380  0.3271 -0.2428
   66SAPC   H8Y 5513   1.797   6.052   6.671 -0.6455  0.6986 -2.2404
   66SAPC   C39 5514   1.980   6.088   6.795  0.6455 -0.0438  0.6220
   66SAPC   H9X 5515   1.966   6.196   6.814  2.8817  0.5882 -0.8644
   66SAPC   H9Y 5516   2.089   6.073   6.776  0.4256  1.8641 -3.0174
   66SAPC  C310 5517   1.920   5.987   6.889  0.1415  0.0093 -0.4242
   66SAPC  H10X 5518   1.950   5.885   6.855 -2.2758  0.3037 -4.0527
   66SAPC  H10Y 5519   1.809   5.997   6.886  0.0939 -0.6490 -2.5189
   66SAPC  C311 5520   1.953   6.012   7.036  0.1544  0.1017  0.2127
   66SAPC  H11X 5521   1.922   6.115   7.061 -3.0102 -0.8665  0.6441
   66SAPC  H11Y 5522   2.062   5.993   7.047 -0.2127 -2.1910  0.4825
   66SAPC  C312 5523   1.889   5.924   7.141  0.0832  0.2204  0.5041
   66SAPC  H12X 5524   1.871   5.816   7.122 -0.4330 -0.0468  2.3053
   66SAPC  H12Y 5525   1.791   5.970   7.164  0.8325  2.3556 -0.3551
   66SAPC  C313 5526   1.969   5.918   7.273  0.3097  0.2372  0.1704
   66SAPC  H13X 5527   1.965   6.016   7.326  0.4258 -0.5150  1.6250
   66SAPC  H13Y 5528   2.075   5.893   7.252  0.8430  1.3827  1.3127
   66SAPC  C314 5529   1.911   5.805   7.369  0.4315  0.4779 -0.0748
   66SAPC  H14X 5530   1.920   5.705   7.321 -1.8491 -1.0154  2.3301
   66SAPC  H14Y 5531   1.805   5.820   7.396 -0.1911 -1.4605 -1.1976
   66SAPC  C315 5532   1.979   5.806   7.506 -0.0722  0.2047 -0.6175
   66SAPC  H15X 5533   1.951   5.906   7.546 -2.6904 -0.8462  0.3974
   66SAPC  H15Y 5534   2.088   5.794   7.485 -0.1627  1.6028 -2.0633
   66SAPC  C316 5535   1.927   5.706   7.606 -0.5146 -0.1413 -0.2705
   66SAPC  H16X 5536   1.950   5.599   7.587 -0.1438 -0.7910  3.2321
   66SAPC  H16Y 5537   1.816   5.710   7.596 -0.4594  0.4356 -0.6537
   66SAPC  C317 5538   1.979   5.741   7.742 -0.5237  0.2758 -0.0243
   66SAPC  H17X 5539   1.938   5.671   7.818  0.8603 -0.5553  0.0039
   66SAPC  H17Y 5540   1.954   5.847   7.760  1.6612  0.9049 -0.3832
   66SAPC  C318 5541   2.130   5.721   7.764  0.3409 -0.0432  0.6804
   66SAPC  H18X 5542   2.158   5.734   7.871 -1.3829 -1.4346  1.3363
   66SAPC  H18Y 5543   2.178   5.805   7.708 -2.1259 -0.4485 -2.3267
   66SAPC  H18Z 5544   2.160   5.621   7.728 -5.0351 -1.8412  0.3536
   67SAPC     N 5545   0.334   2.461   5.283  0.6135  0.4789 -0.1632
   67SAPC   C12 5546   0.189   2.407   5.281  0.1669  0.9797 -0.6515
   67SAPC  H12A 5547   0.173   2.321   5.344  0.6510  0.9077 -0.6225
   67SAPC  H12B 5548   0.166   2.392   5.177 -1.6720 -1.3032 -0.0051
   67SAPC   C13 5549   0.431   2.375   5.212  0.0590  0.8551  0.9059
   67SAPC  H13A 5550   0.430   2.280   5.264  0.8383 -0.0561 -0.6600
   67SAPC  H13B 5551   0.396   2.340   5.116 -1.4106  0.0299  1.6980
   67SAPC  H13C 5552   0.530   2.415   5.204  0.0927  0.3820 -2.3189
   67SAPC   C14 5553   0.340   2.588   5.206  0.2703  0.3753  0.3544
   67SAPC  H14A 5554   0.319   2.571   5.102 -0.4810  0.3248  0.5112
   67SAPC  H14B 5555   0.264   2.659   5.235  2.1093  1.6472  2.3976
   67SAPC  H14C 5556   0.436   2.636   5.217  0.8437 -0.6612  0.0291
   67SAPC   C15 5557   0.383   2.495   5.419  0.2806  0.0816 -0.3018
   67SAPC  H15A 5558   0.398   2.414   5.490  0.9708 -0.3834 -0.9625
   67SAPC  H15B 5559   0.484   2.531   5.413  0.4611 -0.0754  1.2173
   67SAPC  H15C 5560   0.322   2.570   5.468  0.1080  0.6854 -1.4258
   67SAPC   C11 5561   0.089   2.514   5.329 -0.5080  0.3537 -0.0487
   67SAPC  H11A 5562   0.085   2.598   5.258  1.7144 -0.6340 -1.4317
   67SAPC  H11B 5563   0.109   2.539   5.436 -2.6596 -0.6174  0.6424
   67SAPC     P 5564  -0.162   2.440   5.399  0.0661  0.4971 -0.1929
   67SAPC   O13 5565  -0.252   2.545   5.349 -0.1018  0.0490  0.5304
   67SAPC   O14 5566  -0.217   2.303   5.393  0.7662 -0.8215 -0.0108
   67SAPC   O12 5567  -0.030   2.439   5.311 -0.3002 -0.1022  0.2030
   67SAPC   O11 5568  -0.118   2.479   5.544 -0.3952  0.1460 -0.1287
   67SAPC    C1 5569  -0.023   2.407   5.622 -0.1129 -0.1166 -0.7241
   67SAPC    HA 5570   0.048   2.348   5.559  0.5616  0.0088 -0.0895
   67SAPC    HB 5571   0.040   2.477   5.681  1.7050  1.2749 -4.0196
   67SAPC    C2 5572  -0.096   2.302   5.710 -0.1628 -0.9813 -0.6442
   67SAPC    HS 5573  -0.157   2.239   5.642 -2.8258  4.0044 -3.4486
   67SAPC   O21 5574  -0.189   2.360   5.802 -0.3320 -0.1258  0.5399
   67SAPC   C21 5575  -0.274   2.286   5.859 -0.1969  0.1287 -0.0070
   67SAPC   O22 5576  -0.306   2.173   5.826 -0.3475 -0.2601  0.0137
   67SAPC   C22 5577  -0.337   2.360   5.977 -0.2863  0.2821 -0.3237
   67SAPC   H2R 5578  -0.273   2.427   6.038 -1.7815  0.8137  0.7209
   67SAPC   H2S 5579  -0.419   2.426   5.940 -1.2791 -1.2894 -1.0862
   67SAPC    C3 5580   0.008   2.210   5.784  0.1880 -0.0500 -0.0542
   67SAPC    HX 5581   0.070   2.158   5.709  0.8052  1.2517 -0.4753
   67SAPC    HY 5582  -0.046   2.128   5.836  0.1618  0.2603  0.4189
   67SAPC   O31 5583   0.082   2.296   5.875  0.0230  0.0624 -0.3866
   67SAPC   C31 5584   0.132   2.234   5.978  0.4030 -0.3055 -0.4333
   67SAPC   O32 5585   0.132   2.110   5.996  0.5459 -0.4087 -0.2049
   67SAPC   C32 5586   0.210   2.327   6.064  0.5041 -0.1409 -0.3239
   67SAPC   H2X 5587   0.213   2.430   6.021 -0.0676 -0.0076 -0.0579
   67SAPC   H2Y 5588   0.314   2.292   6.050  1.5367  2.3692  0.4997
   67SAPC   C23 5589  -0.416   2.263   6.076 -0.4937 -0.4663  0.2511
   67SAPC   H3R 5590  -0.456   2.171   6.028 -2.0242  0.5674 -0.4970
   67SAPC   H3S 5591  -0.507   2.314   6.114 -0.7492 -1.2979  0.7902
   67SAPC   C24 5592  -0.343   2.233   6.214 -0.2211 -0.1063  0.1784
   67SAPC   H4R 5593  -0.419   2.187   6.280 -1.8303  0.2917 -1.3076
   67SAPC   H4S 5594  -0.321   2.335   6.252 -1.9923  0.4791 -0.2806
   67SAPC   C25 5595  -0.225   2.143   6.195 -0.5382  0.0202  0.1780
   67SAPC   H5R 5596  -0.235   2.094   6.097 -0.9045 -0.1907  0.3203
   67SAPC   C26 5597  -0.134   2.101   6.277  0.0118  0.3508 -0.6185
   67SAPC   H6R 5598  -0.055   2.034   6.238  0.1761  0.9598 -1.3475
   67SAPC   C27 5599  -0.106   2.139   6.423  0.0229  0.0431 -0.2033
   67SAPC   H7R 5600  -0.062   2.241   6.432  1.7998 -0.8720  2.4163
   67SAPC   H7S 5601  -0.020   2.075   6.452  0.4732  0.8374  0.2460
   67SAPC   C28 5602  -0.221   2.109   6.521  0.5103 -1.1497  0.2837
   67SAPC   H8R 5603  -0.303   2.043   6.488 -0.4320 -0.8855  1.9814
   67SAPC   C29 5604  -0.221   2.127   6.653 -0.1112  0.4396  0.0048
   67SAPC   H9R 5605  -0.312   2.109   6.713  1.5169  1.4006  2.9643
   67SAPC  C210 5606  -0.113   2.176   6.737  0.2296  0.3543 -0.2425
   67SAPC  H10R 5607  -0.011   2.164   6.696  1.0639  3.2541  0.7021
   67SAPC  H10S 5608  -0.131   2.144   6.841 -0.9730 -0.5489 -0.7003
   67SAPC  C211 5609  -0.125   2.326   6.742 -0.7240 -0.4751 -0.4209
   67SAPC  H11R 5610  -0.146   2.382   6.650 -0.8986 -0.6703 -0.5013
   67SAPC  C212 5611  -0.102   2.408   6.851  0.4608  0.3879  0.3962
   67SAPC  H12R 5612  -0.113   2.517   6.841 -1.9787  0.2029  0.4577
   67SAPC  C213 5613  -0.056   2.354   6.984  0.3304 -0.2072 -0.2067
   67SAPC  H13R 5614   0.054   2.344   6.972  0.1277 -1.1418 -1.4853
   67SAPC  H13S 5615  -0.095   2.252   7.003 -0.2062  0.0576  0.1250
   67SAPC  C214 5616  -0.070   2.446   7.101 -0.5948  0.3427  0.0105
   67SAPC  H14R 5617   0.011   2.516   7.125 -0.4717 -0.5909  2.5994
   67SAPC  C215 5618  -0.174   2.444   7.185  0.1034  0.1841 -0.0219
   67SAPC  H15R 5619  -0.180   2.517   7.268 -0.3840  0.4789 -0.3139
   67SAPC  C216 5620  -0.287   2.347   7.160 -0.2513  0.0734  0.1836
   67SAPC  H16R 5621  -0.259   2.245   7.193 -1.8359 -0.7283 -0.7970
   67SAPC  H16S 5622  -0.300   2.345   7.049  0.7135  3.4969 -0.0905
   67SAPC  C217 5623  -0.414   2.390   7.234 -0.1342 -0.3290 -0.2017
   67SAPC  H17R 5624  -0.419   2.500   7.220  3.1063 -0.1963 -1.1078
   67SAPC  H17S 5625  -0.413   2.386   7.345 -1.8887  0.2479 -0.1313
   67SAPC  C218 5626  -0.537   2.326   7.170  0.2604 -0.0059 -0.3681
   67SAPC  H18R 5627  -0.530   2.216   7.185 -1.3450 -0.2147 -0.9890
   67SAPC  H18S 5628  -0.535   2.341   7.060 -0.0787  0.0143 -0.3730
   67SAPC  C219 5629  -0.677   2.372   7.227 -0.0462  0.7389  0.1729
   67SAPC  H19R 5630  -0.751   2.311   7.169  3.4743 -1.6994 -2.1649
   67SAPC  H19S 5631  -0.701   2.477   7.200 -1.2644  0.4243 -0.0696
   67SAPC  C220 5632  -0.702   2.346   7.373  0.6862 -0.1069 -0.7492
   67SAPC  H20R 5633  -0.805   2.366   7.411  0.9720  1.4063 -0.6977
   67SAPC  H20S 5634  -0.630   2.407   7.431 -0.8346  2.5414 -1.4416
   67SAPC  H20T 5635  -0.672   2.241   7.391 -0.8829 -0.5511 -0.5401
   67SAPC   C33 5636   0.178   2.319   6.213  0.0636  0.2097 -0.1874
   67SAPC   H3X 5637   0.173   2.214   6.249 -0.5022  0.0768 -0.6376
   67SAPC   H3Y 5638   0.084   2.373   6.236 -0.0489  1.0465 -2.3586
   67SAPC   C34 5639   0.294   2.393   6.294  0.7580 -0.0189  0.0308
   67SAPC   H4X 5640   0.282   2.503   6.282  2.6773  0.2405  0.1248
   67SAPC   H4Y 5641   0.393   2.363   6.254  0.9285  0.5029  0.0531
   67SAPC   C35 5642   0.276   2.368   6.443  0.1265  0.6391 -0.9145
   67SAPC   H5X 5643   0.276   2.258   6.458 -0.1033  1.0414  3.1414
   67SAPC   H5Y 5644   0.174   2.401   6.472  0.3803  0.4658  0.2476
   67SAPC   C36 5645   0.370   2.434   6.547  0.2147 -0.1631 -0.2180
   67SAPC   H6X 5646   0.402   2.533   6.509  1.5389 -0.7081 -0.5847
   67SAPC   H6Y 5647   0.469   2.387   6.566  0.4560  0.6254  0.5509
   67SAPC   C37 5648   0.299   2.450   6.678  0.5425 -0.0934 -0.0655
   67SAPC   H7X 5649   0.268   2.353   6.722  1.2812 -0.8857 -1.2328
   67SAPC   H7Y 5650   0.201   2.502   6.664  2.0559  3.2371  0.7242
   67SAPC   C38 5651   0.379   2.531   6.785  0.9564 -0.4329 -0.2095
   67SAPC   H8X 5652   0.398   2.633   6.745 -2.1742 -0.0084 -0.9187
   67SAPC   H8Y 5653   0.469   2.467   6.791  0.6021 -1.3326 -2.9182
   67SAPC   C39 5654   0.309   2.543   6.921  0.0388 -0.5731 -0.0071
   67SAPC   H9X 5655   0.294   2.440   6.959  0.4088 -0.0090  1.7731
   67SAPC   H9Y 5656   0.210   2.588   6.897 -0.4416 -2.0382 -0.8748
   67SAPC  C310 5657   0.377   2.634   7.025  0.1559  0.2246  0.6587
   67SAPC  H10X 5658   0.386   2.737   6.984 -1.7735 -0.0812 -0.6523
   67SAPC  H10Y 5659   0.479   2.607   7.061  0.6891  0.6524 -0.4755
   67SAPC  C311 5660   0.291   2.647   7.143  0.6286  0.0029  0.7652
   67SAPC  H11X 5661   0.275   2.554   7.203 -0.9160  0.0289  0.4150
   67SAPC  H11Y 5662   0.191   2.686   7.117 -0.1363 -0.4465  2.8721
   67SAPC  C312 5663   0.359   2.740   7.241  0.1917 -0.5243 -0.3049
   67SAPC  H12X 5664   0.468   2.727   7.227  0.2352 -1.8512  1.0165
   67SAPC  H12Y 5665   0.332   2.714   7.346 -0.3317 -0.1146 -0.3339
   67SAPC  C313 5666   0.325   2.896   7.228  0.0154 -0.2507  0.1320
   67SAPC  H13X 5667   0.218   2.916   7.204  0.3029  1.5862  0.2457
   67SAPC  H13Y 5668   0.392   2.928   7.146  1.6166  0.5799  1.6917
   67SAPC  C314 5669   0.357   2.976   7.353 -0.0195 -0.7031 -0.2421
   67SAPC  H14X 5670   0.365   3.085   7.330  1.2070  0.4521  4.4588
   67SAPC  H14Y 5671   0.453   2.942   7.397 -0.0293 -1.3929 -0.7454
   67SAPC  C315 5672   0.246   2.957   7.459 -0.5742  0.1715 -0.5048
   67SAPC  H15X 5673   0.287   2.979   7.560 -1.0712 -2.0923  0.2529
   67SAPC  H15Y 5674   0.211   2.852   7.477 -2.4670  0.6602 -1.0483
   67SAPC  C316 5675   0.123   3.043   7.428  0.2357 -0.2911 -0.4011
   67SAPC  H16X 5676   0.070   3.013   7.335 -0.1374  0.2652 -0.3724
   67SAPC  H16Y 5677   0.158   3.144   7.398 -1.6043  0.6363  0.3797
   67SAPC  C317 5678   0.039   3.055   7.549  0.4303 -0.5997 -0.1466
   67SAPC  H17X 5679   0.064   2.961   7.602  0.5489 -0.5967 -0.1959
   67SAPC  H17Y 5680  -0.070   3.062   7.527  0.6376 -0.3452 -1.1655
   67SAPC  C318 5681   0.067   3.167   7.643 -0.2789 -0.3122 -0.0975
   67SAPC  H18X 5682   0.028   3.259   7.595 -1.8647 -0.0133  1.6377
   67SAPC  H18Y 5683   0.174   3.166   7.675 -0.7844 -0.6830  1.6958
   67SAPC  H18Z 5684   0.018   3.156   7.742 -0.2199 -1.6500 -0.2003
   68SAPC     N 5685   2.468   6.908   5.219 -0.1015  0.7829 -0.4705
   68SAPC   C12 5686   2.434   6.950   5.358 -0.0997  0.3026  0.2065
   68SAPC  H12A 5687   2.522   6.921   5.414  0.8807  1.7073 -0.5448
   68SAPC  H12B 5688   2.352   6.884   5.382 -0.0646 -0.0613 -0.6555
   68SAPC   C13 5689   2.562   7.005   5.159  0.1028 -0.2525 -0.6655
   68SAPC  H13A 5690   2.650   7.009   5.221 -0.3290 -0.6287 -0.0245
   68SAPC  H13B 5691   2.586   6.971   5.059  2.9332 -0.7749  0.0981
   68SAPC  H13C 5692   2.510   7.100   5.164 -0.6184 -0.5342 -2.2455
   68SAPC   C14 5693   2.512   6.764   5.228  0.0740  0.6222 -0.2885
   68SAPC  H14A 5694   2.512   6.714   5.132 -1.2904  0.1927 -0.0955
   68SAPC  H14B 5695   2.603   6.746   5.283 -1.6321 -1.2799  2.1486
   68SAPC  H14C 5696   2.441   6.701   5.281  0.6550  0.2100  0.0198
   68SAPC   C15 5697   2.344   6.909   5.140 -0.4266 -0.0474 -0.6151
   68SAPC  H15A 5698   2.275   6.830   5.166  0.4062  0.0549  2.3839
   68SAPC  H15B 5699   2.296   7.006   5.143 -2.2801 -0.8705 -2.1089
   68SAPC  H15C 5700   2.361   6.898   5.034  0.4268 -1.6672 -0.3359
   68SAPC   C11 5701   2.391   7.100   5.395 -0.3582 -0.4701 -0.5223
   68SAPC  H11A 5702   2.347   7.098   5.497 -0.2941  0.7588 -0.4642
   68SAPC  H11B 5703   2.302   7.135   5.340 -2.3716 -2.0666  1.5457
   68SAPC     P 5704   2.620   7.180   5.494 -0.2344  0.1839 -0.1352
   68SAPC   O13 5705   2.727   7.109   5.421 -0.0935  0.2343 -0.3124
   68SAPC   O14 5706   2.659   7.310   5.552 -0.2673 -0.3142  0.6166
   68SAPC   O12 5707   2.493   7.200   5.396 -0.5688 -0.2361 -0.4865
   68SAPC   O11 5708   2.558   7.090   5.608 -0.5235  0.4013  0.0966
   68SAPC    C1 5709   2.474   7.145   5.714  0.8123  0.3513 -0.3977
   68SAPC    HA 5710   2.407   7.227   5.681 -0.5384 -0.5756 -0.0603
   68SAPC    HB 5711   2.398   7.072   5.749 -0.9927  1.4219 -1.9184
   68SAPC    C2 5712   2.560   7.193   5.826 -0.1879  0.5362  0.2628
   68SAPC    HS 5713   2.642   7.248   5.775 -0.8699  0.1265 -1.3183
   68SAPC   O21 5714   2.603   7.074   5.895 -0.1578  0.1473  0.3315
   68SAPC   C21 5715   2.701   7.097   5.974 -0.1689 -0.3980 -0.1814
   68SAPC   O22 5716   2.781   7.187   5.975 -0.0724 -0.5707 -0.0972
   68SAPC   C22 5717   2.719   6.973   6.058 -0.4221  0.0264  0.7722
   68SAPC   H2R 5718   2.727   7.014   6.161  1.4745 -0.2024  0.7597
   68SAPC   H2S 5719   2.637   6.898   6.048 -2.1197  2.0237 -1.1769
   68SAPC    C3 5720   2.495   7.292   5.926  0.6296 -0.2762 -0.6176
   68SAPC    HX 5721   2.499   7.392   5.877  0.2548  1.2940  2.3151
   68SAPC    HY 5722   2.556   7.302   6.018  0.4870 -1.9213 -0.3202
   68SAPC   O31 5723   2.360   7.246   5.963  0.2938  0.0745 -0.2707
   68SAPC   C31 5724   2.264   7.316   5.914 -0.0901  0.1798  0.4562
   68SAPC   O32 5725   2.271   7.425   5.859 -0.6604  0.0617 -0.0328
   68SAPC   C32 5726   2.135   7.228   5.945  0.8859  0.4710  0.1982
   68SAPC   H2X 5727   2.151   7.123   5.979 -0.5349  0.5215  1.1093
   68SAPC   H2Y 5728   2.093   7.213   5.843 -0.9041  0.3394  0.9221
   68SAPC   C23 5729   2.847   6.880   6.031  1.0400  0.4701 -0.1230
   68SAPC   H3R 5730   2.931   6.948   6.005  0.9332  1.0171  0.8791
   68SAPC   H3S 5731   2.820   6.823   5.940  2.1802  2.1552 -1.5680
   68SAPC   C24 5732   2.881   6.799   6.153 -0.8762  0.9390 -0.5319
   68SAPC   H4R 5733   2.926   6.863   6.232  1.7010  0.3313 -1.4114
   68SAPC   H4S 5734   2.972   6.740   6.132 -1.3033  0.4274 -0.9739
   68SAPC   C25 5735   2.770   6.703   6.200  0.2776  0.6207 -0.3042
   68SAPC   H5R 5736   2.745   6.614   6.141 -0.5165 -0.8284  2.1179
   68SAPC   C26 5737   2.700   6.721   6.315  0.1396  0.4353  0.1340
   68SAPC   H6R 5738   2.621   6.648   6.340  0.4830 -0.8809 -2.2837
   68SAPC   C27 5739   2.722   6.829   6.418  0.4941  0.0326  0.1232
   68SAPC   H7R 5740   2.813   6.891   6.400  0.3248 -0.0757 -1.2602
   68SAPC   H7S 5741   2.741   6.778   6.514 -1.7129 -0.3739  0.3842
   68SAPC   C28 5742   2.603   6.920   6.422  0.1551  0.0591 -0.4403
   68SAPC   H8R 5743   2.508   6.865   6.434 -0.6496  1.6725  0.9536
   68SAPC   C29 5744   2.602   7.057   6.413  0.3888 -0.4707 -0.4037
   68SAPC   H9R 5745   2.505   7.106   6.430  1.2637  0.9563  0.7472
   68SAPC  C210 5746   2.715   7.157   6.394 -0.0961  0.7595 -0.8531
   68SAPC  H10R 5747   2.792   7.101   6.338  0.8575 -0.5382  1.6153
   68SAPC  H10S 5748   2.757   7.173   6.496 -2.0446  1.3819 -0.0935
   68SAPC  C211 5749   2.684   7.287   6.323  0.3124  0.1417  0.7528
   68SAPC  H11R 5750   2.653   7.276   6.219 -0.1709  1.9411  0.6639
   68SAPC  C212 5751   2.690   7.418   6.368  0.2837 -0.1578  0.1569
   68SAPC  H12R 5752   2.673   7.491   6.287  1.7510  1.7001  1.4057
   68SAPC  C213 5753   2.741   7.475   6.502  0.2850  0.2814 -0.1426
   68SAPC  H13R 5754   2.803   7.565   6.480  0.1979  0.3654 -0.0475
   68SAPC  H13S 5755   2.795   7.399   6.562  0.7848  0.3207 -0.5291
   68SAPC  C214 5756   2.619   7.522   6.578  0.0592 -0.5315 -0.4986
   68SAPC  H14R 5757   2.524   7.516   6.522 -0.0206 -1.0463 -0.3092
   68SAPC  C215 5758   2.610   7.568   6.706 -0.0447 -0.8609  0.0578
   68SAPC  H15R 5759   2.515   7.611   6.742 -0.0808  1.2102 -2.2275
   68SAPC  C216 5760   2.727   7.586   6.796  0.6347 -0.4593 -0.1235
   68SAPC  H16R 5761   2.757   7.690   6.772 -0.9028 -0.4789 -2.3881
   68SAPC  H16S 5762   2.818   7.526   6.770 -0.9384 -2.5642 -1.1066
   68SAPC  C217 5763   2.695   7.564   6.948 -0.2622  0.0455 -0.2637
   68SAPC  H17R 5764   2.787   7.582   7.006  0.5612 -0.3814 -1.3867
   68SAPC  H17S 5765   2.660   7.461   6.974  3.1172 -0.7175  1.8798
   68SAPC  C218 5766   2.578   7.649   7.001 -0.0564  0.0479  0.4455
   68SAPC  H18R 5767   2.552   7.612   7.102  0.3723 -1.3601  0.0573
   68SAPC  H18S 5768   2.482   7.641   6.945 -0.8971  0.7177  1.7337
   68SAPC  C219 5769   2.600   7.805   7.005 -0.2574  0.1855  0.0728
   68SAPC  H19R 5770   2.593   7.852   6.905 -2.2091  0.5197  0.3297
   68SAPC  H19S 5771   2.701   7.827   7.046 -0.6546  1.9109  0.1863
   68SAPC  C220 5772   2.497   7.884   7.087  0.0527 -0.5860 -1.1211
   68SAPC  H20R 5773   2.396   7.888   7.042 -0.7220  1.7761  0.6303
   68SAPC  H20S 5774   2.526   7.984   7.125 -0.9095  0.3060 -2.6168
   68SAPC  H20T 5775   2.478   7.826   7.180  0.7402 -1.8261 -1.7255
   68SAPC   C33 5776   2.032   7.298   6.034 -0.8691  0.1639 -0.2079
   68SAPC   H3X 5777   1.932   7.254   6.013  0.6431 -3.4977 -0.3816
   68SAPC   H3Y 5778   2.027   7.404   6.002  3.1439  0.9331  1.0757
   68SAPC   C34 5779   2.064   7.291   6.187  0.6399 -0.1636 -0.1716
   68SAPC   H4X 5780   2.061   7.185   6.219 -1.5615 -0.6539 -1.7437
   68SAPC   H4Y 5781   1.976   7.336   6.239  0.0005 -0.5482 -0.8930
   68SAPC   C35 5782   2.196   7.360   6.225  0.4460  0.0156 -0.2141
   68SAPC   H5X 5783   2.192   7.462   6.180  1.0064 -0.5041 -1.4875
   68SAPC   H5Y 5784   2.278   7.300   6.179  1.6596 -0.2798  2.1588
   68SAPC   C36 5785   2.223   7.363   6.381  0.0524  0.6570 -0.0387
   68SAPC   H6X 5786   2.156   7.441   6.425 -1.5088 -0.5946 -0.1265
   68SAPC   H6Y 5787   2.326   7.406   6.383 -0.6532  2.4260 -0.1969
   68SAPC   C37 5788   2.221   7.231   6.451 -0.0999  0.0663  0.6375
   68SAPC   H7X 5789   2.296   7.164   6.404 -0.1146  0.7408 -0.3922
   68SAPC   H7Y 5790   2.131   7.167   6.439 -1.0598  1.5040 -0.2389
   68SAPC   C38 5791   2.250   7.232   6.609 -0.3300 -0.1847 -0.0599
   68SAPC   H8X 5792   2.180   7.309   6.650  0.0231 -0.2046  0.5954
   68SAPC   H8Y 5793   2.346   7.285   6.626  1.7043 -3.3589 -0.7341
   68SAPC   C39 5794   2.246   7.097   6.684 -0.2975  0.3018 -0.2070
   68SAPC   H9X 5795   2.337   7.038   6.662 -0.6522  0.3056 -1.7730
   68SAPC   H9Y 5796   2.155   7.041   6.653  0.0225 -0.1954 -0.2646
   68SAPC  C310 5797   2.231   7.120   6.835 -0.4506  0.1903  0.0926
   68SAPC  H10X 5798   2.140   7.179   6.855 -0.6729  0.2364 -0.9908
   68SAPC  H10Y 5799   2.314   7.190   6.858  0.6520 -1.0550  0.0872
   68SAPC  C311 5800   2.228   6.987   6.919 -0.4887  0.1133  0.2860
   68SAPC  H11X 5801   2.327   6.937   6.924  0.3942  1.7565 -0.0062
   68SAPC  H11Y 5802   2.158   6.912   6.875 -1.7374  1.0515  0.6095
   68SAPC  C312 5803   2.186   7.005   7.065 -0.1194  0.8376 -0.0755
   68SAPC  H12X 5804   2.159   6.903   7.101  2.4543  0.3052  0.5724
   68SAPC  H12Y 5805   2.101   7.076   7.076  0.5266  1.4326  1.3092
   68SAPC  C313 5806   2.299   7.056   7.152  1.1033  0.0145  0.8551
   68SAPC  H13X 5807   2.393   6.999   7.138  0.9510  0.0014 -0.1889
   68SAPC  H13Y 5808   2.273   7.049   7.260 -0.6897  0.0616  0.4624
   68SAPC  C314 5809   2.331   7.201   7.125  0.2355 -0.4976 -1.0685
   68SAPC  H14X 5810   2.242   7.245   7.075 -1.4770  0.3028  2.3670
   68SAPC  H14Y 5811   2.420   7.200   7.058  0.6424  0.0501 -0.5500
   68SAPC  C315 5812   2.380   7.276   7.242 -0.0734  0.3508  0.4178
   68SAPC  H15X 5813   2.284   7.292   7.296 -0.6856  0.7810 -0.7825
   68SAPC  H15Y 5814   2.414   7.375   7.206 -0.5224 -0.9841 -4.2449
   68SAPC  C316 5815   2.479   7.216   7.341 -0.7269 -0.2282 -0.5953
   68SAPC  H16X 5816   2.424   7.139   7.400  0.6085  0.2845  1.4687
   68SAPC  H16Y 5817   2.504   7.289   7.421 -0.7418  0.8832 -1.5779
   68SAPC  C317 5818   2.613   7.165   7.278  0.9291 -0.8369 -0.2177
   68SAPC  H17X 5819   2.668   7.260   7.260 -1.2732  0.9696  1.7814
   68SAPC  H17Y 5820   2.595   7.114   7.181 -2.2155 -1.3722  0.5175
   68SAPC  C318 5821   2.704   7.064   7.360 -0.3868 -1.0633 -0.9555
   68SAPC  H18X 5822   2.730   7.105   7.460 -0.3663 -0.7822 -1.0751
   68SAPC  H18Y 5823   2.786   7.031   7.293  0.1562  0.5754 -1.1395
   68SAPC  H18Z 5824   2.644   6.974   7.386 -1.0758 -0.4119 -0.2207
   69SLPC     N 5825   2.875   4.561   9.527  0.1861  0.1056  0.8206
   69SLPC   C13 5826   2.829   4.615   9.399 -0.5644 -0.1445 -0.6243
   69SLPC  H13A 5827   2.741   4.674   9.420  1.2948  2.7425 -0.4244
   69SLPC  H13B 5828   2.899   4.685   9.355  0.1045 -0.0602  0.5441
   69SLPC  H13C 5829   2.801   4.531   9.337 -1.6643 -2.6918  3.0267
   69SLPC   C14 5830   2.756   4.529   9.619 -0.2881 -0.3947 -0.2839
   69SLPC  H14A 5831   2.791   4.506   9.718 -0.5139 -1.7023 -0.4797
   69SLPC  H14B 5832   2.693   4.616   9.617  1.2920  0.8885  1.9582
   69SLPC  H14C 5833   2.709   4.444   9.570 -0.0966  1.2207 -3.5255
   69SLPC   C15 5834   2.949   4.666   9.600  0.1245  0.3744  0.4682
   69SLPC  H15A 5835   3.047   4.689   9.561  0.0592 -2.8390 -2.0484
   69SLPC  H15B 5836   2.898   4.761   9.606 -1.2858 -0.3826  1.0597
   69SLPC  H15C 5837   2.968   4.627   9.699 -1.0632 -0.6405  0.3260
   69SLPC   C12 5838   2.970   4.440   9.504 -0.8264  0.5685 -0.0586
   69SLPC  H12A 5839   3.051   4.464   9.438  0.5984 -1.6005  0.7862
   69SLPC  H12B 5840   2.912   4.357   9.465  0.9160 -0.8167  0.2088
   69SLPC   C11 5841   3.031   4.376   9.625  0.4935  0.2448  0.0319
   69SLPC  H11A 5842   3.100   4.454   9.664  0.6039  0.1238  0.0759
   69SLPC  H11B 5843   3.086   4.286   9.590 -0.0752  0.2237 -0.8599
   69SLPC     P 5844   2.847   4.206   9.715 -0.1910 -0.1241 -0.0671
   69SLPC   O13 5845   2.922   4.096   9.782 -0.3972  0.3746  0.1412
   69SLPC   O14 5846   2.710   4.242   9.751 -0.4237 -1.0332 -0.3564
   69SLPC   O12 5847   2.939   4.339   9.729 -0.1534 -0.5977 -0.4435
   69SLPC   O11 5848   2.849   4.189   9.555 -0.4766  0.1828  0.3185
   69SLPC    C1 5849   2.822   4.056   9.507  0.2736  0.1865 -0.2981
   69SLPC    HA 5850   2.897   3.985   9.548 -1.8768 -1.3009  1.2654
   69SLPC    HB 5851   2.719   4.036   9.541  0.0046  2.3723  0.3547
   69SLPC    C2 5852   2.829   4.051   9.354 -0.2357  0.2746 -0.1170
   69SLPC    HS 5853   2.829   3.946   9.320 -0.2202  0.4885 -0.7948
   69SLPC   O21 5854   2.949   4.121   9.311  0.4261  0.3624 -0.3129
   69SLPC   C21 5855   3.058   4.051   9.321  0.7518 -0.3149 -0.8532
   69SLPC   O22 5856   3.072   3.932   9.343 -0.4390 -0.3639 -0.4273
   69SLPC   C22 5857   3.176   4.150   9.304  0.1773 -0.4961  0.0486
   69SLPC   H2R 5858   3.181   4.202   9.402 -0.6741 -1.4497  0.6158
   69SLPC   H2S 5859   3.270   4.093   9.291  0.7828  0.4134  0.3644
   69SLPC    C3 5860   2.704   4.119   9.291  0.2833 -0.5059 -0.0650
   69SLPC    HX 5861   2.692   4.227   9.313 -1.2871 -0.2756 -1.8010
   69SLPC    HY 5862   2.610   4.082   9.335  1.0265 -1.6425  0.6096
   69SLPC   O31 5863   2.697   4.086   9.152  0.6403 -0.4876  0.1356
   69SLPC   C31 5864   2.735   4.185   9.064 -0.1856  0.5375  0.7355
   69SLPC   O32 5865   2.772   4.291   9.101  0.0490 -0.3486 -0.3028
   69SLPC   C32 5866   2.722   4.149   8.913  0.1086 -0.5168 -0.1204
   69SLPC   H2X 5867   2.626   4.192   8.876  0.6027 -0.6493 -1.6499
   69SLPC   H2Y 5868   2.715   4.038   8.910  0.0922 -0.5074 -0.4498
   69SLPC   C23 5869   3.172   4.257   9.187  0.2192 -0.3268 -0.6204
   69SLPC   H3R 5870   3.073   4.306   9.193  0.3338 -0.1282 -0.3383
   69SLPC   H3S 5871   3.195   4.196   9.097  0.6435 -1.1746  0.0483
   69SLPC   C24 5872   3.273   4.361   9.232  0.2823  0.0552 -0.2650
   69SLPC   H4R 5873   3.374   4.319   9.250 -0.1876 -0.4058  1.5631
   69SLPC   H4S 5874   3.243   4.397   9.333  0.8518 -0.3693  0.0563
   69SLPC   C25 5875   3.291   4.483   9.149 -0.0610 -0.1992 -0.0478
   69SLPC   H5R 5876   3.351   4.451   9.061  0.8325  1.1767  0.0342
   69SLPC   H5S 5877   3.357   4.555   9.202  0.0516 -0.4714  0.1826
   69SLPC   C26 5878   3.158   4.549   9.103  0.2400 -0.1436 -0.2054
   69SLPC   H6R 5879   3.104   4.599   9.187  0.8113  1.5641 -0.8074
   69SLPC   H6S 5880   3.089   4.475   9.058 -1.8247 -0.1852  2.7402
   69SLPC   C27 5881   3.192   4.660   8.993 -0.4046  0.5055 -0.0440
   69SLPC   H7R 5882   3.233   4.591   8.916 -2.8909 -1.5390  0.3431
   69SLPC   H7S 5883   3.269   4.735   9.023 -0.8380  0.0451  2.4232
   69SLPC   C28 5884   3.068   4.721   8.921  0.4377  0.0601  0.1078
   69SLPC   H8R 5885   3.011   4.641   8.868  2.1752 -0.0020 -1.7692
   69SLPC   H8S 5886   3.099   4.783   8.835  4.2369 -3.2407 -1.2191
   69SLPC   C29 5887   2.978   4.802   9.009  0.3959  0.2021  0.4876
   69SLPC   H9R 5888   3.020   4.834   9.106  0.3837  1.6812  0.0314
   69SLPC  C210 5889   2.842   4.824   9.005 -0.5466  0.0861  0.0581
   69SLPC  H10R 5890   2.797   4.896   9.075  1.5139  1.5018  0.0195
   69SLPC  C211 5891   2.738   4.772   8.907 -0.6784  0.3144  0.2763
   69SLPC  H11R 5892   2.765   4.667   8.879  0.9089  0.0613  2.5609
   69SLPC  H11S 5893   2.761   4.828   8.814 -0.6163  1.0581  0.7319
   69SLPC  C212 5894   2.593   4.775   8.947  0.0426  1.0828 -1.4062
   69SLPC  H12R 5895   2.582   4.792   9.055 -0.4989  1.5836 -1.5363
   69SLPC  C213 5896   2.493   4.761   8.862  0.0661  0.2633 -0.6784
   69SLPC  H13R 5897   2.389   4.764   8.900 -1.0008  2.2608 -3.4074
   69SLPC  C214 5898   2.495   4.749   8.713  0.1797  0.0289 -0.2624
   69SLPC  H14R 5899   2.601   4.750   8.678  0.4991  2.0316  0.5854
   69SLPC  H14S 5900   2.461   4.844   8.668 -0.2849 -0.1860 -0.3669
   69SLPC  C215 5901   2.422   4.626   8.671  0.1538  0.0358 -0.4003
   69SLPC  H15R 5902   2.377   4.645   8.571  1.4090 -0.3135 -1.0504
   69SLPC  H15S 5903   2.341   4.603   8.744  0.4086 -3.4420 -1.0390
   69SLPC  C216 5904   2.506   4.501   8.667 -0.2238 -0.1170 -0.3116
   69SLPC  H16R 5905   2.501   4.453   8.767  0.7971  0.1117 -0.1418
   69SLPC  H16S 5906   2.611   4.531   8.648 -1.0151  2.8537 -0.4835
   69SLPC  C217 5907   2.461   4.403   8.557 -0.1608  0.1820 -0.3633
   69SLPC  H17R 5908   2.497   4.454   8.465 -0.9985  0.5660 -0.4801
   69SLPC  H17S 5909   2.353   4.380   8.562  0.0639 -0.6401  1.3292
   69SLPC  C218 5910   2.523   4.263   8.574  0.1020 -0.5013  0.5355
   69SLPC  H18R 5911   2.484   4.222   8.669 -3.0240  1.9009  0.4541
   69SLPC  H18S 5912   2.633   4.278   8.575 -0.0397  0.9710 -0.8414
   69SLPC  H18T 5913   2.495   4.195   8.491 -2.0884 -0.9584  1.5866
   69SLPC   C33 5914   2.836   4.203   8.811 -0.2484 -0.5917 -0.2687
   69SLPC   H3X 5915   2.804   4.169   8.710 -0.1527  1.1753 -0.9326
   69SLPC   H3Y 5916   2.939   4.169   8.837 -0.5517 -1.2846  0.0513
   69SLPC   C34 5917   2.821   4.358   8.815  0.4500 -0.5324 -1.3248
   69SLPC   H4X 5918   2.892   4.401   8.890  1.6123 -3.8785 -0.3354
   69SLPC   H4Y 5919   2.713   4.381   8.829  0.2622 -2.1589  0.2479
   69SLPC   C35 5920   2.865   4.433   8.687  0.2333  0.3052  0.0079
   69SLPC   H5X 5921   2.880   4.542   8.697  2.0405  0.1546 -0.6570
   69SLPC   H5Y 5922   2.793   4.405   8.606 -0.4758 -1.2903  1.1363
   69SLPC   C36 5923   2.993   4.381   8.623  0.0392  0.2655  0.3556
   69SLPC   H6X 5924   3.010   4.426   8.523 -2.3688  1.7214  0.5138
   69SLPC   H6Y 5925   2.991   4.272   8.603  1.6325  0.4536 -1.0913
   69SLPC   C37 5926   3.121   4.413   8.700 -0.7698  0.1131  0.2254
   69SLPC   H7X 5927   3.109   4.398   8.809  1.3789  3.0031  0.9762
   69SLPC   H7Y 5928   3.139   4.522   8.687 -0.7916 -0.1725 -3.5087
   69SLPC   C38 5929   3.241   4.335   8.652 -0.1104 -0.1428 -0.0495
   69SLPC   H8X 5930   3.259   4.349   8.544 -1.3118  0.4946 -0.1901
   69SLPC   H8Y 5931   3.214   4.228   8.666 -0.3239  0.2481  3.3923
   69SLPC   C39 5932   3.364   4.362   8.747  0.0214  0.1830 -0.3388
   69SLPC   H9X 5933   3.339   4.343   8.853  0.0310 -2.5409 -0.7399
   69SLPC   H9Y 5934   3.391   4.468   8.732 -0.7360  0.6955  1.6397
   69SLPC  C310 5935   3.489   4.271   8.723  0.1739 -0.1719  1.1534
   69SLPC  H10X 5936   3.471   4.171   8.769  1.4893  0.0576  2.2130
   69SLPC  H10Y 5937   3.575   4.324   8.770  1.0805 -0.2766 -0.3469
   69SLPC  C311 5938   3.525   4.240   8.572 -0.0565 -0.2888 -1.2932
   69SLPC  H11X 5939   3.557   4.335   8.524 -0.2672  0.2468 -0.3803
   69SLPC  H11Y 5940   3.436   4.195   8.523  0.2334 -3.0001  0.4820
   69SLPC  C312 5941   3.634   4.136   8.557  0.5211  0.1835 -0.2535
   69SLPC  H12X 5942   3.609   4.055   8.629 -1.9571  1.0928 -0.0095
   69SLPC  H12Y 5943   3.731   4.183   8.586 -0.4274  0.4366  2.7622
   69SLPC  C313 5944   3.652   4.070   8.415  0.1494 -0.3057  0.4159
   69SLPC  H13X 5945   3.686   4.154   8.350  0.5420 -0.2636  0.6684
   69SLPC  H13Y 5946   3.556   4.030   8.377  0.1385 -1.8378  1.9431
   69SLPC  C314 5947   3.756   3.955   8.417  0.4223 -0.1734  0.1071
   69SLPC  H14X 5948   3.733   3.875   8.491 -0.7894  1.4365  1.5759
   69SLPC  H14Y 5949   3.857   3.996   8.437 -0.0526  0.4853  1.2971
   69SLPC  C315 5950   3.753   3.871   8.286  0.0323 -0.1547  0.3705
   69SLPC  H15X 5951   3.652   3.830   8.269 -0.6047  2.1140 -2.1108
   69SLPC  H15Y 5952   3.810   3.777   8.302 -1.3542 -1.4602 -1.8300
   69SLPC  C316 5953   3.800   3.951   8.161 -0.5316 -0.9167 -0.2315
   69SLPC  H16X 5954   3.908   3.970   8.171 -0.4873 -1.7454  1.1476
   69SLPC  H16Y 5955   3.737   4.040   8.138 -0.0648 -1.5941 -5.1943
   69SLPC  C317 5956   3.777   3.862   8.045 -0.5536  0.5015  0.6168
   69SLPC  H17X 5957   3.672   3.832   8.027 -0.2194  0.6287 -1.9191
   69SLPC  H17Y 5958   3.829   3.772   8.082 -0.6603  0.1174 -0.1525
   69SLPC  C318 5959   3.829   3.897   7.905 -0.0975 -0.3772 -0.8322
   69SLPC  H18X 5960   3.774   3.981   7.856  0.9485 -1.4925 -4.0922
   69SLPC  H18Y 5961   3.815   3.809   7.840  0.3177 -1.2137  0.1816
   69SLPC  H18Z 5962   3.936   3.925   7.910 -0.4231  0.8139  0.4207
   70SLPC     N 5963   3.652   4.216   9.817  0.2483 -0.0422  0.2704
   70SLPC   C13 5964   3.776   4.199   9.893  0.3358 -0.3018 -0.4606
   70SLPC  H13A 5965   3.775   4.253   9.986  1.1224 -2.7220  1.0479
   70SLPC  H13B 5966   3.786   4.097   9.928 -0.7064 -0.3952 -0.3851
   70SLPC  H13C 5967   3.866   4.219   9.837  0.8211 -0.8334  0.1075
   70SLPC   C14 5968   3.647   4.357   9.778 -0.0378  1.0695  0.1280
   70SLPC  H14A 5969   3.558   4.366   9.718 -0.3113  3.1143  0.7646
   70SLPC  H14B 5970   3.628   4.421   9.863 -1.1223  0.2612  0.5181
   70SLPC  H14C 5971   3.738   4.397   9.737  0.6438 -0.8226 -0.3079
   70SLPC   C15 5972   3.528   4.191   9.896  0.1563 -0.6909  0.7044
   70SLPC  H15A 5973   3.518   4.266   9.973 -0.7718  1.7572 -1.6281
   70SLPC  H15B 5974   3.446   4.203   9.826  1.4173 -1.0549 -0.8742
   70SLPC  H15C 5975   3.532   4.097   9.949  0.1636 -1.4007 -0.5307
   70SLPC   C12 5976   3.645   4.137   9.687 -0.5992 -0.1259  0.3732
   70SLPC  H12A 5977   3.738   4.155   9.635  0.2985 -2.2406  1.1517
   70SLPC  H12B 5978   3.572   4.180   9.619  1.4123  0.0245 -1.8291
   70SLPC   C11 5979   3.638   3.986   9.697 -0.0953 -0.6182 -0.2560
   70SLPC  H11A 5980   3.613   3.931   9.603 -2.6529  1.1287 -0.7335
   70SLPC  H11B 5981   3.552   3.954   9.760 -0.2743 -0.0417 -0.1989
   70SLPC     P 5982   3.889   3.936   9.678 -0.0465  0.2944  0.0981
   70SLPC   O13 5983   3.903   4.068   9.610 -0.4446  0.0424  0.1013
   70SLPC   O14 5984   3.997   3.894   9.772 -0.2986  0.2395  0.5092
   70SLPC   O12 5985   3.752   3.926   9.763  0.5484  0.2232  0.5297
   70SLPC   O11 5986   3.870   3.826   9.574  0.0492  0.3663  0.1011
   70SLPC    C1 5987   3.796   3.708   9.604 -0.3188  0.1379 -0.6677
   70SLPC    HA 5988   3.702   3.718   9.663  0.2905 -1.0973  0.5680
   70SLPC    HB 5989   3.771   3.667   9.504  1.6664  0.4427 -1.3294
   70SLPC    C2 5990   3.881   3.601   9.680 -0.1695  0.3234 -0.0768
   70SLPC    HS 5991   3.918   3.634   9.779 -0.8473 -0.7281  0.5407
   70SLPC   O21 5992   3.995   3.572   9.599 -0.0834  0.7519  0.0158
   70SLPC   C21 5993   4.101   3.522   9.659  0.1901  0.6725  0.1953
   70SLPC   O22 5994   4.108   3.487   9.778  0.0244 -0.0402  0.5842
   70SLPC   C22 5995   4.225   3.515   9.562 -0.1205  0.2124 -0.4117
   70SLPC   H2R 5996   4.201   3.564   9.465  1.3160  1.8774  0.0192
   70SLPC   H2S 5997   4.302   3.576   9.615  0.9492 -0.7098 -0.8757
   70SLPC    C3 5998   3.798   3.484   9.725 -0.9641 -0.1998  0.0927
   70SLPC    HX 5999   3.708   3.519   9.781 -0.7904  0.7113 -0.1781
   70SLPC    HY 6000   3.861   3.422   9.792 -0.0563  0.0884 -0.4820
   70SLPC   O31 6001   3.762   3.402   9.617 -0.0844 -1.0475 -0.1523
   70SLPC   C31 6002   3.646   3.420   9.548 -0.2092  0.0867  0.4251
   70SLPC   O32 6003   3.557   3.491   9.576 -0.2698 -0.1142 -0.1615
   70SLPC   C32 6004   3.658   3.340   9.419 -1.3977 -0.0066  0.5093
   70SLPC   H2X 6005   3.560   3.352   9.368 -1.6302  2.9153  1.4938
   70SLPC   H2Y 6006   3.656   3.234   9.452 -0.3718 -0.6917 -1.4610
   70SLPC   C23 6007   4.277   3.379   9.534 -1.1866  0.3238 -0.4293
   70SLPC   H3R 6008   4.194   3.322   9.487  0.0880 -0.8291 -1.3668
   70SLPC   H3S 6009   4.323   3.328   9.621  0.8201  2.9887  0.2180
   70SLPC   C24 6010   4.395   3.380   9.433  0.3085  0.6963 -0.4060
   70SLPC   H4R 6011   4.464   3.454   9.480 -2.8139  2.2486  2.0949
   70SLPC   H4S 6012   4.359   3.431   9.341 -1.4809 -2.5478 -1.6583
   70SLPC   C25 6013   4.460   3.242   9.409  0.1517 -0.3331  0.9976
   70SLPC   H5R 6014   4.392   3.164   9.368  1.0386 -1.2030  1.1357
   70SLPC   H5S 6015   4.509   3.205   9.502  0.3637  0.1892  1.0983
   70SLPC   C26 6016   4.562   3.277   9.300  0.1994  0.3380  0.6826
   70SLPC   H6R 6017   4.629   3.351   9.349  1.3621 -0.8978  1.0536
   70SLPC   H6S 6018   4.503   3.306   9.211  0.3358 -0.4814  0.3192
   70SLPC   C27 6019   4.651   3.167   9.255 -0.1015  0.6169 -0.0719
   70SLPC   H7R 6020   4.591   3.078   9.226 -0.3007  1.1560 -1.3796
   70SLPC   H7S 6021   4.701   3.130   9.347  0.5347 -1.4862 -1.1932
   70SLPC   C28 6022   4.757   3.205   9.153  0.8071 -0.4101  0.2931
   70SLPC   H8R 6023   4.833   3.123   9.155  0.5030 -0.7397 -0.8261
   70SLPC   H8S 6024   4.811   3.294   9.192  2.5879 -1.2846 -0.0585
   70SLPC   C29 6025   4.708   3.234   9.015 -0.2702 -0.1217  0.0776
   70SLPC   H9R 6026   4.702   3.343   8.998 -1.2772  0.0206  1.2686
   70SLPC  C210 6027   4.661   3.150   8.929  0.1973  0.4685  0.0549
   70SLPC  H10R 6028   4.623   3.191   8.834 -0.0673 -0.5047 -0.2658
   70SLPC  C211 6029   4.642   3.005   8.959 -0.1554 -0.1615  0.4500
   70SLPC  H11R 6030   4.645   2.977   9.066  0.0508  0.0614  0.5033
   70SLPC  H11S 6031   4.715   2.933   8.917 -0.0028 -0.5749  1.4127
   70SLPC  C212 6032   4.499   2.965   8.908 -0.3061  0.5294 -0.3729
   70SLPC  H12R 6033   4.428   2.980   8.991 -0.3896 -0.5226 -0.2437
   70SLPC  C213 6034   4.461   2.900   8.798  0.2554 -0.3619 -0.6024
   70SLPC  H13R 6035   4.356   2.869   8.792  0.9536 -3.3927  0.9357
   70SLPC  C214 6036   4.557   2.851   8.692  0.6898 -0.5641 -0.3074
   70SLPC  H14R 6037   4.494   2.784   8.631 -0.0205  1.5557 -2.0151
   70SLPC  H14S 6038   4.639   2.785   8.729  0.3426 -1.4830 -1.1534
   70SLPC  C215 6039   4.612   2.961   8.604  0.1245 -0.6213  0.7223
   70SLPC  H15R 6040   4.683   2.901   8.544  0.2320  0.0592  0.1488
   70SLPC  H15S 6041   4.672   3.029   8.668  0.5364 -1.1943  0.9473
   70SLPC  C216 6042   4.514   3.049   8.513 -0.4925  0.5516 -1.6885
   70SLPC  H16R 6043   4.447   3.095   8.589  0.2463 -0.6463 -0.2386
   70SLPC  H16S 6044   4.465   2.969   8.454  0.1677 -0.5815 -0.7536
   70SLPC  C217 6045   4.593   3.136   8.421  0.0089  0.3577  0.4245
   70SLPC  H17R 6046   4.517   3.184   8.356 -1.0891 -0.2923  1.1986
   70SLPC  H17S 6047   4.660   3.080   8.352  1.9557  2.3953  0.5705
   70SLPC  C218 6048   4.679   3.244   8.486  0.2414 -0.3916  0.1817
   70SLPC  H18R 6049   4.767   3.199   8.539 -1.1745 -2.3044  1.0470
   70SLPC  H18S 6050   4.624   3.303   8.562  0.7654  0.4853 -0.1122
   70SLPC  H18T 6051   4.714   3.318   8.411 -1.5513  0.6589  0.3330
   70SLPC   C33 6052   3.776   3.375   9.318  0.2701  0.7029  0.2744
   70SLPC   H3X 6053   3.793   3.282   9.259 -2.7899  0.5113 -0.4521
   70SLPC   H3Y 6054   3.869   3.406   9.370  0.5262  0.0522  0.2139
   70SLPC   C34 6055   3.730   3.478   9.210 -0.1577 -0.0554 -0.3885
   70SLPC   H4X 6056   3.650   3.546   9.246  0.6021  0.9203 -0.5284
   70SLPC   H4Y 6057   3.679   3.431   9.123 -0.3748  1.6942 -1.2506
   70SLPC   C35 6058   3.846   3.563   9.171 -0.1199  0.0571  0.2803
   70SLPC   H5X 6059   3.867   3.651   9.236 -2.0900  0.8545 -0.0738
   70SLPC   H5Y 6060   3.816   3.602   9.071  2.9619 -0.8980 -1.1362
   70SLPC   C36 6061   3.985   3.508   9.141  0.1033  0.5288  0.1655
   70SLPC   H6X 6062   3.980   3.415   9.081 -1.2975  0.3831  0.4704
   70SLPC   H6Y 6063   4.025   3.480   9.241 -1.2702 -1.2297  0.2882
   70SLPC   C37 6064   4.082   3.612   9.080 -0.6721  1.1313 -0.3765
   70SLPC   H7X 6065   4.067   3.712   9.126  1.4653  0.1753  2.7078
   70SLPC   H7Y 6066   4.054   3.614   8.972  0.0057 -0.7625 -0.6300
   70SLPC   C38 6067   4.230   3.580   9.113  0.2815  0.3734  0.2799
   70SLPC   H8X 6068   4.237   3.560   9.222 -0.0321  2.2528  0.6708
   70SLPC   H8Y 6069   4.286   3.674   9.096 -0.2307  0.8935  1.3631
   70SLPC   C39 6070   4.283   3.461   9.026 -0.1940  0.2853 -0.4775
   70SLPC   H9X 6071   4.235   3.366   9.057  1.2806 -0.0787  0.8647
   70SLPC   H9Y 6072   4.389   3.453   9.059  0.7101  2.0597 -2.6923
   70SLPC  C310 6073   4.269   3.482   8.880 -0.6339 -0.0220 -0.5781
   70SLPC  H10X 6074   4.276   3.591   8.859 -0.8629  0.4702  1.6437
   70SLPC  H10Y 6075   4.168   3.452   8.845 -0.0613 -1.2991 -1.2148
   70SLPC  C311 6076   4.379   3.405   8.795  0.5574  1.0980  0.7389
   70SLPC  H11X 6077   4.358   3.300   8.824 -0.1633  0.3737 -2.0894
   70SLPC  H11Y 6078   4.481   3.440   8.823  1.2556 -0.5711  0.3721
   70SLPC  C312 6079   4.366   3.420   8.651 -0.1376  0.5103 -0.0881
   70SLPC  H12X 6080   4.259   3.415   8.623 -0.3034 -1.9788  0.7433
   70SLPC  H12Y 6081   4.430   3.349   8.594 -0.4003  0.1778  0.0287
   70SLPC  C313 6082   4.430   3.555   8.612  0.1438  0.5265  0.1991
   70SLPC  H13X 6083   4.534   3.545   8.649 -0.5756 -1.2192  1.9205
   70SLPC  H13Y 6084   4.377   3.630   8.675  1.9791  0.6843  1.6150
   70SLPC  C314 6085   4.423   3.595   8.465 -0.4037 -0.1845  0.1986
   70SLPC  H14X 6086   4.472   3.695   8.453 -0.8795  0.0572  0.2596
   70SLPC  H14Y 6087   4.318   3.610   8.433 -0.7435 -2.9985 -0.2468
   70SLPC  C315 6088   4.472   3.497   8.364 -0.0207  0.5721  0.3011
   70SLPC  H15X 6089   4.427   3.397   8.381  0.3663  0.5832  1.4481
   70SLPC  H15Y 6090   4.582   3.482   8.369  0.1092  1.3852  0.0117
   70SLPC  C316 6091   4.442   3.528   8.216 -0.5439  0.2006  0.0585
   70SLPC  H16X 6092   4.468   3.636   8.203  1.5311 -0.2592  0.0841
   70SLPC  H16Y 6093   4.337   3.507   8.188 -0.6048  2.0046 -1.2560
   70SLPC  C317 6094   4.530   3.445   8.113  0.2512 -0.0992 -0.0843
   70SLPC  H17X 6095   4.528   3.337   8.139 -0.9611 -0.1196 -0.1995
   70SLPC  H17Y 6096   4.634   3.469   8.140  0.7685 -1.1677 -1.0357
   70SLPC  C318 6097   4.507   3.472   7.967 -0.4476  0.5797  0.7243
   70SLPC  H18X 6098   4.432   3.554   7.956 -0.2792  0.5985 -0.4972
   70SLPC  H18Y 6099   4.468   3.378   7.921  0.1187  0.5629  0.2734
   70SLPC  H18Z 6100   4.599   3.504   7.914 -0.5114  0.9218  0.8183
   71SLPC     N 6101   3.791   2.783  10.285  0.0204  0.2085  0.1216
   71SLPC   C13 6102   3.819   2.903  10.190 -0.0991 -0.4196  0.1518
   71SLPC  H13A 6103   3.806   2.865  10.089  2.0520  0.6082 -0.5739
   71SLPC  H13B 6104   3.728   2.960  10.197 -1.6295 -2.2106 -2.8029
   71SLPC  H13C 6105   3.913   2.951  10.211  0.7772 -2.0423  0.1244
   71SLPC   C14 6106   3.780   2.848  10.421  0.3749  0.1543  0.4142
   71SLPC  H14A 6107   3.875   2.890  10.450  0.0777  2.0198 -1.1153
   71SLPC  H14B 6108   3.703   2.923  10.422 -1.0307 -1.0673 -3.0586
   71SLPC  H14C 6109   3.750   2.776  10.496 -1.4584 -0.1433 -0.5424
   71SLPC   C15 6110   3.903   2.684  10.298 -0.1441 -0.2237 -0.0503
   71SLPC  H15A 6111   3.890   2.614  10.379  0.5998 -0.6840 -0.3184
   71SLPC  H15B 6112   3.927   2.644  10.201  3.6657  1.7650 -0.1434
   71SLPC  H15C 6113   3.990   2.743  10.323  0.2531 -0.7445 -0.1733
   71SLPC   C12 6114   3.672   2.699  10.241  1.1062  0.2822 -0.4570
   71SLPC  H12A 6115   3.589   2.765  10.223  0.1930 -0.1918  1.7061
   71SLPC  H12B 6116   3.632   2.639  10.321  0.2278  1.1254 -0.2539
   71SLPC   C11 6117   3.685   2.608  10.116 -0.0073  0.6293 -0.4410
   71SLPC  H11A 6118   3.584   2.563  10.105 -0.5820  1.3740  1.3859
   71SLPC  H11B 6119   3.761   2.531  10.142  1.8032  2.6777  0.6218
   71SLPC     P 6120   3.828   2.628   9.889  0.0258  0.3826  0.0073
   71SLPC   O13 6121   3.836   2.726   9.783  0.0103  0.3914  0.2303
   71SLPC   O14 6122   3.959   2.597   9.952  0.3441  0.6006  0.0588
   71SLPC   O12 6123   3.731   2.685  10.002  0.0359 -0.1171  0.3653
   71SLPC   O11 6124   3.762   2.494   9.835 -0.2030 -0.0612  0.2355
   71SLPC    C1 6125   3.631   2.490   9.785 -0.2841  0.1920  0.1610
   71SLPC    HA 6126   3.574   2.570   9.837  0.1398  0.2471  0.5573
   71SLPC    HB 6127   3.632   2.505   9.675 -0.3209 -1.2648 -0.0557
   71SLPC    C2 6128   3.551   2.365   9.828  0.6039 -0.3959 -0.0461
   71SLPC    HS 6129   3.563   2.349   9.937  0.5699  0.7137  0.1373
   71SLPC   O21 6130   3.617   2.262   9.749 -0.2230 -0.0347  0.2363
   71SLPC   C21 6131   3.605   2.128   9.783 -0.3427  0.4245  0.1312
   71SLPC   O22 6132   3.537   2.089   9.878  0.0509  0.2073  0.6184
   71SLPC   C22 6133   3.675   2.036   9.680  0.3386 -0.0975  0.3703
   71SLPC   H2R 6134   3.667   2.086   9.581 -1.0646  0.5649  0.7948
   71SLPC   H2S 6135   3.779   2.034   9.718  0.1597  1.6185  1.0542
   71SLPC    C3 6136   3.400   2.381   9.805  0.2760 -0.1148 -0.1649
   71SLPC    HX 6137   3.374   2.475   9.859 -0.3204 -0.6709  0.5489
   71SLPC    HY 6138   3.339   2.302   9.854 -0.8385 -0.7165 -2.3881
   71SLPC   O31 6139   3.371   2.394   9.666  0.5749 -0.3075  1.1786
   71SLPC   C31 6140   3.352   2.281   9.586  0.5870  0.3500 -0.4199
   71SLPC   O32 6141   3.314   2.178   9.636 -0.3245 -0.6137  0.3765
   71SLPC   C32 6142   3.380   2.304   9.440 -0.2843 -0.1692  0.6710
   71SLPC   H2X 6143   3.304   2.372   9.394 -1.5352 -1.1154  1.2772
   71SLPC   H2Y 6144   3.367   2.207   9.388  2.3517 -0.5271  0.5399
   71SLPC   C23 6145   3.623   1.898   9.684  0.1480 -0.7689 -0.5095
   71SLPC   H3R 6146   3.615   1.859   9.788  0.2673 -1.2319 -0.6709
   71SLPC   H3S 6147   3.691   1.837   9.621  0.4557  1.3586 -2.3407
   71SLPC   C24 6148   3.486   1.886   9.619 -0.5995 -0.4333  0.0805
   71SLPC   H4R 6149   3.418   1.955   9.672  0.9135  0.6555  0.6521
   71SLPC   H4S 6150   3.447   1.783   9.637 -0.3549 -1.2912 -3.4820
   71SLPC   C25 6151   3.476   1.905   9.466 -0.6514 -0.1063 -0.4955
   71SLPC   H5R 6152   3.545   1.828   9.425 -0.9422  0.1473 -1.4824
   71SLPC   H5S 6153   3.519   2.000   9.427 -2.1485 -0.0822 -2.2290
   71SLPC   C26 6154   3.334   1.897   9.422 -0.3945 -0.0654  0.0986
   71SLPC   H6R 6155   3.273   1.973   9.475  1.1318  1.1441  0.2090
   71SLPC   H6S 6156   3.297   1.800   9.463 -1.8453  0.5610  0.3178
   71SLPC   C27 6157   3.304   1.903   9.269 -0.3171  0.0225  0.1066
   71SLPC   H7R 6158   3.371   1.838   9.209  0.1533  3.6391 -3.8526
   71SLPC   H7S 6159   3.344   2.002   9.237  2.4251 -1.1413 -0.3823
   71SLPC   C28 6160   3.164   1.884   9.213  0.2801  0.3513 -0.5896
   71SLPC   H8R 6161   3.133   1.794   9.271  2.1240 -0.0985 -0.2575
   71SLPC   H8S 6162   3.177   1.859   9.105 -0.4259  1.1192 -0.8633
   71SLPC   C29 6163   3.074   2.001   9.244  0.4399  0.3225 -0.6265
   71SLPC   H9R 6164   3.098   2.062   9.332  0.7433  0.2234 -0.6404
   71SLPC  C210 6165   2.967   2.045   9.168  0.2089  0.0563  0.0121
   71SLPC  H10R 6166   2.914   2.130   9.213 -0.6826 -0.7303  0.4952
   71SLPC  C211 6167   2.917   1.970   9.048  0.8390  0.6354  0.6180
   71SLPC  H11R 6168   2.903   1.869   9.092 -1.6793  0.6809  0.0902
   71SLPC  H11S 6169   2.992   1.965   8.967  0.4825  1.7539  0.1984
   71SLPC  C212 6170   2.784   2.026   8.999  0.5504  0.0909 -0.0215
   71SLPC  H12R 6171   2.735   2.094   9.071 -1.1297 -0.4695 -0.5979
   71SLPC  C213 6172   2.720   2.007   8.882 -0.0857 -0.2251 -0.7182
   71SLPC  H13R 6173   2.619   2.049   8.869  0.3724  0.5267 -1.9977
   71SLPC  C214 6174   2.766   1.920   8.768  0.3841 -0.7596 -0.3364
   71SLPC  H14R 6175   2.673   1.893   8.714  0.2990 -0.4400 -0.3472
   71SLPC  H14S 6176   2.812   1.831   8.817 -0.3087 -0.7093  0.4213
   71SLPC  C215 6177   2.858   1.982   8.666 -0.7536  0.2587  0.3691
   71SLPC  H15R 6178   2.935   2.036   8.725 -1.1434 -0.7697  1.8938
   71SLPC  H15S 6179   2.796   2.049   8.603  0.2329  0.0281 -0.8858
   71SLPC  C216 6180   2.935   1.893   8.565  0.0164 -0.0186  0.6761
   71SLPC  H16R 6181   2.855   1.834   8.515 -0.2049 -2.1907  3.2820
   71SLPC  H16S 6182   2.994   1.818   8.623 -0.2530 -1.0268 -0.3024
   71SLPC  C217 6183   3.016   1.976   8.455 -0.0250  0.7686  0.3807
   71SLPC  H17R 6184   2.945   2.056   8.427 -0.0699  0.4928 -0.2930
   71SLPC  H17S 6185   3.045   1.915   8.367 -0.1831 -1.7172  1.9389
   71SLPC  C218 6186   3.145   2.039   8.511  0.2502  0.3442 -0.0237
   71SLPC  H18R 6187   3.128   2.095   8.605 -0.5410  1.5445 -0.8524
   71SLPC  H18S 6188   3.190   2.111   8.440 -1.0839 -0.1858 -1.4681
   71SLPC  H18T 6189   3.217   1.959   8.537  0.9377  0.9697  0.0064
   71SLPC   C33 6190   3.527   2.348   9.411  0.0732  0.0072  0.2821
   71SLPC   H3X 6191   3.588   2.265   9.453  1.7882  0.5752 -0.9826
   71SLPC   H3Y 6192   3.567   2.439   9.461  0.6486 -0.2119  0.2206
   71SLPC   C34 6193   3.566   2.344   9.260  0.0792  0.0128 -0.7206
   71SLPC   H4X 6194   3.678   2.341   9.261  0.2668  1.0395  4.2695
   71SLPC   H4Y 6195   3.539   2.439   9.208 -1.2883  0.9137  1.5287
   71SLPC   C35 6196   3.519   2.223   9.179 -0.6957  0.3582 -0.7072
   71SLPC   H5X 6197   3.408   2.212   9.178 -0.6983  0.3059 -0.1507
   71SLPC   H5Y 6198   3.560   2.136   9.234 -1.8618 -0.5443 -1.1985
   71SLPC   C36 6199   3.569   2.225   9.040  0.3120 -0.0996 -0.4847
   71SLPC   H6X 6200   3.675   2.201   9.018 -0.1599 -0.6096 -2.4602
   71SLPC   H6Y 6201   3.551   2.331   9.013 -3.7493 -0.6022 -0.3267
   71SLPC   C37 6202   3.478   2.146   8.944 -0.3830  0.3044 -0.1051
   71SLPC   H7X 6203   3.374   2.185   8.947  0.2716  2.0743  2.1981
   71SLPC   H7Y 6204   3.465   2.051   9.001  1.0027  2.0774  3.4775
   71SLPC   C38 6205   3.536   2.125   8.808  0.7599  0.3537  0.5707
   71SLPC   H8X 6206   3.646   2.109   8.812  0.5522 -1.2767  0.6554
   71SLPC   H8Y 6207   3.525   2.219   8.751 -2.5577 -1.1835 -1.6567
   71SLPC   C39 6208   3.467   2.002   8.740  0.2730  0.3256 -0.4558
   71SLPC   H9X 6209   3.358   2.014   8.722  0.1301 -1.4921 -0.9615
   71SLPC   H9Y 6210   3.471   1.920   8.814  0.8251  1.3738  0.7081
   71SLPC  C310 6211   3.545   1.961   8.615 -0.7157 -0.0750 -0.4188
   71SLPC  H10X 6212   3.494   1.866   8.588 -0.3956 -0.3462 -0.0769
   71SLPC  H10Y 6213   3.652   1.945   8.639 -0.8846  1.0754  1.2351
   71SLPC  C311 6214   3.523   2.063   8.500 -0.4472 -0.0721 -0.1502
   71SLPC  H11X 6215   3.616   2.119   8.478 -1.3919  1.4579 -0.4128
   71SLPC  H11Y 6216   3.447   2.138   8.532  1.1449  2.0607 -1.1288
   71SLPC  C312 6217   3.476   1.984   8.379 -0.4103  0.1555 -0.0336
   71SLPC  H12X 6218   3.387   1.923   8.404  1.4497 -2.2470  1.1312
   71SLPC  H12Y 6219   3.562   1.918   8.352  0.7378  1.5806  0.0109
   71SLPC  C313 6220   3.444   2.074   8.256 -0.0308  0.4415  0.2936
   71SLPC  H13X 6221   3.541   2.096   8.206  0.5378 -2.2808  0.0945
   71SLPC  H13Y 6222   3.394   2.163   8.301 -0.4534 -0.5758  1.9245
   71SLPC  C314 6223   3.360   2.000   8.154 -0.2183  0.2227 -0.3528
   71SLPC  H14X 6224   3.254   1.994   8.188  0.1747 -0.4942  0.7983
   71SLPC  H14Y 6225   3.388   1.893   8.152 -1.1071 -0.0147 -0.5936
   71SLPC  C315 6226   3.359   2.055   8.003  0.0088 -0.0371  0.1931
   71SLPC  H15X 6227   3.464   2.055   7.967 -0.9198  0.3345 -2.7445
   71SLPC  H15Y 6228   3.318   2.158   7.996 -0.3447 -0.2241 -0.5750
   71SLPC  C316 6229   3.289   1.959   7.907  0.0263  0.5783 -0.0683
   71SLPC  H16X 6230   3.180   1.942   7.920 -0.5351  1.2797 -3.2041
   71SLPC  H16Y 6231   3.328   1.856   7.914 -2.6667 -0.4896  0.7374
   71SLPC  C317 6232   3.303   1.986   7.757  0.1759  0.1312  0.5338
   71SLPC  H17X 6233   3.267   1.897   7.700  1.8186  0.2163 -0.6934
   71SLPC  H17Y 6234   3.410   1.987   7.729 -0.2184 -0.7973 -1.1101
   71SLPC  C318 6235   3.236   2.105   7.710  0.1262 -0.1572 -0.0843
   71SLPC  H18X 6236   3.224   2.106   7.600  2.2302  0.5035 -0.3624
   71SLPC  H18Y 6237   3.293   2.201   7.720  0.1502 -0.2065  0.2627
   71SLPC  H18Z 6238   3.136   2.126   7.753 -1.6351  0.0800 -3.8823
   72SLPC     N 6239   5.580   5.825   9.515  0.0261 -0.0402 -0.4938
   72SLPC   C13 6240   5.671   5.760   9.616  0.8115 -0.3055  0.5299
   72SLPC  H13A 6241   5.733   5.696   9.555 -0.4200 -1.8684  0.8700
   72SLPC  H13B 6242   5.729   5.833   9.671 -0.4219  1.2333 -0.1517
   72SLPC  H13C 6243   5.625   5.694   9.688 -0.7740 -1.0169 -1.0621
   72SLPC   C14 6244   5.469   5.893   9.579  0.1131 -0.3928 -0.4426
   72SLPC  H14A 6245   5.424   5.834   9.657  1.6200  1.8990  2.3056
   72SLPC  H14B 6246   5.492   5.992   9.616  1.2817 -0.4336 -1.0128
   72SLPC  H14C 6247   5.388   5.910   9.510 -0.3466 -2.8086 -0.6077
   72SLPC   C15 6248   5.532   5.717   9.424 -0.3572  0.4320  0.4862
   72SLPC  H15A 6249   5.462   5.653   9.475 -0.1060 -0.6391 -0.4782
   72SLPC  H15B 6250   5.482   5.761   9.339  1.6618  1.4569 -0.2471
   72SLPC  H15C 6251   5.618   5.664   9.385  0.6913  2.3791 -0.0130
   72SLPC   C12 6252   5.669   5.920   9.425  0.3717  0.7158 -0.4197
   72SLPC  H12A 6253   5.695   6.014   9.471  1.9217  1.1033 -1.9598
   72SLPC  H12B 6254   5.616   5.967   9.345 -0.6215 -0.1457 -0.2911
   72SLPC   C11 6255   5.794   5.863   9.354 -1.1766  0.2810 -0.0056
   72SLPC  H11A 6256   5.824   5.943   9.283  2.8891  0.5066  1.7090
   72SLPC  H11B 6257   5.766   5.773   9.295 -1.3127  0.5582 -0.3754
   72SLPC     P 6258   5.982   5.942   9.504 -0.1905 -0.2518 -0.2092
   72SLPC   O13 6259   5.888   6.034   9.573 -0.2734 -0.8078  0.1395
   72SLPC   O14 6260   6.095   5.890   9.582 -0.3062 -0.7244 -0.1674
   72SLPC   O12 6261   5.896   5.825   9.447  0.2080  0.1632  0.0117
   72SLPC   O11 6262   6.047   6.014   9.378  0.2404  0.4193 -0.2978
   72SLPC    C1 6263   6.117   5.960   9.269 -0.4636  1.2881 -0.0821
   72SLPC    HA 6264   6.221   5.939   9.299 -1.0629  1.1198  2.0264
   72SLPC    HB 6265   6.075   5.864   9.232  2.8027 -0.0213 -0.7606
   72SLPC    C2 6266   6.106   6.061   9.153 -0.1313 -0.3468  0.3495
   72SLPC    HS 6267   6.148   6.149   9.206 -0.2147 -1.3467  2.1668
   72SLPC   O21 6268   5.967   6.090   9.122  0.1839 -0.1999 -0.1606
   72SLPC   C21 6269   5.950   6.191   9.040 -0.1805 -0.9217 -0.4951
   72SLPC   O22 6270   6.041   6.269   9.005  0.4472  0.4001  0.6851
   72SLPC   C22 6271   5.800   6.199   9.000  0.1933 -1.1217  0.2638
   72SLPC   H2R 6272   5.742   6.105   9.015 -1.2217 -0.3824 -0.4037
   72SLPC   H2S 6273   5.769   6.282   9.067  2.1126 -1.1465  1.2679
   72SLPC    C3 6274   6.182   6.016   9.027 -0.2834 -0.3428  0.4316
   72SLPC    HX 6275   6.285   5.982   9.051 -0.4876  0.1923  2.2217
   72SLPC    HY 6276   6.204   6.099   8.957  0.4413 -0.5212  0.4413
   72SLPC   O31 6277   6.096   5.929   8.944 -0.3254  0.4967  0.4406
   72SLPC   C31 6278   6.158   5.817   8.915 -0.7760 -0.5899  0.1502
   72SLPC   O32 6279   6.272   5.788   8.950 -0.3910 -0.1058 -0.6745
   72SLPC   C32 6280   6.065   5.725   8.829 -0.3341 -0.7352  0.0709
   72SLPC   H2X 6281   6.118   5.629   8.812  1.6459  0.2799  0.2013
   72SLPC   H2Y 6282   6.057   5.773   8.729  0.9833  0.6261  0.5748
   72SLPC   C23 6283   5.771   6.231   8.850  0.1387 -0.4609  0.1159
   72SLPC   H3R 6284   5.837   6.312   8.811 -2.1216  1.5567  0.2010
   72SLPC   H3S 6285   5.669   6.276   8.845 -0.0537 -0.2326  3.6124
   72SLPC   C24 6286   5.780   6.106   8.763 -0.3467  0.4552 -0.1943
   72SLPC   H4R 6287   5.728   6.031   8.827  0.2482  0.6809  0.5729
   72SLPC   H4S 6288   5.886   6.075   8.756  0.2596  2.5829 -1.0474
   72SLPC   C25 6289   5.719   6.112   8.620  0.0235  0.9326  0.5466
   72SLPC   H5R 6290   5.759   6.210   8.586  0.6405  0.5850  0.2597
   72SLPC   H5S 6291   5.608   6.109   8.624  0.0474 -2.4419  1.5521
   72SLPC   C26 6292   5.771   5.994   8.525  1.1327  0.1313  0.3567
   72SLPC   H6R 6293   5.882   5.992   8.529  1.2792  0.1861 -2.1772
   72SLPC   H6S 6294   5.741   6.020   8.421 -1.1258  1.6812  1.3084
   72SLPC   C27 6295   5.711   5.860   8.559  0.1863 -0.3195  0.7502
   72SLPC   H7R 6296   5.602   5.878   8.551  0.3303  1.1938  1.6844
   72SLPC   H7S 6297   5.737   5.836   8.664 -0.1804 -0.7391  0.7447
   72SLPC   C28 6298   5.769   5.759   8.460 -0.4667 -0.2391 -0.0753
   72SLPC   H8R 6299   5.870   5.738   8.501 -0.7386  1.4507  1.5418
   72SLPC   H8S 6300   5.782   5.794   8.355 -0.6500 -0.0982 -0.0506
   72SLPC   C29 6301   5.688   5.635   8.463  0.1605 -0.1222  0.2140
   72SLPC   H9R 6302   5.667   5.592   8.563 -1.6027 -0.5686 -0.3149
   72SLPC  C210 6303   5.625   5.572   8.360  0.1561 -0.0354 -0.1358
   72SLPC  H10R 6304   5.579   5.474   8.379 -0.2612 -0.0192 -1.0091
   72SLPC  C211 6305   5.625   5.609   8.210 -0.3429  0.6219  0.5222
   72SLPC  H11R 6306   5.556   5.540   8.158  0.8980 -1.1805  1.1700
   72SLPC  H11S 6307   5.725   5.585   8.168 -0.9193  1.0185 -1.1215
   72SLPC  C212 6308   5.588   5.750   8.176  0.5621 -0.7177  0.1393
   72SLPC  H12R 6309   5.535   5.804   8.256 -1.8025  0.1200 -1.8822
   72SLPC  C213 6310   5.603   5.812   8.059  0.8246 -0.3603  0.2372
   72SLPC  H13R 6311   5.564   5.915   8.055 -0.6492 -0.9292 -0.9492
   72SLPC  C214 6312   5.661   5.759   7.926  0.0286 -0.1130  0.1569
   72SLPC  H14R 6313   5.583   5.758   7.847 -1.3060  0.8774  1.3858
   72SLPC  H14S 6314   5.705   5.658   7.940  3.1550  1.0575 -0.4451
   72SLPC  C215 6315   5.772   5.858   7.884 -1.1089 -0.8287  0.7823
   72SLPC  H15R 6316   5.855   5.853   7.959  0.6826 -0.5266 -1.0774
   72SLPC  H15S 6317   5.717   5.954   7.879 -1.4440 -0.8712  2.7651
   72SLPC  C216 6318   5.823   5.825   7.748 -0.2572  0.0978  0.2029
   72SLPC  H16R 6319   5.734   5.810   7.683 -1.3459 -1.5268  1.9494
   72SLPC  H16S 6320   5.883   5.731   7.747 -0.5702 -0.1024 -0.4013
   72SLPC  C217 6321   5.915   5.933   7.679  0.0288 -0.1462 -0.0200
   72SLPC  H17R 6322   5.866   6.032   7.671  0.5996  0.1770  0.4135
   72SLPC  H17S 6323   5.928   5.906   7.572  1.9951 -0.6206  0.2990
   72SLPC  C218 6324   6.043   5.955   7.756  0.9186 -1.0025  0.6683
   72SLPC  H18R 6325   6.021   5.992   7.859  1.6428 -0.9814  0.8223
   72SLPC  H18S 6326   6.116   6.022   7.707 -1.4280 -0.5775 -2.5732
   72SLPC  H18T 6327   6.087   5.854   7.773  0.5064 -1.3514 -0.2768
   72SLPC   C33 6328   5.934   5.686   8.902 -0.2364  0.4177 -0.1056
   72SLPC   H3X 6329   5.883   5.781   8.928  0.1356  0.6418 -0.1842
   72SLPC   H3Y 6330   5.961   5.627   8.992 -1.9409 -1.1727 -0.5615
   72SLPC   C34 6331   5.857   5.582   8.823 -0.2116  0.0221 -0.3565
   72SLPC   H4X 6332   5.929   5.498   8.807  1.6652  1.8204 -1.9853
   72SLPC   H4Y 6333   5.820   5.621   8.726 -2.8963 -3.4100 -0.9025
   72SLPC   C35 6334   5.733   5.520   8.889  0.0842 -0.0725  0.1614
   72SLPC   H5X 6335   5.738   5.469   8.988 -3.1666  1.2087  1.1122
   72SLPC   H5Y 6336   5.702   5.431   8.830  2.0326 -0.0706 -0.9484
   72SLPC   C36 6337   5.639   5.635   8.902  0.2547 -0.1528 -0.4325
   72SLPC   H6X 6338   5.644   5.708   8.819 -1.7499  3.3390  2.2189
   72SLPC   H6Y 6339   5.666   5.696   8.991  1.1792  0.7890 -1.3345
   72SLPC   C37 6340   5.495   5.594   8.923 -0.3276 -0.4148 -0.3821
   72SLPC   H7X 6341   5.447   5.676   8.980  0.8103  0.3506 -0.4908
   72SLPC   H7Y 6342   5.491   5.498   8.979  0.4231  0.2257  0.8115
   72SLPC   C38 6343   5.427   5.581   8.787  0.1390  0.3017  0.0495
   72SLPC   H8X 6344   5.465   5.489   8.738 -2.4378 -2.5148  2.9253
   72SLPC   H8Y 6345   5.459   5.672   8.731 -1.6303 -0.0425 -1.5968
   72SLPC   C39 6346   5.268   5.596   8.782 -0.1670  0.4071  0.7685
   72SLPC   H9X 6347   5.256   5.702   8.811 -1.8803  0.1117  1.2616
   72SLPC   H9Y 6348   5.220   5.532   8.860 -0.7474  0.0279  0.1166
   72SLPC  C310 6349   5.198   5.562   8.643  0.2536  0.5911 -0.6815
   72SLPC  H10X 6350   5.089   5.583   8.649 -0.0461 -1.2292  2.5996
   72SLPC  H10Y 6351   5.216   5.453   8.631 -2.9771 -0.0461 -0.5321
   72SLPC  C311 6352   5.257   5.625   8.520  0.6030  0.3784  0.7633
   72SLPC  H11X 6353   5.361   5.587   8.515  0.4399 -0.3665  2.3023
   72SLPC  H11Y 6354   5.259   5.734   8.538  0.5623  0.7048 -1.0809
   72SLPC  C312 6355   5.167   5.606   8.399 -0.1493  0.3513  0.2896
   72SLPC  H12X 6356   5.083   5.678   8.412 -0.9146 -0.0684 -1.9602
   72SLPC  H12Y 6357   5.131   5.502   8.402  1.7733 -0.4166 -1.1251
   72SLPC  C313 6358   5.247   5.640   8.265  0.3472 -0.0499 -0.0042
   72SLPC  H13X 6359   5.342   5.583   8.266  0.1789 -0.3386 -0.3072
   72SLPC  H13Y 6360   5.277   5.747   8.251  0.1459 -0.1997 -1.9880
   72SLPC  C314 6361   5.168   5.591   8.139 -0.3786  0.6394  0.3920
   72SLPC  H14X 6362   5.078   5.651   8.116 -0.0368  0.6215 -1.1028
   72SLPC  H14Y 6363   5.147   5.482   8.132 -0.0128  0.4558  1.8595
   72SLPC  C315 6364   5.256   5.635   8.021 -0.1160  0.5075  0.0654
   72SLPC  H15X 6365   5.355   5.585   8.026  0.8847  2.2606 -1.0218
   72SLPC  H15Y 6366   5.271   5.744   8.005 -2.8045  0.6935 -1.7419
   72SLPC  C316 6367   5.201   5.578   7.887 -0.2243  0.2116 -0.2243
   72SLPC  H16X 6368   5.098   5.616   7.872  0.0248  1.4584  1.0264
   72SLPC  H16Y 6369   5.194   5.467   7.898  3.5048 -0.2205 -0.7259
   72SLPC  C317 6370   5.282   5.623   7.772 -0.1089  0.3707  0.4829
   72SLPC  H17X 6371   5.314   5.727   7.796  0.6811  0.1792  0.2732
   72SLPC  H17Y 6372   5.219   5.627   7.681 -0.9047 -1.8193  0.8891
   72SLPC  C318 6373   5.399   5.532   7.742 -0.5258 -0.7715 -0.4368
   72SLPC  H18X 6374   5.366   5.433   7.702 -1.1487 -0.7927  0.1151
   72SLPC  H18Y 6375   5.462   5.511   7.830  4.5026 -0.8934 -3.6628
   72SLPC  H18Z 6376   5.474   5.584   7.678  0.3972 -1.6779 -0.1145
   73SLPC     N 6377   6.673   4.726  10.163 -0.0381 -0.4266 -0.0895
   73SLPC   C13 6378   6.672   4.605  10.076  0.3840 -0.2128  0.6127
   73SLPC  H13A 6379   6.615   4.632   9.989  0.8050  0.3724  0.5100
   73SLPC  H13B 6380   6.765   4.600  10.021 -1.0242  1.3595 -2.0858
   73SLPC  H13C 6381   6.638   4.512  10.118 -1.8235 -0.5823 -1.7470
   73SLPC   C14 6382   6.766   4.699  10.283 -0.2182  0.0544 -0.4675
   73SLPC  H14A 6383   6.721   4.624  10.347 -0.5181  0.1913 -0.5174
   73SLPC  H14B 6384   6.860   4.655  10.254 -0.6908 -2.1392  1.0354
   73SLPC  H14C 6385   6.785   4.790  10.338  1.8877  1.4780 -3.3102
   73SLPC   C15 6386   6.538   4.751  10.208  0.3909  0.4475 -0.2629
   73SLPC  H15A 6387   6.470   4.766  10.125  1.0919  3.4208 -0.3891
   73SLPC  H15B 6388   6.519   4.672  10.280  4.2010 -2.1691 -1.8049
   73SLPC  H15C 6389   6.532   4.850  10.249  1.1808  1.1909 -1.8532
   73SLPC   C12 6390   6.719   4.849  10.079  0.0274  0.8902  0.0621
   73SLPC  H12A 6391   6.712   4.935  10.143 -1.9671 -0.4724  1.8387
   73SLPC  H12B 6392   6.649   4.866   9.998  0.1969  3.9514  0.4434
   73SLPC   C11 6393   6.865   4.832  10.020  0.3089  0.1492  0.4129
   73SLPC  H11A 6394   6.926   4.809  10.110  0.5940 -1.9844 -0.2589
   73SLPC  H11B 6395   6.916   4.925   9.988  0.8549 -0.2406  0.1338
   73SLPC     P 6396   7.019   4.686   9.865 -0.0392 -0.0683 -0.2289
   73SLPC   O13 6397   7.113   4.686   9.979 -0.5582  0.4119  0.2562
   73SLPC   O14 6398   7.014   4.562   9.782 -0.2326  0.3317  0.0818
   73SLPC   O12 6399   6.875   4.725   9.923 -0.1324  0.6159  0.2756
   73SLPC   O11 6400   7.058   4.810   9.781 -0.3131 -0.0777 -0.2596
   73SLPC    C1 6401   6.966   4.894   9.721 -0.1290 -0.2938  0.2355
   73SLPC    HA 6402   6.876   4.921   9.780  0.0462  0.3309  0.2272
   73SLPC    HB 6403   7.011   4.994   9.702 -2.2157  0.3546 -1.7782
   73SLPC    C2 6404   6.929   4.859   9.573 -0.3048 -1.2233  0.1828
   73SLPC    HS 6405   6.853   4.778   9.579 -0.3628 -1.2011 -0.2047
   73SLPC   O21 6406   7.039   4.804   9.505  0.0210  0.5224 -0.3696
   73SLPC   C21 6407   7.018   4.702   9.424 -0.3741  0.9590  1.2461
   73SLPC   O22 6408   6.910   4.646   9.398  0.4162 -0.6654 -0.0453
   73SLPC   C22 6409   7.151   4.655   9.373 -1.0436  0.3559  0.1439
   73SLPC   H2R 6410   7.232   4.725   9.402 -0.4990 -0.0310 -0.4135
   73SLPC   H2S 6411   7.166   4.554   9.416 -0.0661  0.4341  0.0167
   73SLPC    C3 6412   6.873   4.979   9.495  0.2531  0.0814  0.0671
   73SLPC    HX 6413   6.953   5.056   9.503  1.9133 -1.4242 -1.1195
   73SLPC    HY 6414   6.787   5.026   9.546  1.9902  2.3196  1.0897
   73SLPC   O31 6415   6.840   4.945   9.357  0.1024 -0.3848  0.2513
   73SLPC   C31 6416   6.735   4.867   9.341 -0.2697  0.4865 -0.0197
   73SLPC   O32 6417   6.657   4.822   9.428 -0.2020 -0.2007  0.1489
   73SLPC   C32 6418   6.723   4.837   9.188  0.1365  0.2723  0.8909
   73SLPC   H2X 6419   6.803   4.764   9.161  0.6108  0.9469  0.4303
   73SLPC   H2Y 6420   6.732   4.936   9.138  0.0102 -0.0755  0.1592
   73SLPC   C23 6421   7.159   4.639   9.213 -0.1288 -0.3201 -0.2372
   73SLPC   H3R 6422   7.083   4.561   9.188  1.1181 -1.7573  0.3039
   73SLPC   H3S 6423   7.259   4.593   9.198  1.1855  2.1691  0.5315
   73SLPC   C24 6424   7.122   4.771   9.136  0.1743  0.9539 -0.0579
   73SLPC   H4R 6425   7.013   4.785   9.120 -0.1370 -0.2300  0.9026
   73SLPC   H4S 6426   7.167   4.748   9.037 -0.2410 -1.3550  0.2340
   73SLPC   C25 6427   7.191   4.904   9.181  0.1919  0.1675  0.0718
   73SLPC   H5R 6428   7.297   4.872   9.191  0.1148 -0.8410 -1.9799
   73SLPC   H5S 6429   7.153   4.936   9.281  0.4205  0.4453  0.0730
   73SLPC   C26 6430   7.174   5.017   9.077 -0.5391 -0.8282 -0.5776
   73SLPC   H6R 6431   7.069   5.049   9.059 -0.2544  1.9034  1.9012
   73SLPC   H6S 6432   7.216   4.985   8.980  0.2247  2.0812 -1.2859
   73SLPC   C27 6433   7.256   5.133   9.116 -0.4043 -0.4061  0.0022
   73SLPC   H7R 6434   7.359   5.098   9.138 -1.0197 -1.5489  1.1396
   73SLPC   H7S 6435   7.202   5.171   9.205  0.7644  0.2483  0.4609
   73SLPC   C28 6436   7.259   5.252   9.017  0.3909  0.3068 -0.0329
   73SLPC   H8R 6437   7.313   5.219   8.925 -1.9597 -0.7930 -1.1126
   73SLPC   H8S 6438   7.317   5.334   9.064  0.1218  0.0829  0.6956
   73SLPC   C29 6439   7.126   5.308   8.978  0.0808 -0.4425  0.1380
   73SLPC   H9R 6440   7.070   5.368   9.052 -1.4790 -0.0906 -1.2767
   73SLPC  C210 6441   7.068   5.306   8.857 -0.1978  0.5035 -0.1239
   73SLPC  H10R 6442   6.982   5.372   8.839 -0.0977  0.2759 -1.5197
   73SLPC  C211 6443   7.114   5.234   8.735  0.1484  0.0738  0.2306
   73SLPC  H11R 6444   7.032   5.164   8.707 -0.3147  0.3582  0.8483
   73SLPC  H11S 6445   7.208   5.178   8.751 -1.2070 -3.1211 -1.8696
   73SLPC  C212 6446   7.122   5.321   8.608 -0.7551 -0.1230 -0.3650
   73SLPC  H12R 6447   7.134   5.428   8.630 -3.4375  0.2754 -0.5640
   73SLPC  C213 6448   7.100   5.278   8.483 -0.2421 -0.0019 -0.1385
   73SLPC  H13R 6449   7.090   5.348   8.399  0.9766  0.9269  0.4538
   73SLPC  C214 6450   7.082   5.138   8.440  0.6977  0.6406  0.6944
   73SLPC  H14R 6451   7.069   5.066   8.523 -1.2094 -1.7580 -1.5239
   73SLPC  H14S 6452   7.176   5.116   8.385  0.1914 -0.8297  0.3873
   73SLPC  C215 6453   6.953   5.111   8.349  0.3059 -0.4944 -1.2469
   73SLPC  H15R 6454   6.961   5.005   8.318 -0.7541 -1.4917  1.5852
   73SLPC  H15S 6455   6.961   5.186   8.267 -1.0479 -0.2822 -1.2083
   73SLPC  C216 6456   6.820   5.149   8.414  0.2076 -0.3696  0.8948
   73SLPC  H16R 6457   6.831   5.246   8.468 -1.8221 -0.5677  1.7604
   73SLPC  H16S 6458   6.799   5.065   8.484  0.7126 -3.4823 -2.4186
   73SLPC  C217 6459   6.704   5.156   8.318  0.0088 -0.0637 -0.2005
   73SLPC  H17R 6460   6.697   5.064   8.256  0.4821 -0.7048  0.6781
   73SLPC  H17S 6461   6.726   5.240   8.248  0.9473  1.1156  1.4591
   73SLPC  C218 6462   6.571   5.171   8.390 -0.0081 -0.3916  0.9118
   73SLPC  H18R 6463   6.488   5.190   8.319  0.2053  1.5177  1.1237
   73SLPC  H18S 6464   6.581   5.253   8.465  1.8199  0.1347  0.1300
   73SLPC  H18T 6465   6.546   5.081   8.450 -0.2765  0.4432  2.1093
   73SLPC   C33 6466   6.596   4.754   9.153 -0.0230  0.3411  0.0617
   73SLPC   H3X 6467   6.585   4.670   9.224 -0.9191  1.5695  1.4593
   73SLPC   H3Y 6468   6.609   4.702   9.056  0.4124  2.3378 -1.0018
   73SLPC   C34 6469   6.465   4.834   9.147 -0.1752 -0.1575 -0.1472
   73SLPC   H4X 6470   6.484   4.934   9.102  2.2272 -0.3742  0.2163
   73SLPC   H4Y 6471   6.423   4.848   9.248  0.2401 -1.9437  0.3015
   73SLPC   C35 6472   6.358   4.766   9.062  0.6704  0.2885 -0.8390
   73SLPC   H5X 6473   6.307   4.707   9.140  1.5068  0.1090 -0.4156
   73SLPC   H5Y 6474   6.401   4.690   8.993 -1.5443 -1.6378 -0.1953
   73SLPC   C36 6475   6.265   4.858   8.980  0.0908 -0.0706 -0.2637
   73SLPC   H6X 6476   6.252   4.955   9.033 -0.5612 -1.0642  1.4514
   73SLPC   H6Y 6477   6.162   4.818   8.988 -0.5976  1.7587  0.7476
   73SLPC   C37 6478   6.317   4.892   8.846 -0.0707 -0.6322  0.7425
   73SLPC   H7X 6479   6.322   4.803   8.780  2.1990 -0.1039  0.1352
   73SLPC   H7Y 6480   6.422   4.927   8.849 -0.9463  2.2237  0.4493
   73SLPC   C38 6481   6.239   5.003   8.764  0.7531  0.1178  0.2578
   73SLPC   H8X 6482   6.245   5.094   8.827  1.7469 -0.2220  0.6884
   73SLPC   H8Y 6483   6.131   4.980   8.757  0.4444  1.7676 -0.7078
   73SLPC   C39 6484   6.301   5.045   8.633 -0.1348 -0.1980 -0.0919
   73SLPC   H9X 6485   6.260   4.986   8.548 -4.7680  0.4267  1.4554
   73SLPC   H9Y 6486   6.410   5.023   8.639 -0.0313  0.4512  0.5290
   73SLPC  C310 6487   6.274   5.196   8.599  0.6620  0.5222  0.1540
   73SLPC  H10X 6488   6.288   5.219   8.491 -1.3158  1.8205  0.1097
   73SLPC  H10Y 6489   6.333   5.263   8.665  1.9706  0.8764 -1.3118
   73SLPC  C311 6490   6.120   5.231   8.615 -0.9001  0.9126  0.4081
   73SLPC  H11X 6491   6.069   5.206   8.710 -1.2648  2.1187  0.5384
   73SLPC  H11Y 6492   6.062   5.185   8.532  2.0595 -0.3073 -1.1365
   73SLPC  C312 6493   6.095   5.381   8.584 -0.0170 -0.7948  0.2647
   73SLPC  H12X 6494   6.131   5.443   8.670 -2.1137  0.2635  0.4351
   73SLPC  H12Y 6495   5.986   5.400   8.577  0.2489  0.8824  0.1698
   73SLPC  C313 6496   6.156   5.442   8.456  0.2595 -0.0251 -0.9276
   73SLPC  H13X 6497   6.105   5.387   8.375 -1.4066 -0.7368  0.5460
   73SLPC  H13Y 6498   6.266   5.428   8.454  0.1777 -0.8049 -0.4541
   73SLPC  C314 6499   6.106   5.586   8.427  0.2870  0.3501 -0.1897
   73SLPC  H14X 6500   6.132   5.645   8.518  1.1154 -1.6009  0.9143
   73SLPC  H14Y 6501   5.996   5.569   8.421  0.2519  1.1033 -2.1021
   73SLPC  C315 6502   6.161   5.649   8.299 -0.4285 -0.7225  0.5811
   73SLPC  H15X 6503   6.267   5.678   8.318 -0.6551 -0.9383  2.2904
   73SLPC  H15Y 6504   6.118   5.750   8.285 -0.1063 -0.6120  0.3652
   73SLPC  C316 6505   6.151   5.562   8.173 -0.3330 -0.4076  0.4298
   73SLPC  H16X 6506   6.045   5.531   8.162 -0.9129  0.6795  2.3405
   73SLPC  H16Y 6507   6.222   5.477   8.181  1.3868  1.0010  0.6208
   73SLPC  C317 6508   6.190   5.633   8.039  0.5907 -0.3694 -0.2889
   73SLPC  H17X 6509   6.102   5.635   7.971  1.5604 -1.2612 -1.6371
   73SLPC  H17Y 6510   6.269   5.574   7.987 -0.3009 -1.7961 -0.0770
   73SLPC  C318 6511   6.248   5.774   8.044  0.3730 -0.0103  0.0702
   73SLPC  H18X 6512   6.185   5.846   8.101 -1.1404 -1.5399  0.4374
   73SLPC  H18Y 6513   6.271   5.803   7.939 -2.9534  2.4478 -0.1432
   73SLPC  H18Z 6514   6.347   5.771   8.094  1.5209 -0.5971 -2.1243
   74SLPC     N 6515   6.131   0.374   9.382  0.3619  0.8020 -0.0428
   74SLPC   C13 6516   6.180   0.298   9.498 -0.4712  0.5149 -0.4071
   74SLPC  H13A 6517   6.236   0.210   9.470 -1.1437 -0.4104  1.1012
   74SLPC  H13B 6518   6.247   0.359   9.557 -1.1843 -0.1095  1.0943
   74SLPC  H13C 6519   6.095   0.274   9.560  1.0432  1.6579  2.2765
   74SLPC   C14 6520   6.245   0.419   9.302  0.5212 -0.0491 -0.0937
   74SLPC  H14A 6521   6.209   0.486   9.225  0.7834  0.7820  0.4975
   74SLPC  H14B 6522   6.312   0.475   9.365  1.2999 -0.0362 -0.9154
   74SLPC  H14C 6523   6.296   0.332   9.263 -0.7347 -0.8038 -0.1035
   74SLPC   C15 6524   6.064   0.492   9.429 -0.2805 -0.1104 -0.4477
   74SLPC  H15A 6525   5.974   0.481   9.488  0.5558  0.2787  0.9342
   74SLPC  H15B 6526   6.140   0.527   9.496 -0.5555  0.0331 -0.2093
   74SLPC  H15C 6527   6.059   0.565   9.349  0.8531  0.7651  0.2516
   74SLPC   C12 6528   6.041   0.291   9.299  0.4714  0.5583 -0.2317
   74SLPC  H12A 6529   6.099   0.208   9.262  0.4957  1.0799 -1.4177
   74SLPC  H12B 6530   6.010   0.348   9.212  1.3979 -0.5518 -1.3237
   74SLPC   C11 6531   5.910   0.237   9.369  0.6056  0.1013 -0.1210
   74SLPC  H11A 6532   5.834   0.200   9.297  0.7908  0.9764 -0.7845
   74SLPC  H11B 6533   5.868   0.319   9.432 -1.0936 -1.8701  1.4548
   74SLPC     P 6534   5.972  -0.015   9.424 -0.0710 -0.3003 -0.2678
   74SLPC   O13 6535   6.052  -0.071   9.537  0.0170  0.5657  0.7369
   74SLPC   O14 6536   5.857  -0.105   9.390 -0.4529 -0.6576  0.1492
   74SLPC   O12 6537   5.931   0.130   9.457  0.1724 -0.0074  0.0304
   74SLPC   O11 6538   6.054  -0.014   9.293  0.1464  0.1015 -0.4772
   74SLPC    C1 6539   6.160  -0.117   9.285  0.6795 -0.8151 -0.7108
   74SLPC    HA 6540   6.235  -0.076   9.355 -0.8589  1.0331 -0.0443
   74SLPC    HB 6541   6.122  -0.215   9.322 -2.0074  0.2541 -0.4217
   74SLPC    C2 6542   6.225  -0.132   9.146  1.2845 -0.5436  0.5989
   74SLPC    HS 6543   6.308  -0.204   9.167 -1.4658 -3.8399  1.0219
   74SLPC   O21 6544   6.272  -0.008   9.080  0.4282 -0.2365  0.1280
   74SLPC   C21 6545   6.398   0.001   9.069 -0.1042  0.1488  0.9627
   74SLPC   O22 6546   6.487  -0.073   9.103  0.0527 -0.3589  0.2284
   74SLPC   C22 6547   6.422   0.150   9.026  0.0261 -0.1048  0.4398
   74SLPC   H2R 6548   6.335   0.193   8.971  2.0394  2.3282 -1.0594
   74SLPC   H2S 6549   6.433   0.210   9.119  0.5360  2.2011 -1.0158
   74SLPC    C3 6550   6.124  -0.207   9.050 -0.6220 -0.5912  0.6209
   74SLPC    HX 6551   6.034  -0.144   9.032  0.2313  0.6064  0.4210
   74SLPC    HY 6552   6.088  -0.299   9.100  0.1436 -1.3946 -0.2579
   74SLPC   O31 6553   6.197  -0.239   8.928 -0.5618 -0.1818  0.0417
   74SLPC   C31 6554   6.186  -0.164   8.818  0.3711  0.5573 -0.4169
   74SLPC   O32 6555   6.120  -0.064   8.816  0.0800  1.0189  0.0389
   74SLPC   C32 6556   6.266  -0.226   8.700 -0.6541 -0.3823  0.0414
   74SLPC   H2X 6557   6.213  -0.320   8.672  0.1483 -0.8725  0.1112
   74SLPC   H2Y 6558   6.370  -0.239   8.737 -0.2767  2.4552  0.1458
   74SLPC   C23 6559   6.540   0.174   8.920 -0.0230  0.5827 -0.3033
   74SLPC   H3R 6560   6.632   0.129   8.963  2.3768  1.7376 -3.7751
   74SLPC   H3S 6561   6.551   0.282   8.896 -1.8530  0.9777  0.5359
   74SLPC   C24 6562   6.524   0.108   8.785 -0.3943 -0.0185 -0.5857
   74SLPC   H4R 6563   6.451   0.174   8.734 -1.6139 -0.2046  0.8274
   74SLPC   H4S 6564   6.480   0.006   8.770  0.2769 -0.0009 -3.1466
   74SLPC   C25 6565   6.641   0.106   8.692 -0.1035  0.3910  0.3891
   74SLPC   H5R 6566   6.700   0.200   8.685  0.2570  0.0815 -1.4149
   74SLPC   H5S 6567   6.599   0.083   8.592 -0.1821  0.1180  0.4836
   74SLPC   C26 6568   6.735  -0.024   8.719 -0.4450 -0.2567  0.0223
   74SLPC   H6R 6569   6.680  -0.112   8.680  2.0739 -1.0076 -2.1887
   74SLPC   H6S 6570   6.751  -0.036   8.829  0.7056 -1.1789 -0.2200
   74SLPC   C27 6571   6.877  -0.016   8.659 -0.3062  0.3069  0.0296
   74SLPC   H7R 6572   6.937   0.053   8.722 -0.2758  0.0678  0.2660
   74SLPC   H7S 6573   6.873   0.027   8.557 -0.2580  1.3579  0.4578
   74SLPC   C28 6574   6.935  -0.158   8.643 -0.6292  0.4685 -0.5230
   74SLPC   H8R 6575   6.864  -0.224   8.590 -2.0004 -0.0660  1.8199
   74SLPC   H8S 6576   6.936  -0.205   8.744 -0.9629  0.1370 -0.6728
   74SLPC   C29 6577   7.075  -0.174   8.590 -0.4575 -0.0381 -0.0174
   74SLPC   H9R 6578   7.133  -0.228   8.667  1.1671 -1.8753 -2.3995
   74SLPC  C210 6579   7.122  -0.154   8.474 -0.2263 -0.3762 -0.3469
   74SLPC  H10R 6580   7.227  -0.180   8.456  0.0688  0.0168  0.7548
   74SLPC  C211 6581   7.059  -0.073   8.361  0.2274  0.1084  0.0713
   74SLPC  H11R 6582   7.100   0.030   8.372 -2.0494  1.0881 -0.0436
   74SLPC  H11S 6583   6.948  -0.076   8.365  0.2682 -0.1843  2.3217
   74SLPC  C212 6584   7.098  -0.106   8.208 -0.0853 -0.3735  0.1064
   74SLPC  H12R 6585   7.124  -0.211   8.194 -2.0710 -1.5052  3.6389
   74SLPC  C213 6586   7.099  -0.026   8.105 -0.5405  0.2114 -0.8853
   74SLPC  H13R 6587   7.164  -0.061   8.023  3.6401 -1.2272  2.6551
   74SLPC  C214 6588   7.071   0.122   8.115  0.5003 -0.0365  0.3600
   74SLPC  H14R 6589   7.167   0.169   8.085  1.3370  0.7005  3.7055
   74SLPC  H14S 6590   7.054   0.159   8.219 -2.6307  0.9857 -0.4096
   74SLPC  C215 6591   6.969   0.173   8.018  0.0512 -1.0246  0.0720
   74SLPC  H15R 6592   6.869   0.125   8.026 -1.4147  0.8957 -3.9009
   74SLPC  H15S 6593   7.002   0.148   7.915 -0.7129 -1.9019  0.0258
   74SLPC  C216 6594   6.952   0.323   8.027  0.8910 -0.5006 -0.2613
   74SLPC  H16R 6595   7.050   0.365   7.998  0.3152  0.1306 -1.4023
   74SLPC  H16S 6596   6.926   0.357   8.129  1.7385 -1.6642  0.3746
   74SLPC  C217 6597   6.841   0.382   7.943 -0.1940 -0.6381  0.5502
   74SLPC  H17R 6598   6.859   0.348   7.839 -0.8446  0.0002  0.2144
   74SLPC  H17S 6599   6.853   0.493   7.944  0.9013 -0.6875 -1.5256
   74SLPC  C218 6600   6.710   0.326   7.977 -0.1122 -0.3362  0.5794
   74SLPC  H18R 6601   6.683   0.252   7.899 -1.3137  0.6091  0.0636
   74SLPC  H18S 6602   6.643   0.416   7.977  2.6599  1.8970 -0.8874
   74SLPC  H18T 6603   6.702   0.288   8.081  1.6272  2.1586  1.7269
   74SLPC   C33 6604   6.275  -0.130   8.581 -0.0370 -0.6706 -0.6691
   74SLPC   H3X 6605   6.326  -0.039   8.618 -1.6720  0.0520 -0.1001
   74SLPC   H3Y 6606   6.180  -0.088   8.540  0.3153  3.1800  1.9986
   74SLPC   C34 6607   6.363  -0.204   8.481 -0.4825  0.1795  0.2498
   74SLPC   H4X 6608   6.325  -0.308   8.475 -1.3635  0.3350  2.3860
   74SLPC   H4Y 6609   6.457  -0.221   8.537 -2.2036 -0.8465  3.0081
   74SLPC   C35 6610   6.395  -0.122   8.353  0.7626 -0.4213 -0.4185
   74SLPC   H5X 6611   6.460  -0.035   8.375  0.4101 -0.4462  0.7699
   74SLPC   H5Y 6612   6.300  -0.088   8.308  0.8307  1.7100  0.9014
   74SLPC   C36 6613   6.463  -0.208   8.237 -0.2807 -0.0049 -0.6757
   74SLPC   H6X 6614   6.485  -0.138   8.153  2.1803 -1.0915 -1.0198
   74SLPC   H6Y 6615   6.390  -0.277   8.190 -2.5198  2.0358 -0.4336
   74SLPC   C37 6616   6.593  -0.280   8.274 -0.3180 -0.0180 -0.4332
   74SLPC   H7X 6617   6.579  -0.348   8.360 -0.5999  2.5446  1.6817
   74SLPC   H7Y 6618   6.661  -0.197   8.304 -1.5678  0.1107  2.2675
   74SLPC   C38 6619   6.650  -0.363   8.157  0.3463 -0.6404 -1.2739
   74SLPC   H8X 6620   6.633  -0.314   8.059 -0.3359  1.4215 -0.1684
   74SLPC   H8Y 6621   6.583  -0.451   8.168 -0.2673 -0.0288  0.1184
   74SLPC   C39 6622   6.791  -0.410   8.187 -0.2211  0.1684  0.0259
   74SLPC   H9X 6623   6.820  -0.461   8.282  0.6254 -0.2945 -0.4670
   74SLPC   H9Y 6624   6.853  -0.317   8.188 -0.7829  0.5525 -0.1697
   74SLPC  C310 6625   6.824  -0.499   8.065 -0.3588 -0.2571 -0.1831
   74SLPC  H10X 6626   6.796  -0.449   7.970 -1.1322  0.7128  0.5301
   74SLPC  H10Y 6627   6.769  -0.595   8.068  0.4569 -0.8225 -2.0869
   74SLPC  C311 6628   6.975  -0.527   8.067  0.6192  0.2509 -0.2593
   74SLPC  H11X 6629   6.986  -0.619   8.129  0.0931  0.8194  0.6990
   74SLPC  H11Y 6630   7.040  -0.450   8.115  0.3815  1.1529 -1.3473
   74SLPC  C312 6631   7.029  -0.549   7.926 -0.3162 -1.0269 -0.0031
   74SLPC  H12X 6632   7.028  -0.453   7.869  1.5733 -0.6329  0.5285
   74SLPC  H12Y 6633   6.967  -0.628   7.880  0.5064 -3.7618  3.1978
   74SLPC  C313 6634   7.182  -0.591   7.930  0.8558 -0.0240 -0.5837
   74SLPC  H13X 6635   7.177  -0.700   7.951 -0.6512  0.1850  0.3215
   74SLPC  H13Y 6636   7.236  -0.551   8.019  0.5943 -0.4196 -0.2402
   74SLPC  C314 6637   7.255  -0.572   7.803 -0.0042 -0.4191 -0.0431
   74SLPC  H14X 6638   7.364  -0.591   7.814  0.0155  0.4025  1.4519
   74SLPC  H14Y 6639   7.267  -0.466   7.772  0.7234 -0.5951 -0.3932
   74SLPC  C315 6640   7.189  -0.638   7.685  0.1178  0.3094 -0.1541
   74SLPC  H15X 6641   7.261  -0.612   7.605 -0.1057  1.2293 -0.0671
   74SLPC  H15Y 6642   7.084  -0.614   7.656 -0.5249 -2.0263 -0.0292
   74SLPC  C316 6643   7.195  -0.793   7.700 -0.1404 -0.6553  0.4882
   74SLPC  H16X 6644   7.136  -0.825   7.788  0.2251 -1.1488  0.5524
   74SLPC  H16Y 6645   7.296  -0.838   7.708 -1.1563 -3.6902 -1.5737
   74SLPC  C317 6646   7.112  -0.852   7.584  0.4785  0.5174 -0.0628
   74SLPC  H17X 6647   7.171  -0.818   7.497  1.0229 -0.1610  0.0343
   74SLPC  H17Y 6648   7.011  -0.806   7.580 -0.1912 -0.9318 -0.6224
   74SLPC  C318 6649   7.106  -1.005   7.591 -1.2171  0.1773  0.0253
   74SLPC  H18X 6650   7.045  -1.045   7.674 -2.2999 -0.3351 -0.9895
   74SLPC  H18Y 6651   7.211  -1.042   7.596 -0.3808  1.8976 -2.5964
   74SLPC  H18Z 6652   7.063  -1.056   7.502  0.9650 -1.9054  0.0347
   75SLPC     N 6653   1.611   1.929   5.737  0.2676 -0.7641  0.0535
   75SLPC   C13 6654   1.635   2.028   5.628 -0.5284 -0.4340  0.2498
   75SLPC  H13A 6655   1.665   2.121   5.675  2.2079 -1.0962 -0.0027
   75SLPC  H13B 6656   1.723   2.006   5.570 -1.3085  0.3013 -1.2819
   75SLPC  H13C 6657   1.560   2.049   5.554 -0.2937  0.2920  0.2072
   75SLPC   C14 6658   1.729   1.915   5.825  0.4962  0.0708 -0.8341
   75SLPC  H14A 6659   1.767   2.010   5.862  1.5275 -0.3913 -0.6546
   75SLPC  H14B 6660   1.703   1.851   5.909  1.1814 -0.8555 -1.3109
   75SLPC  H14C 6661   1.809   1.859   5.779  1.0287 -1.0852  1.3225
   75SLPC   C15 6662   1.590   1.795   5.666  0.5537  0.0254  0.5066
   75SLPC  H15A 6663   1.675   1.769   5.605 -1.1362 -2.2460 -1.0133
   75SLPC  H15B 6664   1.564   1.718   5.737  0.3229  0.0309  0.4287
   75SLPC  H15C 6665   1.509   1.809   5.596  0.3692 -0.5118  0.6094
   75SLPC   C12 6666   1.498   1.965   5.835  0.0640 -0.1464 -0.4415
   75SLPC  H12A 6667   1.494   1.882   5.904  0.6021  0.8722  0.8735
   75SLPC  H12B 6668   1.408   1.972   5.775  1.2746 -1.6142 -2.5492
   75SLPC   C11 6669   1.513   2.088   5.925  0.4079 -0.1211  0.8080
   75SLPC  H11A 6670   1.597   2.076   5.997  0.4915 -2.1489  0.4129
   75SLPC  H11B 6671   1.420   2.100   5.985 -1.1805 -0.6835 -1.4190
   75SLPC     P 6672   1.645   2.306   5.857 -0.1262 -0.1578  0.4171
   75SLPC   O13 6673   1.771   2.228   5.832 -0.2239 -0.2699 -1.1170
   75SLPC   O14 6674   1.632   2.430   5.781  0.6517 -0.3812  0.2770
   75SLPC   O12 6675   1.523   2.204   5.836 -0.1463 -0.4340 -0.5127
   75SLPC   O11 6676   1.648   2.355   6.005  0.1316 -0.3152 -0.9081
   75SLPC    C1 6677   1.520   2.387   6.073 -0.3461 -0.0301  0.3583
   75SLPC    HA 6678   1.445   2.306   6.061  0.0722 -0.4499  0.5845
   75SLPC    HB 6679   1.545   2.401   6.180  1.8277 -0.1577 -0.0865
   75SLPC    C2 6680   1.457   2.523   6.024 -0.6094  0.3779 -0.6921
   75SLPC    HS 6681   1.445   2.518   5.914 -1.8500 -2.0306 -0.5086
   75SLPC   O21 6682   1.534   2.629   6.085  0.2405  0.2258 -0.2263
   75SLPC   C21 6683   1.519   2.746   6.026 -0.6622  0.3767  0.8019
   75SLPC   O22 6684   1.435   2.765   5.938  0.0322 -0.4816 -0.1947
   75SLPC   C22 6685   1.609   2.845   6.084  0.0839  0.4236 -0.2259
   75SLPC   H2R 6686   1.712   2.802   6.080  0.0505  0.1568  1.2664
   75SLPC   H2S 6687   1.611   2.939   6.024  1.8385  3.0476  3.5984
   75SLPC    C3 6688   1.303   2.516   6.069 -0.5257 -0.0811  0.0636
   75SLPC    HX 6689   1.256   2.459   5.986 -0.0318 -0.9601  0.3671
   75SLPC    HY 6690   1.263   2.619   6.066  1.8248  0.8693 -0.4188
   75SLPC   O31 6691   1.278   2.450   6.193  0.0138  0.0623  0.3061
   75SLPC   C31 6692   1.293   2.533   6.298 -0.3059 -0.4326 -0.2381
   75SLPC   O32 6693   1.301   2.655   6.292 -0.3930 -0.2364 -0.1290
   75SLPC   C32 6694   1.289   2.449   6.425 -0.0038  0.1654  0.3249
   75SLPC   H2X 6695   1.370   2.374   6.434 -1.0719 -0.8427  2.3587
   75SLPC   H2Y 6696   1.199   2.384   6.422  1.0414 -1.3180 -0.3353
   75SLPC   C23 6697   1.564   2.884   6.232 -0.5531  0.2085  0.5832
   75SLPC   H3R 6698   1.653   2.938   6.271 -1.5387  1.9171  0.6000
   75SLPC   H3S 6699   1.555   2.791   6.292  1.0044 -1.0257 -0.9848
   75SLPC   C24 6700   1.441   2.978   6.246 -0.4766 -0.4344 -0.9230
   75SLPC   H4R 6701   1.348   2.923   6.222 -0.5699 -1.1287  0.9099
   75SLPC   H4S 6702   1.443   3.062   6.172 -2.6853  2.4776  2.0136
   75SLPC   C25 6703   1.425   3.050   6.384  0.4377  0.4649 -0.4573
   75SLPC   H5R 6704   1.324   3.096   6.387  0.1884 -0.0698  2.2964
   75SLPC   H5S 6705   1.495   3.136   6.392 -0.4002  1.1575 -0.3815
   75SLPC   C26 6706   1.449   2.970   6.518 -0.0125 -0.0958 -0.5808
   75SLPC   H6R 6707   1.554   2.935   6.522  0.3845  0.9287 -1.5410
   75SLPC   H6S 6708   1.379   2.884   6.524 -0.5185  0.0471 -3.1927
   75SLPC   C27 6709   1.430   3.063   6.638 -0.3062 -0.2355  0.1939
   75SLPC   H7R 6710   1.326   3.102   6.635 -0.3810 -0.4624 -0.3847
   75SLPC   H7S 6711   1.498   3.150   6.630  0.7551 -1.1818 -1.6718
   75SLPC   C28 6712   1.447   2.986   6.769 -0.2720 -0.0246  0.0152
   75SLPC   H8R 6713   1.544   2.932   6.768  0.2316  0.4791  4.2199
   75SLPC   H8S 6714   1.377   2.900   6.761  2.0806 -2.1728  0.9908
   75SLPC   C29 6715   1.443   3.077   6.893  0.6353  0.2157  0.5785
   75SLPC   H9R 6716   1.500   3.171   6.896 -0.3329  0.8896 -1.1820
   75SLPC  C210 6717   1.359   3.049   7.000 -0.8515  0.3511 -0.6288
   75SLPC  H10R 6718   1.348   3.132   7.071 -3.9619  1.5027 -2.2906
   75SLPC  C211 6719   1.259   2.930   7.008 -0.2325 -0.3934 -0.3894
   75SLPC  H11R 6720   1.312   2.836   6.980  1.4319 -0.3806  2.3434
   75SLPC  H11S 6721   1.180   2.950   6.932  0.2951  3.1927 -0.1779
   75SLPC  C212 6722   1.199   2.894   7.140 -0.3496 -0.1388  0.4689
   75SLPC  H12R 6723   1.243   2.804   7.186  0.2357 -1.8306 -3.0325
   75SLPC  C213 6724   1.111   2.969   7.203 -0.0926 -0.1000 -0.1664
   75SLPC  H13R 6725   1.083   2.934   7.303 -0.3692  0.2763 -0.1085
   75SLPC  C214 6726   1.045   3.091   7.150 -0.3318  0.4072  0.2835
   75SLPC  H14R 6727   0.938   3.063   7.135 -0.1082 -0.4410  0.1748
   75SLPC  H14S 6728   1.073   3.112   7.044  0.9471 -0.3981  0.4417
   75SLPC  C215 6729   1.047   3.209   7.247 -0.2971  0.0358  0.1272
   75SLPC  H15R 6730   0.986   3.179   7.335 -0.4951 -0.2595 -0.1074
   75SLPC  H15S 6731   0.992   3.288   7.193 -0.9293  0.9946  2.0667
   75SLPC  C216 6732   1.187   3.273   7.283  0.0874  0.8633 -0.0420
   75SLPC  H16R 6733   1.235   3.321   7.195 -3.9349  0.7537 -2.5178
   75SLPC  H16S 6734   1.261   3.207   7.334 -0.4564  0.5772  0.3897
   75SLPC  C217 6735   1.168   3.379   7.390  1.0037  0.4598 -0.2576
   75SLPC  H17R 6736   1.105   3.334   7.469 -0.3664  1.8205 -0.5468
   75SLPC  H17S 6737   1.116   3.463   7.340 -1.6225 -1.2168 -0.5509
   75SLPC  C218 6738   1.303   3.418   7.462  0.0320 -0.6750  0.4575
   75SLPC  H18R 6739   1.284   3.519   7.504 -0.6861 -0.9743  0.8725
   75SLPC  H18S 6740   1.389   3.423   7.392 -0.8131  2.3441 -0.4895
   75SLPC  H18T 6741   1.329   3.351   7.547  0.6971 -0.8142  0.1523
   75SLPC   C33 6742   1.282   2.549   6.543  0.0759  0.8023 -0.9919
   75SLPC   H3X 6743   1.363   2.625   6.537 -0.9893  2.0030 -0.6178
   75SLPC   H3Y 6744   1.182   2.596   6.529  0.6701  1.4893 -3.4928
   75SLPC   C34 6745   1.288   2.473   6.679  0.0238  0.8429 -0.6620
   75SLPC   H4X 6746   1.393   2.435   6.685 -0.9760 -2.0253  3.9653
   75SLPC   H4Y 6747   1.210   2.394   6.683 -2.4919  3.2536  1.9369
   75SLPC   C35 6748   1.281   2.564   6.802 -0.1338 -0.0243 -0.1311
   75SLPC   H5X 6749   1.180   2.610   6.807 -1.6683 -2.9027 -2.0138
   75SLPC   H5Y 6750   1.353   2.643   6.770  0.1923 -1.0214 -1.9908
   75SLPC   C36 6751   1.343   2.494   6.925  0.4481  0.0075  0.0638
   75SLPC   H6X 6752   1.453   2.497   6.911  0.5240  1.2035  0.7991
   75SLPC   H6Y 6753   1.309   2.389   6.917  1.1002 -0.3373  1.6003
   75SLPC   C37 6754   1.302   2.543   7.066 -0.3144 -0.3785  0.0718
   75SLPC   H7X 6755   1.191   2.534   7.068 -0.3068 -0.4126  0.3567
   75SLPC   H7Y 6756   1.327   2.646   7.101  1.6364 -0.4323 -1.0016
   75SLPC   C38 6757   1.354   2.447   7.178  0.3317  0.5864  0.3203
   75SLPC   H8X 6758   1.463   2.426   7.178  0.3953  0.8494 -0.7904
   75SLPC   H8Y 6759   1.309   2.347   7.161 -0.1296  0.7339  0.6539
   75SLPC   C39 6760   1.313   2.495   7.317 -0.7432  0.7195  0.3224
   75SLPC   H9X 6761   1.334   2.601   7.342 -2.0072  0.6337  1.8972
   75SLPC   H9Y 6762   1.375   2.433   7.385  0.8863 -0.1515 -1.8019
   75SLPC  C310 6763   1.170   2.464   7.371 -0.6404 -0.0408  0.2227
   75SLPC  H10X 6764   1.153   2.356   7.351 -0.6662 -0.7499  3.5228
   75SLPC  H10Y 6765   1.106   2.545   7.328  1.0877  2.0217  1.3413
   75SLPC  C311 6766   1.144   2.480   7.520  0.0026  0.1000  0.1001
   75SLPC  H11X 6767   1.037   2.455   7.538 -0.0995 -0.8267 -1.5583
   75SLPC  H11Y 6768   1.166   2.583   7.557 -1.0375  0.1754  0.5387
   75SLPC  C312 6769   1.237   2.389   7.605 -0.0603  0.2621  0.4848
   75SLPC  H12X 6770   1.342   2.404   7.572  0.4640 -0.7233  1.6452
   75SLPC  H12Y 6771   1.214   2.283   7.581 -2.7074  1.6718 -4.7443
   75SLPC  C313 6772   1.221   2.420   7.753  0.3137 -0.3444 -0.3624
   75SLPC  H13X 6773   1.279   2.506   7.793  0.7908 -0.3301 -1.0698
   75SLPC  H13Y 6774   1.255   2.327   7.804 -1.3673 -1.5862 -1.4120
   75SLPC  C314 6775   1.082   2.454   7.801 -0.6932  0.1950 -0.5028
   75SLPC  H14X 6776   1.001   2.389   7.762 -0.7213  0.7764 -1.4394
   75SLPC  H14Y 6777   1.048   2.552   7.765 -4.6191 -0.9868 -0.4169
   75SLPC  C315 6778   1.060   2.455   7.955  0.6171 -0.6074 -0.6304
   75SLPC  H15X 6779   1.140   2.515   8.003 -0.3374  0.4945 -0.3858
   75SLPC  H15Y 6780   1.059   2.351   7.995 -0.2215 -0.1245  0.7086
   75SLPC  C316 6781   0.929   2.521   7.995  0.1211 -0.1040  0.0196
   75SLPC  H16X 6782   0.852   2.456   7.946  0.4695  0.1463 -0.8853
   75SLPC  H16Y 6783   0.930   2.623   7.953  3.9744 -0.3585 -0.8922
   75SLPC  C317 6784   0.897   2.521   8.143  0.9325  0.1776 -0.5733
   75SLPC  H17X 6785   0.981   2.567   8.201  0.6445  0.6198 -0.5014
   75SLPC  H17Y 6786   0.900   2.415   8.175  0.7483 -0.4388 -2.4702
   75SLPC  C318 6787   0.762   2.582   8.177  0.4358 -0.0049  0.0361
   75SLPC  H18X 6788   0.681   2.507   8.190  1.3284 -0.9074  0.5473
   75SLPC  H18Y 6789   0.729   2.637   8.087  0.1631 -3.0934 -1.9095
   75SLPC  H18Z 6790   0.758   2.646   8.268  0.3698 -1.5992  1.2036
   76SLPC     N 6791   2.231   0.806   5.585  0.0683  0.2671  0.2416
   76SLPC   C13 6792   2.313   0.736   5.474 -0.7646  0.2994 -0.4771
   76SLPC  H13A 6793   2.315   0.629   5.489  1.6372  0.3309 -0.0644
   76SLPC  H13B 6794   2.283   0.764   5.374  1.7874  4.5142 -0.3007
   76SLPC  H13C 6795   2.415   0.772   5.473  0.1106 -1.9932 -1.0298
   76SLPC   C14 6796   2.275   0.755   5.718  0.1211  0.2648  0.2032
   76SLPC  H14A 6797   2.220   0.796   5.801 -1.3791 -2.0607  0.4562
   76SLPC  H14B 6798   2.243   0.652   5.725  1.5303 -0.2483 -0.5494
   76SLPC  H14C 6799   2.379   0.771   5.744 -0.3666  2.6597  0.8770
   76SLPC   C15 6800   2.087   0.768   5.558 -0.4859  0.4372 -0.4910
   76SLPC  H15A 6801   2.025   0.786   5.645 -0.5719 -1.6017 -0.0777
   76SLPC  H15B 6802   2.049   0.823   5.474  0.1902 -0.0414 -1.1283
   76SLPC  H15C 6803   2.081   0.662   5.536  1.0025  0.0881  0.6047
   76SLPC   C12 6804   2.242   0.953   5.570  0.1460 -0.4796  0.1978
   76SLPC  H12A 6805   2.161   0.997   5.626  0.0283 -1.7747  1.0863
   76SLPC  H12B 6806   2.246   0.989   5.468 -0.9083 -1.6363 -0.2700
   76SLPC   C11 6807   2.374   1.016   5.621  0.2001  0.1937 -0.4630
   76SLPC  H11A 6808   2.368   1.004   5.731 -0.1771 -0.6229 -0.5647
   76SLPC  H11B 6809   2.377   1.125   5.604  3.9261  0.3700  0.5474
   76SLPC     P 6810   2.630   0.960   5.632  0.0309  0.4055 -0.4641
   76SLPC   O13 6811   2.709   0.833   5.626 -0.0463  0.2544  0.0016
   76SLPC   O14 6812   2.685   1.080   5.563 -0.2408 -0.0406  0.2246
   76SLPC   O12 6813   2.483   0.943   5.567 -0.9912  0.0007  0.3485
   76SLPC   O11 6814   2.609   1.001   5.787 -0.0623 -0.9265 -0.2959
   76SLPC    C1 6815   2.619   0.905   5.892  0.0013 -1.0519 -0.4182
   76SLPC    HA 6816   2.527   0.843   5.899  0.4591 -1.7743 -0.7145
   76SLPC    HB 6817   2.708   0.841   5.877  2.2963  2.1875 -1.8074
   76SLPC    C2 6818   2.621   0.992   6.024 -0.7848 -0.3801  0.4149
   76SLPC    HS 6819   2.730   1.011   6.033 -0.9650  0.2572  1.2757
   76SLPC   O21 6820   2.574   0.911   6.133  0.5703  0.5658 -0.2463
   76SLPC   C21 6821   2.672   0.854   6.200  0.0098 -0.3108  0.0451
   76SLPC   O22 6822   2.791   0.876   6.180 -0.0540 -0.4235 -0.8765
   76SLPC   C22 6823   2.616   0.757   6.304  0.2393 -0.2409 -0.4081
   76SLPC   H2R 6824   2.509   0.782   6.321 -0.1578 -2.4937  0.8690
   76SLPC   H2S 6825   2.604   0.655   6.262 -1.6997 -0.2203 -0.0062
   76SLPC    C3 6826   2.551   1.131   6.016 -0.1837 -0.4904 -0.5234
   76SLPC    HX 6827   2.454   1.120   5.963  1.7612  1.1775 -4.8237
   76SLPC    HY 6828   2.608   1.200   5.950 -0.5587  2.1932  1.7527
   76SLPC   O31 6829   2.539   1.196   6.148  0.2298  0.3616  0.2430
   76SLPC   C31 6830   2.421   1.178   6.203  0.2661  0.0580  0.1658
   76SLPC   O32 6831   2.320   1.144   6.144 -0.3691 -0.6543  0.5335
   76SLPC   C32 6832   2.416   1.226   6.349  0.3625  0.2536 -0.1324
   76SLPC   H2X 6833   2.352   1.316   6.351  0.3032  0.2924 -1.8014
   76SLPC   H2Y 6834   2.518   1.254   6.384  0.4574 -0.7243  0.4128
   76SLPC   C23 6835   2.686   0.758   6.448  0.3116  0.2751  0.5121
   76SLPC   H3R 6836   2.794   0.779   6.434  0.5611 -1.0372  0.3699
   76SLPC   H3S 6837   2.678   0.654   6.487  0.2919  0.5453  1.2504
   76SLPC   C24 6838   2.626   0.858   6.546 -0.0751 -0.1576  0.7136
   76SLPC   H4R 6839   2.517   0.840   6.557 -0.5475  1.7036 -0.5079
   76SLPC   H4S 6840   2.640   0.958   6.499  2.3920 -1.2111 -0.9873
   76SLPC   C25 6841   2.686   0.865   6.680 -0.7198  0.4906  0.0554
   76SLPC   H5R 6842   2.647   0.778   6.736  0.4056 -0.2883 -0.3201
   76SLPC   H5S 6843   2.637   0.956   6.721 -1.0544  1.5227 -2.4452
   76SLPC   C26 6844   2.843   0.883   6.678 -0.2453  0.6081 -0.5979
   76SLPC   H6R 6845   2.861   0.959   6.757  0.2568  0.4684 -0.5748
   76SLPC   H6S 6846   2.877   0.927   6.582 -3.0466  0.7669 -1.6013
   76SLPC   C27 6847   2.916   0.752   6.701 -0.0931  0.3453  0.0763
   76SLPC   H7R 6848   2.871   0.675   6.635  0.3800  0.3737 -0.2824
   76SLPC   H7S 6849   2.906   0.726   6.809  0.2848  1.7010  0.4547
   76SLPC   C28 6850   3.064   0.751   6.671 -0.7872 -0.5053  0.0753
   76SLPC   H8R 6851   3.067   0.797   6.570 -0.9326  0.2979  0.4215
   76SLPC   H8S 6852   3.117   0.823   6.738  0.9604  2.3906 -4.0263
   76SLPC   C29 6853   3.133   0.618   6.695  0.9201 -0.3125  0.0687
   76SLPC   H9R 6854   3.172   0.571   6.604  0.7082 -0.8226  0.2373
   76SLPC  C210 6855   3.137   0.548   6.803 -0.1594 -0.1238 -0.0265
   76SLPC  H10R 6856   3.207   0.463   6.799 -1.0451 -0.8568 -3.1632
   76SLPC  C211 6857   3.082   0.573   6.939 -0.1149 -0.4337 -0.5145
   76SLPC  H11R 6858   2.973   0.552   6.944 -0.0764 -0.4608  2.6846
   76SLPC  H11S 6859   3.087   0.680   6.970 -1.8162 -0.4095 -0.2285
   76SLPC  C212 6860   3.146   0.483   7.042 -0.1340 -0.1458 -0.1808
   76SLPC  H12R 6861   3.216   0.408   7.003  0.3866 -0.5128  1.3677
   76SLPC  C213 6862   3.140   0.486   7.175  0.5121 -0.1721 -0.0489
   76SLPC  H13R 6863   3.180   0.404   7.237  0.7251 -1.5768 -1.9443
   76SLPC  C214 6864   3.052   0.577   7.262  0.5556 -0.0882  0.0927
   76SLPC  H14R 6865   3.002   0.650   7.195  4.5151  2.2704 -0.6779
   76SLPC  H14S 6866   3.132   0.624   7.323  0.9053 -1.4628  0.7438
   76SLPC  C215 6867   2.955   0.518   7.370  0.5538  0.9441 -0.8364
   76SLPC  H15R 6868   2.914   0.600   7.432 -2.9308 -1.7122  0.7552
   76SLPC  H15S 6869   3.022   0.452   7.429  1.5003  1.5750 -1.1779
   76SLPC  C216 6870   2.835   0.445   7.309 -0.6626 -0.6087 -0.7375
   76SLPC  H16R 6871   2.875   0.350   7.268  2.2905 -0.5843  1.7083
   76SLPC  H16S 6872   2.794   0.504   7.224 -0.3234  0.9596  0.1598
   76SLPC  C217 6873   2.720   0.434   7.407 -0.2657 -0.5981  0.1620
   76SLPC  H17R 6874   2.621   0.395   7.375 -0.8524  0.0362  1.1552
   76SLPC  H17S 6875   2.698   0.538   7.439 -1.4876 -0.5483 -0.7914
   76SLPC  C218 6876   2.741   0.349   7.538 -0.4494 -0.2822  0.0626
   76SLPC  H18R 6877   2.729   0.244   7.502  1.7205  0.7177 -4.2379
   76SLPC  H18S 6878   2.668   0.367   7.620  0.1216 -2.0420  1.0232
   76SLPC  H18T 6879   2.848   0.365   7.567 -0.1729 -2.1892  0.2288
   76SLPC   C33 6880   2.360   1.129   6.461 -0.3390 -0.6252 -0.3522
   76SLPC   H3X 6881   2.389   1.022   6.453 -2.6558 -1.3698  0.2198
   76SLPC   H3Y 6882   2.249   1.131   6.462 -0.3443  1.9681 -0.2869
   76SLPC   C34 6883   2.411   1.180   6.596  0.0211  0.0538  0.2585
   76SLPC   H4X 6884   2.402   1.290   6.601  0.1858  0.0715  0.1960
   76SLPC   H4Y 6885   2.519   1.152   6.600 -0.0565 -0.2577  0.2347
   76SLPC   C35 6886   2.330   1.118   6.709 -0.0704 -0.1653 -0.1150
   76SLPC   H5X 6887   2.331   1.007   6.706 -1.1827 -0.2141  0.5965
   76SLPC   H5Y 6888   2.223   1.149   6.705 -0.2423 -0.6585  0.4673
   76SLPC   C36 6889   2.387   1.166   6.842  0.1430  0.0035  0.6303
   76SLPC   H6X 6890   2.416   1.273   6.852 -0.0731  0.3895 -2.2375
   76SLPC   H6Y 6891   2.475   1.110   6.881 -0.4681  0.9353  3.6071
   76SLPC   C37 6892   2.276   1.136   6.941  0.1647  0.6736 -0.0264
   76SLPC   H7X 6893   2.234   1.033   6.929  1.3328  0.1668  0.0851
   76SLPC   H7Y 6894   2.193   1.208   6.922 -0.7541  0.0030  1.2763
   76SLPC   C38 6895   2.325   1.137   7.083  0.0757 -0.1922  0.6317
   76SLPC   H8X 6896   2.341   1.242   7.116 -4.8898 -0.0598  3.6418
   76SLPC   H8Y 6897   2.428   1.096   7.089  1.3253  2.3413 -1.3616
   76SLPC   C39 6898   2.228   1.066   7.176  0.6588 -0.5228 -0.4127
   76SLPC   H9X 6899   2.227   0.962   7.137  0.9563 -0.2854 -1.0626
   76SLPC   H9Y 6900   2.132   1.122   7.170  1.7383  1.7958  1.8868
   76SLPC  C310 6901   2.263   1.059   7.318 -0.1735  1.2680  0.1932
   76SLPC  H10X 6902   2.195   0.990   7.373  1.8021 -0.4835  0.5460
   76SLPC  H10Y 6903   2.270   1.159   7.367  1.9285  1.0232  0.4604
   76SLPC  C311 6904   2.411   1.010   7.339 -0.0072  0.7530 -0.6480
   76SLPC  H11X 6905   2.481   1.087   7.299  0.4893 -0.2487 -1.7376
   76SLPC  H11Y 6906   2.415   0.920   7.275 -0.3689  0.6165 -0.4810
   76SLPC  C312 6907   2.449   0.958   7.479 -0.0361  0.4566 -1.0547
   76SLPC  H12X 6908   2.365   0.903   7.526  0.7839 -0.5103 -0.6525
   76SLPC  H12Y 6909   2.461   1.050   7.539 -0.4888 -0.3319  0.2795
   76SLPC  C313 6910   2.573   0.866   7.488  0.2151 -0.2114 -0.5634
   76SLPC  H13X 6911   2.563   0.776   7.424 -0.8704 -0.7239  0.2890
   76SLPC  H13Y 6912   2.584   0.831   7.593 -0.1649 -0.3152 -0.5553
   76SLPC  C314 6913   2.708   0.926   7.446  0.1649 -0.1467  0.4833
   76SLPC  H14X 6914   2.784   0.879   7.511  1.0134  0.7458  0.1703
   76SLPC  H14Y 6915   2.711   1.037   7.457 -0.9987  0.2927 -2.4123
   76SLPC  C315 6916   2.739   0.903   7.297 -0.4226  0.2329  0.3213
   76SLPC  H15X 6917   2.646   0.937   7.247 -1.0296 -0.8209  0.6999
   76SLPC  H15Y 6918   2.751   0.795   7.275  0.7767  0.1553  1.2111
   76SLPC  C316 6919   2.861   0.980   7.243  0.4096  0.1046 -0.6126
   76SLPC  H16X 6920   2.947   0.955   7.310 -0.0899  1.8958  0.7797
   76SLPC  H16Y 6921   2.849   1.090   7.252  0.7278  0.4146 -3.2714
   76SLPC  C317 6922   2.889   0.938   7.103 -0.3211 -0.2338  0.2849
   76SLPC  H17X 6923   2.807   0.969   7.035 -0.1796  0.1245  0.2716
   76SLPC  H17Y 6924   2.898   0.828   7.103 -0.8695 -0.2815  0.3001
   76SLPC  C318 6925   3.018   1.006   7.050 -1.1036 -0.4217  0.1385
   76SLPC  H18X 6926   3.030   0.982   6.942 -1.6847  0.9414 -0.2412
   76SLPC  H18Y 6927   3.099   0.959   7.110 -0.2869  2.0120  1.0466
   76SLPC  H18Z 6928   3.025   1.116   7.044  0.2148 -0.5100 -0.4040
   77SLPC     N 6929   6.152   2.114   5.484  0.2503 -0.2174  0.2586
   77SLPC   C13 6930   6.063   2.227   5.437  0.5538 -0.0063  0.1791
   77SLPC  H13A 6931   5.981   2.186   5.380  0.8703 -3.0519  1.7069
   77SLPC  H13B 6932   6.028   2.277   5.526  0.6003  0.5474 -0.1079
   77SLPC  H13C 6933   6.108   2.302   5.373  0.3146 -0.7987 -0.9486
   77SLPC   C14 6934   6.247   2.162   5.590 -0.3456 -0.0174  0.1487
   77SLPC  H14A 6935   6.194   2.219   5.665 -0.9695  0.9339 -0.9888
   77SLPC  H14B 6936   6.294   2.080   5.643 -0.9822 -0.1256  0.5545
   77SLPC  H14C 6937   6.330   2.220   5.552  0.2532  0.0229  1.4526
   77SLPC   C15 6938   6.225   2.060   5.367 -0.0885  0.2432 -1.3102
   77SLPC  H15A 6939   6.284   2.135   5.317 -0.8315  0.9443 -1.1572
   77SLPC  H15B 6940   6.276   1.969   5.395  2.8488  1.0658 -3.4378
   77SLPC  H15C 6941   6.147   2.035   5.297 -1.5051 -1.8904  0.8827
   77SLPC   C12 6942   6.068   2.014   5.554  0.5580 -0.1411 -0.5598
   77SLPC  H12A 6943   5.996   1.963   5.492 -1.4795  0.7651  0.9481
   77SLPC  H12B 6944   6.008   2.061   5.630  1.5957 -0.5766  0.5619
   77SLPC   C11 6945   6.140   1.906   5.641  0.1473 -0.2487  0.8115
   77SLPC  H11A 6946   6.066   1.824   5.651 -0.6181  0.3311  0.0270
   77SLPC  H11B 6947   6.152   1.954   5.741 -0.7656  2.4973 -0.3095
   77SLPC     P 6948   6.285   1.718   5.530 -0.2429  0.1051  0.4227
   77SLPC   O13 6949   6.183   1.677   5.428  0.1070 -0.4563 -0.2368
   77SLPC   O14 6950   6.427   1.721   5.474 -1.1388 -0.6254 -0.1601
   77SLPC   O12 6951   6.262   1.862   5.590 -0.0525 -1.0382 -0.4560
   77SLPC   O11 6952   6.283   1.615   5.644  0.1426  0.1250  0.2199
   77SLPC    C1 6953   6.220   1.599   5.768  0.3573 -0.4833  0.0925
   77SLPC    HA 6954   6.128   1.659   5.780  1.4483  1.3091 -0.2324
   77SLPC    HB 6955   6.180   1.496   5.781 -1.7128  0.4237  1.3464
   77SLPC    C2 6956   6.320   1.633   5.886  0.2333  0.1124  0.1844
   77SLPC    HS 6957   6.421   1.595   5.861 -0.2886 -1.0616 -0.2111
   77SLPC   O21 6958   6.285   1.577   6.016  0.1645 -0.3785  0.2815
   77SLPC   C21 6959   6.346   1.468   6.061 -0.4159 -0.0471 -0.3371
   77SLPC   O22 6960   6.426   1.395   6.000  0.1528  0.6136 -0.2679
   77SLPC   C22 6961   6.297   1.445   6.205 -0.5664 -0.2677 -0.8286
   77SLPC   H2R 6962   6.216   1.517   6.231  0.9866  1.2351  0.0568
   77SLPC   H2S 6963   6.264   1.339   6.213 -0.8022 -0.1592 -0.2496
   77SLPC    C3 6964   6.343   1.790   5.903 -0.0773  0.2647  0.7015
   77SLPC    HX 6965   6.245   1.842   5.911 -0.9789 -0.9118 -1.6514
   77SLPC    HY 6966   6.396   1.815   5.808  2.4168 -0.4477  1.8199
   77SLPC   O31 6967   6.426   1.815   6.024  0.6303  0.1232 -0.3880
   77SLPC   C31 6968   6.502   1.911   6.003 -0.2725 -1.0116  0.1022
   77SLPC   O32 6969   6.506   1.984   5.902 -0.5900 -0.3724  0.0578
   77SLPC   C32 6970   6.589   1.941   6.129  0.4234  0.2614  0.3313
   77SLPC   H2X 6971   6.593   2.052   6.136 -0.3705  0.2811  0.5655
   77SLPC   H2Y 6972   6.694   1.919   6.098  1.0435  1.1199  1.7352
   77SLPC   C23 6973   6.405   1.453   6.310  0.4967  0.2613  0.3129
   77SLPC   H3R 6974   6.454   1.553   6.317 -0.8434  0.9134  0.7616
   77SLPC   H3S 6975   6.484   1.378   6.287 -1.2890 -1.5045 -0.3798
   77SLPC   C24 6976   6.342   1.436   6.452 -0.4924 -0.2496  0.7064
   77SLPC   H4R 6977   6.316   1.328   6.457  0.9738 -0.6248  0.6071
   77SLPC   H4S 6978   6.247   1.493   6.454 -0.9507 -1.0029  2.3262
   77SLPC   C25 6979   6.435   1.489   6.566 -0.2610 -0.1042  0.4040
   77SLPC   H5R 6980   6.504   1.570   6.535  0.7929 -0.8573  0.7456
   77SLPC   H5S 6981   6.494   1.400   6.596 -1.8079 -1.2488  0.1846
   77SLPC   C26 6982   6.374   1.534   6.700 -0.4549 -0.0839  0.3708
   77SLPC   H6R 6983   6.311   1.620   6.668  1.1279  0.3798 -1.7039
   77SLPC   H6S 6984   6.464   1.574   6.750  1.8225 -0.7474 -2.8557
   77SLPC   C27 6985   6.296   1.411   6.756 -0.6819 -0.8853  0.3356
   77SLPC   H7R 6986   6.372   1.333   6.780 -0.8040 -1.8621 -2.1603
   77SLPC   H7S 6987   6.233   1.361   6.679  0.5791 -1.0172 -0.6484
   77SLPC   C28 6988   6.215   1.425   6.887 -0.3515  0.1207  0.1075
   77SLPC   H8R 6989   6.168   1.525   6.874  2.4261  1.8424  1.9489
   77SLPC   H8S 6990   6.275   1.444   6.979 -3.2734  0.7651  2.0087
   77SLPC   C29 6991   6.103   1.332   6.913  0.7270 -0.0593  0.0858
   77SLPC   H9R 6992   6.096   1.253   6.837  0.1016 -2.3498  2.3745
   77SLPC  C210 6993   6.011   1.344   7.015  0.0008 -0.0312 -1.2830
   77SLPC  H10R 6994   5.921   1.282   7.012  0.2409 -0.4789  0.1430
   77SLPC  C211 6995   6.000   1.451   7.125 -0.0214  0.7801 -0.2887
   77SLPC  H11R 6996   5.896   1.489   7.133  0.6087  2.6043 -0.4751
   77SLPC  H11S 6997   6.053   1.544   7.096  2.1464 -0.2835  0.0245
   77SLPC  C212 6998   6.050   1.399   7.254 -0.1159 -0.0320 -0.2442
   77SLPC  H12R 6999   6.155   1.367   7.243  0.0295  1.2812 -3.8386
   77SLPC  C213 7000   5.989   1.398   7.372  1.1451 -0.4090 -0.2992
   77SLPC  H13R 7001   6.052   1.363   7.455  1.8676  0.1436 -0.5978
   77SLPC  C214 7002   5.849   1.443   7.402  0.3201 -0.4121 -0.2856
   77SLPC  H14R 7003   5.773   1.415   7.325 -0.9834  1.5479  0.1942
   77SLPC  H14S 7004   5.845   1.550   7.433 -1.5713 -0.9926  1.6770
   77SLPC  C215 7005   5.789   1.373   7.524  0.1958 -0.0358  0.0802
   77SLPC  H15R 7006   5.849   1.413   7.608  0.3175  0.2994 -0.1673
   77SLPC  H15S 7007   5.791   1.262   7.524  0.0406 -0.0503 -1.0094
   77SLPC  C216 7008   5.642   1.409   7.559 -0.2827  0.3036 -0.3731
   77SLPC  H16R 7009   5.576   1.395   7.471  1.0037 -0.7796 -1.2050
   77SLPC  H16S 7010   5.635   1.519   7.574 -1.4731  0.2419 -0.3843
   77SLPC  C217 7011   5.586   1.328   7.675 -0.2605  0.8224 -0.0171
   77SLPC  H17R 7012   5.572   1.222   7.646 -1.6702  1.0294 -0.1400
   77SLPC  H17S 7013   5.489   1.365   7.713 -1.0832 -0.8445 -0.4039
   77SLPC  C218 7014   5.681   1.322   7.794  0.4008  0.3969 -0.3703
   77SLPC  H18R 7015   5.627   1.269   7.876 -0.5414  0.4811 -0.9293
   77SLPC  H18S 7016   5.700   1.429   7.816  0.3801  0.2666  0.3078
   77SLPC  H18T 7017   5.769   1.264   7.757  0.6199  0.2968  0.2795
   77SLPC   C33 7018   6.559   1.869   6.257  0.0544 -0.0254  0.5972
   77SLPC   H3X 7019   6.642   1.862   6.331  0.5175  0.2761  0.1075
   77SLPC   H3Y 7020   6.548   1.759   6.244 -0.7316  0.0997  0.1224
   77SLPC   C34 7021   6.434   1.917   6.328 -0.5725  0.1068  0.2707
   77SLPC   H4X 7022   6.389   1.839   6.392  1.4960 -0.7496  0.7460
   77SLPC   H4Y 7023   6.365   1.936   6.242  0.7883  0.6312 -0.7527
   77SLPC   C35 7024   6.433   2.054   6.397  0.1778 -0.3051 -0.2258
   77SLPC   H5X 7025   6.328   2.065   6.430 -0.5154  0.2911 -2.4566
   77SLPC   H5Y 7026   6.467   2.130   6.323  0.3936 -0.0679  0.1126
   77SLPC   C36 7027   6.511   2.058   6.529 -0.0030  0.7044 -0.0112
   77SLPC   H6X 7028   6.619   2.031   6.521 -0.9076 -3.8268  0.1893
   77SLPC   H6Y 7029   6.467   1.975   6.589 -0.9988  0.4635 -1.0462
   77SLPC   C37 7030   6.484   2.193   6.606 -0.1137 -0.5622 -0.5799
   77SLPC   H7X 7031   6.375   2.208   6.619 -0.0241 -1.3381  1.4538
   77SLPC   H7Y 7032   6.516   2.274   6.537  3.0765 -0.0595  1.3211
   77SLPC   C38 7033   6.556   2.211   6.743 -0.0987  0.2541  0.1403
   77SLPC   H8X 7034   6.523   2.304   6.795  2.0087 -0.5924  3.2953
   77SLPC   H8Y 7035   6.660   2.236   6.714 -0.5016  2.0132  0.0793
   77SLPC   C39 7036   6.550   2.094   6.842 -0.2120 -0.3750 -0.1854
   77SLPC   H9X 7037   6.640   2.102   6.906  1.0050 -1.0398 -1.7284
   77SLPC   H9Y 7038   6.575   2.001   6.787  2.6775 -0.2425  0.7355
   77SLPC  C310 7039   6.416   2.095   6.912 -0.6676 -0.1071 -0.3402
   77SLPC  H10X 7040   6.337   2.060   6.843 -1.1936 -0.6623  0.5276
   77SLPC  H10Y 7041   6.401   2.203   6.933  2.7726  1.1892 -3.3502
   77SLPC  C311 7042   6.431   2.015   7.043 -0.2847  0.0636 -0.1337
   77SLPC  H11X 7043   6.482   2.079   7.118 -0.9946  1.2254 -0.6087
   77SLPC  H11Y 7044   6.490   1.923   7.026  0.4844  0.1848  1.6522
   77SLPC  C312 7045   6.294   1.975   7.102  0.1037 -0.9413 -0.0227
   77SLPC  H12X 7046   6.227   1.933   7.024 -0.4672 -0.4952  0.2220
   77SLPC  H12Y 7047   6.251   2.073   7.131 -0.6000 -0.6255 -2.0083
   77SLPC  C313 7048   6.309   1.888   7.224 -0.4630  0.0116 -0.4952
   77SLPC  H13X 7049   6.383   1.930   7.295 -1.3239 -1.7375  1.5083
   77SLPC  H13Y 7050   6.359   1.792   7.199  1.7131 -0.1781  3.6896
   77SLPC  C314 7051   6.181   1.848   7.302 -0.1218 -0.6418 -0.3981
   77SLPC  H14X 7052   6.110   1.802   7.230  0.8218 -2.4137 -0.2715
   77SLPC  H14Y 7053   6.139   1.941   7.345  1.9709  0.0384  0.3147
   77SLPC  C315 7054   6.196   1.748   7.423  0.2839 -0.1341  0.3868
   77SLPC  H15X 7055   6.231   1.650   7.385 -1.3187  0.1679 -2.0671
   77SLPC  H15Y 7056   6.105   1.746   7.486 -0.9514  0.5385 -1.2853
   77SLPC  C316 7057   6.305   1.788   7.516  0.0300  0.3992 -0.4432
   77SLPC  H16X 7058   6.277   1.888   7.556  0.1416  0.1388  0.2941
   77SLPC  H16Y 7059   6.404   1.789   7.465 -0.5449 -1.0305 -1.6506
   77SLPC  C317 7060   6.302   1.711   7.645 -0.4700 -0.5489 -0.7195
   77SLPC  H17X 7061   6.314   1.601   7.632  0.7566 -0.4641 -0.3967
   77SLPC  H17Y 7062   6.198   1.719   7.683 -0.0754  1.9089  0.0399
   77SLPC  C318 7063   6.398   1.757   7.753 -0.6309  0.2988 -0.0374
   77SLPC  H18X 7064   6.402   1.868   7.759 -1.1298  0.3547 -0.6126
   77SLPC  H18Y 7065   6.496   1.711   7.727 -1.4612 -1.6868  0.2068
   77SLPC  H18Z 7066   6.364   1.720   7.852  1.1601 -0.6860  0.2593
   78SLPC     N 7067   1.141   0.799   5.663 -0.0454 -0.7464 -0.6603
   78SLPC   C13 7068   1.019   0.789   5.578 -0.8042  0.6750 -0.1438
   78SLPC  H13A 7069   0.998   0.686   5.553 -2.7198  0.5302  1.8080
   78SLPC  H13B 7070   0.925   0.823   5.618 -0.4904  0.6309  0.6420
   78SLPC  H13C 7071   1.034   0.837   5.482 -1.0382 -0.3204 -0.6944
   78SLPC   C14 7072   1.151   0.948   5.695 -0.0395 -0.5371 -0.3689
   78SLPC  H14A 7073   1.228   0.961   5.770 -0.7816 -1.7077  0.6084
   78SLPC  H14B 7074   1.167   1.003   5.603 -3.1529  0.5984 -0.3281
   78SLPC  H14C 7075   1.075   0.996   5.754 -0.0781 -0.8489 -0.1630
   78SLPC   C15 7076   1.256   0.753   5.576  0.2384  0.0279 -0.5210
   78SLPC  H15A 7077   1.243   0.649   5.551  0.5176  0.5445 -3.1415
   78SLPC  H15B 7078   1.248   0.791   5.475 -0.0972 -0.6295 -0.7518
   78SLPC  H15C 7079   1.354   0.777   5.615  1.3595 -2.7226 -1.3612
   78SLPC   C12 7080   1.137   0.723   5.792 -0.1385  0.3239 -0.0751
   78SLPC  H12A 7081   1.197   0.770   5.869 -0.2407 -1.0217  0.8789
   78SLPC  H12B 7082   1.168   0.620   5.777  1.5499  0.4939  1.7586
   78SLPC   C11 7083   0.998   0.715   5.852 -0.0801 -0.2368 -0.2928
   78SLPC  H11A 7084   0.940   0.806   5.828 -0.7447 -0.1883  1.3201
   78SLPC  H11B 7085   1.010   0.714   5.963  0.9612  2.1720 -0.3327
   78SLPC     P 7086   0.980   0.450   5.848  0.1648 -0.0600  0.4104
   78SLPC   O13 7087   0.864   0.356   5.810  0.6081 -0.1568 -0.2937
   78SLPC   O14 7088   1.116   0.420   5.788  0.0695  0.0761  0.1958
   78SLPC   O12 7089   0.935   0.596   5.805 -0.3046 -0.3940  0.0755
   78SLPC   O11 7090   0.994   0.465   5.999 -0.2950 -0.0478  0.1898
   78SLPC    C1 7091   0.886   0.449   6.095 -0.2309  0.5186 -0.3912
   78SLPC    HA 7092   0.795   0.417   6.040 -0.0943  1.1573 -1.0060
   78SLPC    HB 7093   0.912   0.364   6.161 -1.1107  0.7384  0.2674
   78SLPC    C2 7094   0.865   0.573   6.178  0.5383  0.0099 -0.1507
   78SLPC    HS 7095   0.826   0.649   6.108  1.2062 -1.1634 -1.8553
   78SLPC   O21 7096   0.990   0.609   6.232  0.2969 -0.0397 -0.0027
   78SLPC   C21 7097   0.995   0.727   6.294 -0.0903  0.0275 -0.0176
   78SLPC   O22 7098   0.915   0.818   6.279 -0.1739  0.5815 -0.1096
   78SLPC   C22 7099   1.128   0.737   6.359 -0.4106  0.3238  0.0840
   78SLPC   H2R 7100   1.124   0.654   6.434 -1.6637  0.3818  0.1007
   78SLPC   H2S 7101   1.211   0.732   6.285  0.1383  1.9298  0.5586
   78SLPC    C3 7102   0.752   0.543   6.286 -0.4936  0.0309 -0.3481
   78SLPC    HX 7103   0.657   0.513   6.236 -0.2126 -1.2625 -0.1541
   78SLPC    HY 7104   0.729   0.632   6.348  2.6398 -0.3501  1.5689
   78SLPC   O31 7105   0.797   0.434   6.373  0.1480 -0.6602  0.1287
   78SLPC   C31 7106   0.848   0.474   6.490 -0.0715 -0.1540 -0.0604
   78SLPC   O32 7107   0.871   0.592   6.518  0.6078 -0.1778 -0.5991
   78SLPC   C32 7108   0.850   0.356   6.589  0.1018  0.0290  0.0956
   78SLPC   H2X 7109   0.903   0.276   6.533  1.3327  0.5741  0.4589
   78SLPC   H2Y 7110   0.755   0.306   6.615  0.8159 -1.0042  0.7742
   78SLPC   C23 7111   1.151   0.876   6.429 -0.5611  0.0559  0.1063
   78SLPC   H3R 7112   1.123   0.959   6.361 -0.7146 -0.0680  0.0178
   78SLPC   H3S 7113   1.261   0.880   6.445 -0.0813 -4.7547 -0.3338
   78SLPC   C24 7114   1.086   0.881   6.573 -0.7849  0.6548 -0.0955
   78SLPC   H4R 7115   0.984   0.838   6.563  0.0691 -1.2094 -1.2426
   78SLPC   H4S 7116   1.074   0.988   6.600 -0.9632  0.8455 -0.9088
   78SLPC   C25 7117   1.174   0.808   6.680  0.5234 -0.4048  0.5156
   78SLPC   H5R 7118   1.266   0.869   6.690 -1.0894  2.3016 -0.1162
   78SLPC   H5S 7119   1.209   0.708   6.647 -0.3662 -0.0256 -1.7827
   78SLPC   C26 7120   1.099   0.800   6.815 -0.2893 -0.5562 -0.7871
   78SLPC   H6R 7121   0.995   0.768   6.794 -0.6104 -0.7315  0.9012
   78SLPC   H6S 7122   1.100   0.905   6.853  1.1683 -0.2574 -1.5775
   78SLPC   C27 7123   1.169   0.712   6.924 -0.1223  0.0745 -0.1808
   78SLPC   H7R 7124   1.253   0.773   6.963 -1.6252  1.2657  1.3018
   78SLPC   H7S 7125   1.212   0.633   6.859 -0.7365  1.3316 -2.2054
   78SLPC   C28 7126   1.070   0.667   7.026  0.0688 -0.5757 -0.7865
   78SLPC   H8R 7127   1.114   0.592   7.096 -1.4044  1.9315  3.1727
   78SLPC   H8S 7128   0.993   0.608   6.971  0.7578 -1.5451 -0.7387
   78SLPC   C29 7129   1.017   0.783   7.106  0.1653 -0.3554 -0.4058
   78SLPC   H9R 7130   1.089   0.830   7.174 -0.0960 -0.6741  0.0935
   78SLPC  C210 7131   0.885   0.815   7.104 -0.3485 -0.7184 -0.0731
   78SLPC  H10R 7132   0.848   0.901   7.162 -1.4545 -0.9898 -0.3479
   78SLPC  C211 7133   0.778   0.753   7.023  0.4361  0.3219 -0.7329
   78SLPC  H11R 7134   0.788   0.643   7.028 -0.8441  0.0748 -2.4977
   78SLPC  H11S 7135   0.785   0.783   6.916 -0.2303  2.4758 -0.2300
   78SLPC  C212 7136   0.640   0.796   7.066 -0.6104  0.0135 -0.6361
   78SLPC  H12R 7137   0.617   0.901   7.040  0.3126  0.1663 -0.8593
   78SLPC  C213 7138   0.547   0.732   7.131 -1.0309  0.1344  0.2964
   78SLPC  H13R 7139   0.455   0.789   7.152 -1.8231 -1.1911  0.4772
   78SLPC  C214 7140   0.555   0.599   7.190 -0.9430  0.5680 -0.1055
   78SLPC  H14R 7141   0.661   0.565   7.191 -0.9769  0.3714  2.0784
   78SLPC  H14S 7142   0.493   0.527   7.132 -0.6380  0.6843 -0.5774
   78SLPC  C215 7143   0.508   0.603   7.338  0.1480 -0.1808  0.3536
   78SLPC  H15R 7144   0.402   0.635   7.351  0.4295  0.8517  0.1766
   78SLPC  H15S 7145   0.567   0.676   7.397 -0.9452 -0.6119  2.0462
   78SLPC  C216 7146   0.513   0.455   7.391  0.1220 -0.0024  0.0655
   78SLPC  H16R 7147   0.605   0.403   7.359 -0.0470  0.4879 -1.2424
   78SLPC  H16S 7148   0.419   0.405   7.361 -1.0312  2.3041 -0.4297
   78SLPC  C217 7149   0.516   0.448   7.547 -0.3515 -0.2763 -0.9003
   78SLPC  H17R 7150   0.511   0.349   7.597 -1.7619  0.6155  0.8871
   78SLPC  H17S 7151   0.424   0.496   7.589 -1.6432 -3.3961  0.1663
   78SLPC  C218 7152   0.651   0.511   7.612  0.5632  0.6507 -0.8797
   78SLPC  H18R 7153   0.657   0.621   7.598  4.1095  0.7915  0.6822
   78SLPC  H18S 7154   0.738   0.458   7.566 -2.3012 -2.5265 -3.1572
   78SLPC  H18T 7155   0.643   0.483   7.720 -0.8209 -1.1060 -1.3747
   78SLPC   C33 7156   0.906   0.389   6.734 -0.2881 -0.4336 -0.0303
   78SLPC   H3X 7157   0.824   0.408   6.806  0.5819 -0.1705  0.9200
   78SLPC   H3Y 7158   0.969   0.481   6.741  0.6620 -1.1265  1.0550
   78SLPC   C34 7159   0.992   0.271   6.791  0.0771 -0.5572  0.5945
   78SLPC   H4X 7160   1.096   0.291   6.756 -0.0586  2.5137  1.6692
   78SLPC   H4Y 7161   0.954   0.171   6.761  1.8206 -1.4204  1.1093
   78SLPC   C35 7162   1.015   0.284   6.945  0.2908  0.0560  0.0271
   78SLPC   H5X 7163   1.037   0.392   6.959  3.3941 -0.3098 -1.1535
   78SLPC   H5Y 7164   1.103   0.222   6.972  0.5180 -0.0956 -1.0249
   78SLPC   C36 7165   0.892   0.244   7.026 -0.6062 -0.0867  0.2262
   78SLPC   H6X 7166   0.879   0.134   7.020 -0.0391 -0.2789  1.9525
   78SLPC   H6Y 7167   0.799   0.285   6.981 -0.2564  1.0637  0.5182
   78SLPC   C37 7168   0.898   0.286   7.171 -0.6383 -0.7911 -0.0823
   78SLPC   H7X 7169   0.833   0.377   7.179 -0.4840 -0.6081 -0.8670
   78SLPC   H7Y 7170   1.000   0.309   7.209 -0.5572 -1.1668 -0.0744
   78SLPC   C38 7171   0.839   0.178   7.270  0.0293  0.0057 -0.2307
   78SLPC   H8X 7172   0.880   0.079   7.240 -0.7945 -0.4745  0.1861
   78SLPC   H8Y 7173   0.731   0.168   7.249 -0.7269 -1.5678  3.6911
   78SLPC   C39 7174   0.861   0.203   7.418 -0.6138 -0.6792 -0.4471
   78SLPC   H9X 7175   0.788   0.284   7.438 -2.5388 -2.5297  0.4720
   78SLPC   H9Y 7176   0.967   0.233   7.437 -0.1086 -0.5955 -3.0902
   78SLPC  C310 7177   0.804   0.093   7.511 -0.4309 -0.4391 -0.1911
   78SLPC  H10X 7178   0.872   0.005   7.517  1.9153  1.3072  0.2498
   78SLPC  H10Y 7179   0.708   0.060   7.465 -0.0777 -0.3490 -1.0166
   78SLPC  C311 7180   0.797   0.142   7.658 -0.4887 -0.5663  0.4551
   78SLPC  H11X 7181   0.752   0.063   7.722  0.0167 -0.5411  0.8488
   78SLPC  H11Y 7182   0.735   0.233   7.672 -0.2103 -0.4803  1.1827
   78SLPC  C312 7183   0.938   0.180   7.710  0.5930 -0.1707 -0.2278
   78SLPC  H12X 7184   0.984   0.274   7.673 -0.6322  0.4023 -0.3244
   78SLPC  H12Y 7185   1.007   0.098   7.679 -0.1891  0.2702 -3.4723
   78SLPC  C313 7186   0.939   0.212   7.864  0.3119 -0.2266  0.1298
   78SLPC  H13X 7187   0.889   0.132   7.923 -2.0701  1.7861  0.9738
   78SLPC  H13Y 7188   0.886   0.309   7.868  0.0770 -0.3168 -0.6784
   78SLPC  C314 7189   1.083   0.244   7.922  1.3906  0.1126  0.3742
   78SLPC  H14X 7190   1.148   0.308   7.859  1.4874 -0.0543  0.3026
   78SLPC  H14Y 7191   1.132   0.144   7.924 -0.0382 -0.6095  1.9240
   78SLPC  C315 7192   1.081   0.311   8.062  0.6301  0.8288 -0.2294
   78SLPC  H15X 7193   1.039   0.243   8.139  1.7300  0.5575  0.1598
   78SLPC  H15Y 7194   1.013   0.396   8.041  0.9753  0.9299 -0.9950
   78SLPC  C316 7195   1.219   0.357   8.111 -0.1650 -0.1502 -0.2645
   78SLPC  H16X 7196   1.254   0.429   8.034  0.2611  1.4697  1.3766
   78SLPC  H16Y 7197   1.294   0.275   8.117  1.0545  1.0288  1.8453
   78SLPC  C317 7198   1.204   0.413   8.248  0.1514 -0.3603 -0.0419
   78SLPC  H17X 7199   1.152   0.344   8.318 -0.9992  1.0346  0.5394
   78SLPC  H17Y 7200   1.131   0.495   8.230 -0.7337 -0.3943  2.8780
   78SLPC  C318 7201   1.330   0.480   8.309  0.2152  0.5101 -0.0781
   78SLPC  H18X 7202   1.413   0.406   8.315 -1.3870 -1.2892  0.7750
   78SLPC  H18Y 7203   1.316   0.509   8.415 -1.7554 -1.0903  0.1713
   78SLPC  H18Z 7204   1.372   0.554   8.237  0.4508  0.7416  0.2951
   79SLPC     N 7205   6.886   4.338   5.647 -0.1397 -0.6064 -0.5977
   79SLPC   C13 7206   6.794   4.425   5.561 -0.3345 -0.0525  0.3762
   79SLPC  H13A 7207   6.836   4.431   5.462 -0.6638  0.9920  0.2847
   79SLPC  H13B 7208   6.702   4.369   5.548  1.4028 -3.2608  0.8884
   79SLPC  H13C 7209   6.775   4.526   5.595  1.8589  1.7546 -3.2007
   79SLPC   C14 7210   7.017   4.404   5.672 -0.1493  0.3298 -0.4646
   79SLPC  H14A 7211   7.002   4.506   5.706 -2.7024 -0.1186 -0.0668
   79SLPC  H14B 7212   7.083   4.352   5.740 -0.0831 -0.1433 -0.8920
   79SLPC  H14C 7213   7.068   4.419   5.578 -0.2891  1.5739 -0.3632
   79SLPC   C15 7214   6.910   4.215   5.576  0.5726 -0.4886  0.9525
   79SLPC  H15A 7215   6.980   4.238   5.497 -1.3993  2.5347 -0.0649
   79SLPC  H15B 7216   6.945   4.132   5.636  1.6034 -1.2238 -0.6086
   79SLPC  H15C 7217   6.825   4.178   5.521  0.6204  0.8194 -0.0300
   79SLPC   C12 7218   6.817   4.304   5.775  0.1775 -0.1639  0.6522
   79SLPC  H12A 7219   6.721   4.260   5.753 -1.3467  2.1870  2.1578
   79SLPC  H12B 7220   6.800   4.400   5.822  0.2877  0.2405 -0.1353
   79SLPC   C11 7221   6.890   4.213   5.872  0.1163  0.4800  0.2956
   79SLPC  H11A 7222   6.855   4.214   5.977 -0.0381  0.8668  0.2425
   79SLPC  H11B 7223   6.994   4.251   5.882 -0.3516  1.6786  0.8609
   79SLPC     P 7224   6.761   3.989   5.845  0.3732 -0.0920  0.2718
   79SLPC   O13 7225   6.646   4.078   5.865 -0.1164 -0.8389 -0.2852
   79SLPC   O14 7226   6.747   3.892   5.733  0.2050  0.1973  0.3183
   79SLPC   O12 7227   6.886   4.079   5.822  0.0860 -0.1399 -0.0314
   79SLPC   O11 7228   6.791   3.903   5.970  0.0261  0.2532 -0.2016
   79SLPC    C1 7229   6.912   3.846   6.000  0.2318 -0.0268 -0.0965
   79SLPC    HA 7230   6.900   3.747   6.050  1.2274 -0.7854 -1.2915
   79SLPC    HB 7231   6.973   3.819   5.910  1.0669 -1.3898  0.8385
   79SLPC    C2 7232   7.006   3.937   6.088  0.2475  0.0215 -0.3217
   79SLPC    HS 7233   7.053   4.017   6.028  0.0732  1.0332  0.8392
   79SLPC   O21 7234   7.110   3.851   6.138  0.7469 -0.4564 -0.9553
   79SLPC   C21 7235   7.232   3.901   6.127  0.0019 -0.1844 -0.7044
   79SLPC   O22 7236   7.263   4.014   6.100  0.6540 -0.2302  0.5913
   79SLPC   C22 7237   7.333   3.801   6.165 -0.3741  0.2336 -0.2916
   79SLPC   H2R 7238   7.400   3.848   6.240 -1.7531  0.5015  0.8159
   79SLPC   H2S 7239   7.292   3.713   6.219 -1.0092  1.9132  2.1366
   79SLPC    C3 7240   6.922   3.996   6.206  0.1599 -0.2298  0.1751
   79SLPC    HX 7241   6.891   3.900   6.252 -1.0361  0.1331  0.1421
   79SLPC    HY 7242   6.835   4.050   6.163 -0.2354 -0.7465  0.3187
   79SLPC   O31 7243   7.002   4.069   6.304 -0.2824  0.3470 -0.1298
   79SLPC   C31 7244   7.009   4.195   6.287 -0.5257  0.5953  0.6109
   79SLPC   O32 7245   6.951   4.266   6.206 -0.1822 -0.1480  0.1444
   79SLPC   C32 7246   7.109   4.260   6.375 -0.2490 -0.2461 -0.0230
   79SLPC   H2X 7247   7.156   4.341   6.315 -0.7038  0.1146  0.1017
   79SLPC   H2Y 7248   7.189   4.184   6.392 -1.5609 -1.3718  1.3733
   79SLPC   C23 7249   7.418   3.739   6.051  0.4818 -0.1996  0.2024
   79SLPC   H3R 7250   7.487   3.817   6.011 -0.1903  0.4733  0.3394
   79SLPC   H3S 7251   7.342   3.699   5.980 -0.6423  0.1309  1.2021
   79SLPC   C24 7252   7.503   3.609   6.092 -0.1115 -0.3743  0.3313
   79SLPC   H4R 7253   7.535   3.570   5.993 -0.3644 -0.0698  0.1280
   79SLPC   H4S 7254   7.446   3.532   6.149  0.7027 -1.4453 -0.2675
   79SLPC   C25 7255   7.630   3.647   6.173 -0.2148  1.1842  0.3346
   79SLPC   H5R 7256   7.609   3.683   6.276 -0.6666  0.1894  0.5944
   79SLPC   H5S 7257   7.682   3.720   6.107  0.1454 -0.3287 -1.1045
   79SLPC   C26 7258   7.724   3.520   6.194 -0.5293  0.0449 -0.2490
   79SLPC   H6R 7259   7.722   3.458   6.102 -0.4870 -1.8519  0.9644
   79SLPC   H6S 7260   7.684   3.462   6.279 -1.6545 -3.1718 -2.7565
   79SLPC   C27 7261   7.872   3.546   6.232 -0.2407  0.5131  0.0734
   79SLPC   H7R 7262   7.922   3.629   6.177 -1.7302  1.2766 -0.1754
   79SLPC   H7S 7263   7.919   3.447   6.211 -1.6114 -0.2079  0.3179
   79SLPC   C28 7264   7.897   3.572   6.384 -0.7068  0.7465  0.0377
   79SLPC   H8R 7265   7.836   3.661   6.412  0.8511  1.6035  0.8621
   79SLPC   H8S 7266   8.002   3.609   6.376 -0.4753 -0.3899 -3.8145
   79SLPC   C29 7267   7.872   3.461   6.483 -1.2798  0.1294 -0.4687
   79SLPC   H9R 7268   7.966   3.404   6.486  1.3049  3.8509 -1.9960
   79SLPC  C210 7269   7.763   3.432   6.557  0.0093 -0.0479 -0.0814
   79SLPC  H10R 7270   7.756   3.338   6.614  2.4101  0.6064  1.4418
   79SLPC  C211 7271   7.631   3.508   6.560 -0.4177  0.1792  0.3271
   79SLPC  H11R 7272   7.575   3.496   6.465 -1.7485  0.8693  0.9834
   79SLPC  H11S 7273   7.649   3.617   6.571  0.9441  0.0608 -0.6303
   79SLPC  C212 7274   7.544   3.445   6.672 -0.4426 -0.0962  0.5158
   79SLPC  H12R 7275   7.606   3.413   6.757  1.6841 -1.6958 -1.5307
   79SLPC  C213 7276   7.410   3.414   6.663 -0.9636  0.3012 -0.7053
   79SLPC  H13R 7277   7.360   3.377   6.754  0.8758 -1.3252 -0.2709
   79SLPC  C214 7278   7.314   3.437   6.545  0.8638  0.1880 -0.0810
   79SLPC  H14R 7279   7.276   3.335   6.523  2.9310 -0.1985 -2.2581
   79SLPC  H14S 7280   7.365   3.460   6.450 -0.9290 -0.5144 -1.2641
   79SLPC  C215 7281   7.214   3.547   6.589  0.7417  0.6749 -0.1043
   79SLPC  H15R 7282   7.158   3.517   6.680  0.4934  1.1386 -0.1022
   79SLPC  H15S 7283   7.139   3.548   6.507  0.1596  0.7731  0.4244
   79SLPC  C216 7284   7.269   3.685   6.607  0.0717 -0.0212  0.5912
   79SLPC  H16R 7285   7.340   3.700   6.523 -0.2090  1.6306  0.6123
   79SLPC  H16S 7286   7.320   3.703   6.704  0.4082 -0.2279  0.4570
   79SLPC  C217 7287   7.161   3.794   6.595 -0.8601  0.7847 -0.2728
   79SLPC  H17R 7288   7.092   3.774   6.511 -0.6890 -0.3026 -0.1592
   79SLPC  H17S 7289   7.208   3.894   6.581  0.0050  0.7238  1.6986
   79SLPC  C218 7290   7.070   3.795   6.716  0.1686  0.4829  0.0311
   79SLPC  H18R 7291   7.024   3.698   6.744 -0.0930  0.8433  0.8738
   79SLPC  H18S 7292   6.987   3.867   6.703 -0.5096 -0.2087  0.4756
   79SLPC  H18T 7293   7.132   3.825   6.803  1.3055  0.4535 -0.7428
   79SLPC   C33 7294   7.054   4.303   6.510  0.1914  0.3881  0.1216
   79SLPC   H3X 7295   6.959   4.355   6.483 -0.2722 -1.5767 -2.5378
   79SLPC   H3Y 7296   7.127   4.380   6.540 -0.2462  1.4365 -1.3626
   79SLPC   C34 7297   7.041   4.200   6.618 -0.8405  0.2148  0.0717
   79SLPC   H4X 7298   7.132   4.136   6.627 -1.1534 -0.1765  0.4431
   79SLPC   H4Y 7299   6.960   4.126   6.600 -2.6191  2.6406 -3.0048
   79SLPC   C35 7300   7.037   4.253   6.763 -0.3468  1.0466  0.8223
   79SLPC   H5X 7301   6.953   4.324   6.781 -1.9086 -0.3463 -0.6588
   79SLPC   H5Y 7302   7.125   4.316   6.786  0.5512  0.2052 -0.2504
   79SLPC   C36 7303   7.025   4.141   6.860  0.6097  0.2508 -0.5256
   79SLPC   H6X 7304   7.103   4.064   6.842 -1.3002 -1.4457 -1.9042
   79SLPC   H6Y 7305   6.936   4.078   6.838  2.4013 -1.4737 -3.4236
   79SLPC   C37 7306   7.024   4.192   7.014 -0.2740  0.1955  1.0811
   79SLPC   H7X 7307   6.955   4.278   7.017 -2.0154 -0.9904 -1.5998
   79SLPC   H7Y 7308   7.126   4.226   7.043 -0.0869  1.7679 -1.2000
   79SLPC   C38 7309   6.985   4.095   7.121  0.0477  0.1820 -0.1123
   79SLPC   H8X 7310   7.058   4.012   7.128 -0.0266  0.0862 -0.4485
   79SLPC   H8Y 7311   6.882   4.060   7.099  0.4789  0.3904 -2.9432
   79SLPC   C39 7312   6.983   4.148   7.270  0.3902 -0.0835  0.1278
   79SLPC   H9X 7313   6.927   4.245   7.275 -0.6357 -0.6709  0.3814
   79SLPC   H9Y 7314   7.084   4.188   7.290  0.6936  0.0633 -1.5448
   79SLPC  C310 7315   6.919   4.058   7.378  0.2613 -0.2899 -0.0172
   79SLPC  H10X 7316   6.967   3.960   7.394  0.6036  0.1156  1.5234
   79SLPC  H10Y 7317   6.814   4.031   7.353  0.2910  1.1344 -1.9914
   79SLPC  C311 7318   6.909   4.132   7.508  0.0250 -0.3563  0.2732
   79SLPC  H11X 7319   6.805   4.139   7.546  0.6451 -0.6026  2.1142
   79SLPC  H11Y 7320   6.943   4.237   7.494 -1.0597 -0.2479 -1.9733
   79SLPC  C312 7321   6.988   4.061   7.619 -0.3815 -0.3709 -0.3874
   79SLPC  H12X 7322   7.086   4.045   7.569 -0.6167  1.6538 -1.6195
   79SLPC  H12Y 7323   6.950   3.960   7.644  0.0086 -0.1805  1.0981
   79SLPC  C313 7324   7.009   4.141   7.750 -0.1612 -0.1381  0.7423
   79SLPC  H13X 7325   6.902   4.149   7.777 -0.6796 -0.4338 -1.1440
   79SLPC  H13Y 7326   7.037   4.246   7.726 -2.3766  0.2674 -0.2732
   79SLPC  C314 7327   7.100   4.066   7.852  0.0189 -1.5925  0.0576
   79SLPC  H14X 7328   7.188   4.024   7.798  1.9748  0.8609  1.1170
   79SLPC  H14Y 7329   7.042   3.982   7.897  1.2864 -2.6274 -0.1867
   79SLPC  C315 7330   7.150   4.158   7.971  0.0473  0.2277  0.0297
   79SLPC  H15X 7331   7.172   4.257   7.927  1.4673 -1.4767 -3.4996
   79SLPC  H15Y 7332   7.236   4.107   8.019 -0.5204 -0.0634  0.7396
   79SLPC  C316 7333   7.038   4.179   8.080 -0.1882  0.1047 -0.2556
   79SLPC  H16X 7334   6.956   4.105   8.064 -0.8214  0.4591  1.1939
   79SLPC  H16Y 7335   6.997   4.279   8.056 -1.4337  0.0070  1.2798
   79SLPC  C317 7336   7.095   4.178   8.216  0.0796  0.3751 -0.5372
   79SLPC  H17X 7337   7.033   4.218   8.298  2.2602  2.0087  0.4086
   79SLPC  H17Y 7338   7.180   4.250   8.219  1.7231 -1.4177 -1.5593
   79SLPC  C318 7339   7.139   4.037   8.265 -0.3705 -0.8168  0.3359
   79SLPC  H18X 7340   7.200   3.980   8.192  0.2558 -0.1510  0.3214
   79SLPC  H18Y 7341   7.041   3.988   8.283 -0.4478  0.0332  2.5240
   79SLPC  H18Z 7342   7.185   4.052   8.365  0.9532  1.0242 -0.4833
   80SLPC     N 7343   6.784   1.564   5.537 -0.1387  0.2753 -0.5751
   80SLPC   C13 7344   6.853   1.696   5.509 -0.1534 -0.4933  0.1466
   80SLPC  H13A 7345   6.916   1.735   5.588  1.5278  2.1441 -2.3260
   80SLPC  H13B 7346   6.926   1.682   5.431 -0.5985  0.6493 -0.4999
   80SLPC  H13C 7347   6.785   1.774   5.477  0.6249  0.1672  0.0688
   80SLPC   C14 7348   6.722   1.520   5.408  0.0326  0.0782 -0.0100
   80SLPC  H14A 7349   6.793   1.470   5.344 -1.0551  1.5300 -2.4784
   80SLPC  H14B 7350   6.649   1.446   5.439  0.8023 -0.5149  0.4043
   80SLPC  H14C 7351   6.683   1.606   5.356  0.8131  1.1189  1.0620
   80SLPC   C15 7352   6.663   1.582   5.636  0.1472  0.4481 -0.5147
   80SLPC  H15A 7353   6.683   1.659   5.709  2.0846  1.3627 -1.9112
   80SLPC  H15B 7354   6.583   1.627   5.579 -0.3975  1.5986  1.1102
   80SLPC  H15C 7355   6.629   1.494   5.689  2.4593 -0.9436 -1.2031
   80SLPC   C12 7356   6.884   1.462   5.592 -0.4866  0.6400  0.2255
   80SLPC  H12A 7357   6.959   1.448   5.516 -0.0279 -0.1164  0.7986
   80SLPC  H12B 7358   6.843   1.362   5.601  2.4988 -0.7279 -0.1529
   80SLPC   C11 7359   6.942   1.494   5.731 -0.9753  0.3429  0.4981
   80SLPC  H11A 7360   6.970   1.395   5.770  4.0268 -0.5466 -4.1683
   80SLPC  H11B 7361   6.868   1.541   5.800 -0.3282  2.8718 -0.4107
   80SLPC     P 7362   7.172   1.629   5.794  0.1141 -0.2456  0.2412
   80SLPC   O13 7363   7.299   1.563   5.747  0.2386 -0.5613  0.0685
   80SLPC   O14 7364   7.166   1.775   5.781 -0.4280  0.7162 -0.0615
   80SLPC   O12 7365   7.058   1.571   5.707 -0.7696  0.3469  0.6640
   80SLPC   O11 7366   7.141   1.588   5.945 -0.1048 -0.5924 -0.2017
   80SLPC    C1 7367   7.255   1.587   6.037  0.3543 -1.2091  0.7451
   80SLPC    HA 7368   7.351   1.557   5.989  0.5618  1.7971 -0.9743
   80SLPC    HB 7369   7.273   1.693   6.062  1.0294 -1.1807  0.1743
   80SLPC    C2 7370   7.235   1.525   6.177 -0.1716 -0.6549  0.4900
   80SLPC    HS 7371   7.128   1.495   6.180 -1.6278  3.8078  1.5413
   80SLPC   O21 7372   7.257   1.627   6.277 -0.5191 -0.6716  0.6547
   80SLPC   C21 7373   7.174   1.621   6.377 -0.5433  0.5535 -0.2180
   80SLPC   O22 7374   7.082   1.541   6.394  0.3444 -0.1029 -0.1207
   80SLPC   C22 7375   7.203   1.740   6.471  0.8644 -0.0423  0.2670
   80SLPC   H2R 7376   7.304   1.719   6.514  1.5291 -0.0603 -1.2360
   80SLPC   H2S 7377   7.205   1.836   6.415  0.0371  0.6971  1.4525
   80SLPC    C3 7378   7.321   1.403   6.201 -0.7081  0.4651  0.6520
   80SLPC    HX 7379   7.429   1.427   6.193 -0.4587 -0.8460 -0.2886
   80SLPC    HY 7380   7.311   1.335   6.113 -2.1567  0.4428  0.8039
   80SLPC   O31 7381   7.295   1.348   6.331 -0.2001  0.6133 -0.4244
   80SLPC   C31 7382   7.198   1.252   6.332  0.0835 -0.2254 -0.3786
   80SLPC   O32 7383   7.129   1.224   6.237  0.3715 -0.0059 -0.1194
   80SLPC   C32 7384   7.207   1.180   6.461 -0.6278 -0.2351 -0.3217
   80SLPC   H2X 7385   7.303   1.125   6.471 -0.6200 -0.2932 -0.6923
   80SLPC   H2Y 7386   7.127   1.104   6.448 -0.9389  0.2214 -1.1829
   80SLPC   C23 7387   7.088   1.772   6.566 -0.4291 -0.3664  0.0119
   80SLPC   H3R 7388   6.990   1.783   6.514 -0.4186 -0.0672  0.0533
   80SLPC   H3S 7389   7.108   1.873   6.606 -0.3708 -0.6645  0.7376
   80SLPC   C24 7390   7.083   1.685   6.684  0.0904  0.2866 -0.2394
   80SLPC   H4R 7391   7.182   1.663   6.729  0.5689  0.8118 -1.0117
   80SLPC   H4S 7392   7.030   1.590   6.661 -1.4042  0.7000  1.2398
   80SLPC   C25 7393   6.998   1.748   6.804  0.6259 -0.0827 -0.2317
   80SLPC   H5R 7394   7.039   1.843   6.846 -1.1131  0.1720  0.9936
   80SLPC   H5S 7395   7.011   1.678   6.889 -1.4574 -0.2158  0.0230
   80SLPC   C26 7396   6.844   1.757   6.766  0.0218  0.6699  0.1534
   80SLPC   H6R 7397   6.801   1.670   6.713 -0.9222  1.0743  0.2283
   80SLPC   H6S 7398   6.837   1.844   6.697  2.0939  1.7487  1.2071
   80SLPC   C27 7399   6.757   1.791   6.894  0.1695  0.0790 -0.2219
   80SLPC   H7R 7400   6.658   1.797   6.843 -0.1941 -0.9061  0.3292
   80SLPC   H7S 7401   6.777   1.886   6.947 -2.0235 -1.4798  3.8939
   80SLPC   C28 7402   6.768   1.681   7.002 -0.7624  0.4773 -0.5234
   80SLPC   H8R 7403   6.867   1.678   7.052 -1.7137 -1.9743  1.4161
   80SLPC   H8S 7404   6.762   1.587   6.943  0.1401 -0.1955  0.4371
   80SLPC   C29 7405   6.653   1.684   7.097  0.7229 -0.2484  0.2962
   80SLPC   H9R 7406   6.567   1.620   7.074  2.1988 -2.1011 -0.3103
   80SLPC  C210 7407   6.650   1.739   7.219  0.2431 -0.0301  0.6417
   80SLPC  H10R 7408   6.561   1.736   7.283 -0.2915  1.4077  0.0145
   80SLPC  C211 7409   6.766   1.803   7.289  0.0576  0.1123  0.1385
   80SLPC  H11R 7410   6.760   1.912   7.268 -0.5948 -0.0729 -0.7007
   80SLPC  H11S 7411   6.867   1.769   7.257  0.7030  0.6875  1.4982
   80SLPC  C212 7412   6.765   1.762   7.438 -0.0796 -0.0347  0.3202
   80SLPC  H12R 7413   6.820   1.669   7.458  2.9411  1.4922 -0.2903
   80SLPC  C213 7414   6.720   1.823   7.545  0.5617 -0.5801 -0.0810
   80SLPC  H13R 7415   6.708   1.764   7.638  0.4247 -0.3633  0.0387
   80SLPC  C214 7416   6.644   1.952   7.531 -0.7520  0.4662 -0.4546
   80SLPC  H14R 7417   6.560   1.958   7.603  1.8181  2.4070  2.6426
   80SLPC  H14S 7418   6.591   1.959   7.434 -0.0546 -2.2872 -1.1234
   80SLPC  C215 7419   6.721   2.086   7.549  0.1020  0.5444  0.4046
   80SLPC  H15R 7420   6.642   2.164   7.553 -2.0795 -1.4935 -0.1426
   80SLPC  H15S 7421   6.770   2.116   7.454  1.9978  1.8522  1.7228
   80SLPC  C216 7422   6.808   2.095   7.670  0.0108 -0.0108  0.2469
   80SLPC  H16R 7423   6.878   2.008   7.672 -1.1013 -0.9290  0.3271
   80SLPC  H16S 7424   6.736   2.077   7.753 -2.2082  0.2958 -1.5040
   80SLPC  C217 7425   6.885   2.220   7.681 -0.3129 -0.7874 -0.1245
   80SLPC  H17R 7426   6.924   2.250   7.581  0.3308  1.2024  0.6781
   80SLPC  H17S 7427   6.972   2.200   7.747  0.1191 -2.7813 -1.2158
   80SLPC  C218 7428   6.808   2.341   7.741 -0.0545 -0.3659  0.7892
   80SLPC  H18R 7429   6.776   2.330   7.847  0.9245 -0.9442  1.0308
   80SLPC  H18S 7430   6.716   2.364   7.682  0.3058 -2.3492 -0.6550
   80SLPC  H18T 7431   6.875   2.428   7.724  0.8654 -1.0774  0.7396
   80SLPC   C33 7432   7.179   1.278   6.583 -0.3356 -0.5085  0.7980
   80SLPC   H3X 7433   7.159   1.213   6.671 -0.0736  0.0204  1.2533
   80SLPC   H3Y 7434   7.088   1.341   6.578  0.1457  0.4011  2.6850
   80SLPC   C34 7435   7.291   1.370   6.624  0.3017  0.1990 -0.0324
   80SLPC   H4X 7436   7.291   1.466   6.567  3.0015 -0.6826 -1.6973
   80SLPC   H4Y 7437   7.377   1.316   6.579 -0.7604 -2.5116  0.9681
   80SLPC   C35 7438   7.308   1.390   6.772  0.3666  0.1284  0.3132
   80SLPC   H5X 7439   7.333   1.292   6.819 -1.8833 -1.4434 -1.5556
   80SLPC   H5Y 7440   7.211   1.420   6.816  0.9826 -0.6215  2.3212
   80SLPC   C36 7441   7.416   1.489   6.806 -0.9708  0.2009  0.3139
   80SLPC   H6X 7442   7.402   1.581   6.745 -0.3266 -1.0391 -1.8066
   80SLPC   H6Y 7443   7.512   1.446   6.771 -1.2487 -0.0005 -0.2058
   80SLPC   C37 7444   7.400   1.529   6.958  0.9880 -0.2371  0.5344
   80SLPC   H7X 7445   7.290   1.540   6.974  0.4887 -0.5336 -2.1097
   80SLPC   H7Y 7446   7.449   1.623   6.989 -0.2298  0.4943  0.3097
   80SLPC   C38 7447   7.452   1.414   7.044 -0.7622  0.5745  0.3118
   80SLPC   H8X 7448   7.397   1.319   7.028  0.8598 -0.2230 -0.7002
   80SLPC   H8Y 7449   7.431   1.442   7.150  1.1205 -2.0494  1.4927
   80SLPC   C39 7450   7.600   1.395   7.025 -0.1775 -0.0731  0.1720
   80SLPC   H9X 7451   7.647   1.496   7.024 -2.5320  1.0858  0.8467
   80SLPC   H9Y 7452   7.608   1.348   6.924 -1.6586  0.1892 -0.0862
   80SLPC  C310 7453   7.658   1.303   7.137 -0.1127 -0.1939 -0.2255
   80SLPC  H10X 7454   7.592   1.216   7.155 -0.2542  0.2275  1.4773
   80SLPC  H10Y 7455   7.660   1.369   7.227 -0.1608 -1.1027  0.4516
   80SLPC  C311 7456   7.802   1.244   7.106 -0.0063  0.5373 -1.1072
   80SLPC  H11X 7457   7.869   1.331   7.091 -1.6710  1.8241 -1.3598
   80SLPC  H11Y 7458   7.786   1.198   7.006  0.6477  0.8320 -1.3540
   80SLPC  C312 7459   7.852   1.146   7.210 -0.2527 -1.1279 -0.1796
   80SLPC  H12X 7460   7.952   1.114   7.174 -0.4079 -1.0665 -0.6726
   80SLPC  H12Y 7461   7.786   1.058   7.220  1.8088 -2.6253  1.0916
   80SLPC  C313 7462   7.869   1.214   7.347  0.4313  0.4176  0.7650
   80SLPC  H13X 7463   7.768   1.231   7.393  0.6024  0.1095  1.2666
   80SLPC  H13Y 7464   7.914   1.315   7.341 -1.1756  1.1731  0.7708
   80SLPC  C314 7465   7.947   1.124   7.438 -0.2513  0.7502 -0.1987
   80SLPC  H14X 7466   8.046   1.101   7.394  0.3590  2.2937  0.3075
   80SLPC  H14Y 7467   7.901   1.023   7.449  0.0275  0.5949 -0.4507
   80SLPC  C315 7468   7.969   1.187   7.578  0.0471 -0.9730  0.0816
   80SLPC  H15X 7469   7.871   1.225   7.613 -1.1221 -2.0732 -1.7967
   80SLPC  H15Y 7470   8.038   1.273   7.565  0.4663 -1.1935  0.7995
   80SLPC  C316 7471   8.041   1.088   7.671 -0.2077  0.9098  0.2051
   80SLPC  H16X 7472   8.110   1.028   7.608 -0.8979  1.0060 -0.6623
   80SLPC  H16Y 7473   7.971   1.024   7.729  0.4361  1.1445  1.2701
   80SLPC  C317 7474   8.124   1.156   7.785  0.5696 -0.9977  0.0839
   80SLPC  H17X 7475   8.196   1.233   7.751 -0.2942 -0.7894 -1.3552
   80SLPC  H17Y 7476   8.173   1.074   7.841  1.8584 -0.5102 -0.2908
   80SLPC  C318 7477   8.020   1.218   7.883  0.0469  0.3150  0.2163
   80SLPC  H18X 7478   7.994   1.320   7.847 -0.9138 -0.2526 -0.7742
   80SLPC  H18Y 7479   8.064   1.225   7.985 -3.0523 -2.4505  1.9271
   80SLPC  H18Z 7480   7.922   1.166   7.888 -0.2475 -0.2433 -5.2543
   81SAPS     N 7481   4.147   4.841  10.105  0.2357  0.9209 -0.2866
   81SAPS   HN1 7482   4.128   4.942  10.088  2.6502  1.3408 -0.8739
   81SAPS   HN2 7483   4.156   4.829  10.207  1.4330 -2.0309 -0.6463
   81SAPS   HN3 7484   4.238   4.813  10.064  0.4346  1.2916 -0.0994
   81SAPS   C12 7485   4.039   4.752  10.039 -0.0497 -0.6290  0.5286
   81SAPS  H12A 7486   4.065   4.657  10.082  2.0641  0.9566  3.0390
   81SAPS   C13 7487   3.898   4.796  10.091  0.4104  1.1387  0.1964
   81SAPS  O13A 7488   3.891   4.884  10.182 -0.2275 -0.4089  0.1878
   81SAPS  O13B 7489   3.803   4.722  10.076  0.1397  0.3124  0.4276
   81SAPS   C11 7490   4.043   4.767   9.885  0.0350  0.0536 -0.7912
   81SAPS  H11A 7491   4.014   4.868   9.849  1.4503 -0.8643 -5.0939
   81SAPS  H11B 7492   3.966   4.696   9.848 -2.0115  2.2317 -0.9559
   81SAPS     P 7493   4.239   4.789   9.706 -0.0087  0.7067  0.0326
   81SAPS   O13 7494   4.263   4.933   9.711  0.6275  0.1185 -0.3782
   81SAPS   O14 7495   4.367   4.709   9.686 -0.4119 -0.4996 -0.5998
   81SAPS   O12 7496   4.172   4.738   9.837 -0.2812 -0.1640  0.1655
   81SAPS   O11 7497   4.135   4.753   9.596 -0.0461 -0.5260  0.2194
   81SAPS    C1 7498   4.159   4.647   9.509  0.5453 -0.7944 -0.2882
   81SAPS    HA 7499   4.235   4.678   9.434  0.0287 -2.4496 -1.5804
   81SAPS    HB 7500   4.187   4.551   9.558  1.7433 -0.4365 -0.2484
   81SAPS    C2 7501   4.031   4.626   9.424 -0.5347 -0.1506 -0.5045
   81SAPS    HS 7502   3.961   4.548   9.462  1.3659 -2.1452 -0.8390
   81SAPS   O21 7503   4.088   4.578   9.296  0.3486 -0.3096  0.7041
   81SAPS   C21 7504   4.082   4.447   9.282 -0.6610  0.2738  0.4477
   81SAPS   O22 7505   4.024   4.367   9.352 -0.3666  0.0486 -0.1603
   81SAPS   C22 7506   4.160   4.398   9.165  0.0573 -0.2696 -0.3107
   81SAPS   H2R 7507   4.106   4.315   9.115  0.6854 -1.2649  0.6100
   81SAPS   H2S 7508   4.178   4.490   9.107  1.4005  0.4247  1.1225
   81SAPS    C3 7509   3.953   4.759   9.408 -0.5599  1.2293  0.0873
   81SAPS    HX 7510   4.027   4.838   9.388 -0.0791  0.4479 -1.3798
   81SAPS    HY 7511   3.910   4.785   9.507 -1.6748  1.2544 -0.3859
   81SAPS   O31 7512   3.860   4.760   9.299  0.3086 -0.1395  0.1029
   81SAPS   C31 7513   3.747   4.689   9.339 -0.4227 -0.2660  0.3727
   81SAPS   O32 7514   3.716   4.653   9.451 -0.3578 -0.3045 -0.0246
   81SAPS   C32 7515   3.652   4.673   9.216 -0.0376 -0.1358  0.0621
   81SAPS   H2X 7516   3.653   4.769   9.160 -0.3595  1.6301  2.8533
   81SAPS   H2Y 7517   3.551   4.658   9.260 -0.0307 -1.4744 -0.3386
   81SAPS   C23 7518   4.301   4.342   9.213  0.0110 -0.2147 -0.5105
   81SAPS   H3R 7519   4.294   4.256   9.284 -0.9581 -1.0513 -1.5821
   81SAPS   H3S 7520   4.359   4.422   9.264  1.3149 -1.7889  0.5666
   81SAPS   C24 7521   4.367   4.290   9.089 -0.0946  0.0356  1.0167
   81SAPS   H4R 7522   4.302   4.236   9.016  2.9613 -2.4796 -0.0451
   81SAPS   H4S 7523   4.437   4.214   9.129  0.4122  0.6269  1.2797
   81SAPS   C25 7524   4.454   4.386   9.014 -0.4150 -0.2671 -0.4447
   81SAPS   H5R 7525   4.512   4.458   9.074 -0.9796  0.3080 -0.5795
   81SAPS   C26 7526   4.463   4.400   8.876 -0.5512  0.7068 -0.2171
   81SAPS   H6R 7527   4.529   4.483   8.846  1.8842 -1.1458 -0.3346
   81SAPS   C27 7528   4.398   4.315   8.775 -0.0590  0.1620 -0.7783
   81SAPS   H7R 7529   4.289   4.337   8.778 -1.0191 -3.7048 -1.8007
   81SAPS   H7S 7530   4.406   4.209   8.807  0.7571  0.8106  1.3926
   81SAPS   C28 7531   4.467   4.331   8.648 -0.0454 -0.1521 -0.3685
   81SAPS   H8R 7532   4.562   4.278   8.635  1.8315  3.1258 -1.3560
   81SAPS   C29 7533   4.417   4.383   8.538  0.0649  0.5412  0.8788
   81SAPS   H9R 7534   4.479   4.395   8.448  0.1682 -0.8682  0.7444
   81SAPS  C210 7535   4.275   4.431   8.528 -0.1891  0.1217  0.3030
   81SAPS  H10R 7536   4.268   4.484   8.430 -1.4356 -2.1103 -0.9044
   81SAPS  H10S 7537   4.250   4.510   8.602  1.0345  0.7420  0.0743
   81SAPS  C211 7538   4.153   4.341   8.540  0.5939  1.0681 -0.0116
   81SAPS  H11R 7539   4.150   4.284   8.634  0.8043 -0.8329 -1.0950
   81SAPS  C212 7540   4.053   4.328   8.452 -0.5222  0.4309 -0.1055
   81SAPS  H12R 7541   3.967   4.262   8.473 -0.0908 -0.4071 -0.9369
   81SAPS  C213 7542   4.042   4.397   8.316  0.0118 -0.2788 -0.0566
   81SAPS  H13R 7543   4.108   4.341   8.247 -1.2047 -1.7846 -0.0290
   81SAPS  H13S 7544   4.091   4.497   8.318 -0.4592 -0.0390  1.5997
   81SAPS  C214 7545   3.902   4.414   8.250 -0.8598  0.0987 -0.4211
   81SAPS  H14R 7546   3.822   4.398   8.323 -0.1317  1.8018  0.8003
   81SAPS  C215 7547   3.864   4.457   8.125 -0.1901 -0.9558 -0.5307
   81SAPS  H15R 7548   3.758   4.461   8.096 -0.7265 -2.4098  1.1075
   81SAPS  C216 7549   3.956   4.499   8.011  0.1886  0.4522 -0.1172
   81SAPS  H16R 7550   4.061   4.474   8.032  1.0135  2.0636 -1.9737
   81SAPS  H16S 7551   3.943   4.609   8.002 -0.6161  0.5553  1.6679
   81SAPS  C217 7552   3.920   4.419   7.882 -0.2902 -0.5115 -0.2420
   81SAPS  H17R 7553   3.813   4.427   7.856 -0.5194  1.4916  1.0591
   81SAPS  H17S 7554   3.940   4.312   7.904 -0.4229 -0.1389  1.9821
   81SAPS  C218 7555   3.995   4.473   7.762  0.1584  0.8399 -0.7491
   81SAPS  H18R 7556   3.984   4.582   7.745 -1.3797  0.8620  0.2240
   81SAPS  H18S 7557   3.956   4.412   7.677 -0.2340  1.2615 -0.8786
   81SAPS  C219 7558   4.145   4.438   7.762  0.6930  0.2514 -0.3872
   81SAPS  H19R 7559   4.184   4.511   7.836 -0.6399  0.0151  0.5910
   81SAPS  H19S 7560   4.191   4.469   7.666  1.2823  1.7598  0.3555
   81SAPS  C220 7561   4.203   4.301   7.799  0.2715 -0.7988 -0.2384
   81SAPS  H20R 7562   4.163   4.220   7.735  1.0983 -1.2457 -0.2034
   81SAPS  H20S 7563   4.191   4.285   7.908  0.2502  1.2112  0.0966
   81SAPS  H20T 7564   4.312   4.303   7.778 -0.1015  0.1633 -2.3348
   81SAPS   C33 7565   3.688   4.547   9.136  0.0501  0.0028  0.0831
   81SAPS   H3X 7566   3.792   4.557   9.100  0.0987 -0.1846  0.1728
   81SAPS   H3Y 7567   3.620   4.548   9.048 -2.0096  0.1170  1.6076
   81SAPS   C34 7568   3.671   4.419   9.222  0.1792 -0.3624  0.1854
   81SAPS   H4X 7569   3.567   4.425   9.260 -0.0764  2.7233 -0.7559
   81SAPS   H4Y 7570   3.746   4.403   9.302 -0.3271 -3.3773  0.1693
   81SAPS   C35 7571   3.680   4.292   9.128  0.3272 -0.4385 -0.2721
   81SAPS   H5X 7572   3.586   4.312   9.071 -1.0115  0.3068  2.0675
   81SAPS   H5Y 7573   3.673   4.200   9.191  2.0140  0.5113  1.3856
   81SAPS   C36 7574   3.797   4.279   9.034 -0.9363  0.0900  0.4417
   81SAPS   H6X 7575   3.893   4.296   9.088 -0.3940 -2.6884  0.5104
   81SAPS   H6Y 7576   3.797   4.367   8.966  0.6498  0.1941  0.5362
   81SAPS   C37 7577   3.804   4.145   8.960  0.4248  0.2007 -0.1577
   81SAPS   H7X 7578   3.710   4.121   8.905  0.6115  1.1769 -0.9294
   81SAPS   H7Y 7579   3.827   4.070   9.039 -0.7854  1.9853  2.0304
   81SAPS   C38 7580   3.919   4.141   8.858 -0.1124  0.3931 -0.3133
   81SAPS   H8X 7581   4.012   4.162   8.916 -0.9245 -1.4677  1.8212
   81SAPS   H8Y 7582   3.915   4.221   8.781  0.8635 -0.5095 -1.3467
   81SAPS   C39 7583   3.940   4.000   8.791  0.0335  0.6806  0.3156
   81SAPS   H9X 7584   3.853   3.979   8.725  0.3641 -1.7744  0.5547
   81SAPS   H9Y 7585   3.947   3.913   8.859 -1.3398 -0.3016 -0.7301
   81SAPS  C310 7586   4.048   3.998   8.684 -0.3244  0.8069  0.3731
   81SAPS  H10X 7587   4.142   4.044   8.722 -0.1035  2.0177 -1.5104
   81SAPS  H10Y 7588   4.007   4.071   8.610 -0.1160  0.6683  0.1175
   81SAPS  C311 7589   4.070   3.855   8.632 -0.0213 -0.0210  0.0387
   81SAPS  H11X 7590   3.987   3.819   8.567 -0.1995  1.2894 -0.4798
   81SAPS  H11Y 7591   4.066   3.778   8.712 -2.1092 -1.3482 -1.2273
   81SAPS  C312 7592   4.189   3.835   8.541 -0.6908  0.1922 -0.2254
   81SAPS  H12X 7593   4.180   3.735   8.494 -0.9725  0.4974 -0.8269
   81SAPS  H12Y 7594   4.281   3.864   8.597 -1.4035 -0.8165  1.5619
   81SAPS  C313 7595   4.193   3.946   8.430  0.0629 -0.5220 -0.1842
   81SAPS  H13X 7596   4.231   4.038   8.478 -2.0588 -0.1251  0.8771
   81SAPS  H13Y 7597   4.093   3.981   8.395  0.6750  1.9808  0.3781
   81SAPS  C314 7598   4.278   3.900   8.308  0.0073  0.1414 -0.7421
   81SAPS  H14X 7599   4.261   3.792   8.289 -0.4507  0.1333 -0.3354
   81SAPS  H14Y 7600   4.382   3.896   8.347 -0.2313 -1.0291 -0.1602
   81SAPS  C315 7601   4.265   3.991   8.182 -0.2274  0.1272  0.2899
   81SAPS  H15X 7602   4.258   4.099   8.209 -2.1666  0.8772 -2.7875
   81SAPS  H15Y 7603   4.168   3.963   8.137 -0.2157  0.6251 -0.0550
   81SAPS  C316 7604   4.376   3.959   8.080 -0.2428  0.4665  0.5772
   81SAPS  H16X 7605   4.465   3.914   8.129 -1.0552 -1.3279  0.4788
   81SAPS  H16Y 7606   4.399   4.048   8.017  0.5040 -0.8281 -1.0636
   81SAPS  C317 7607   4.319   3.848   7.981  1.1997  1.0982 -0.5345
   81SAPS  H17X 7608   4.227   3.896   7.941 -0.7786 -3.2376 -1.7954
   81SAPS  H17Y 7609   4.289   3.759   8.041  2.1460 -0.3533 -2.1524
   81SAPS  C318 7610   4.408   3.805   7.870  0.1877  0.7919 -0.4736
   81SAPS  H18X 7611   4.494   3.748   7.911 -2.3396 -0.9936  2.9804
   81SAPS  H18Y 7612   4.443   3.887   7.805 -0.8644  0.7956 -1.0572
   81SAPS  H18Z 7613   4.357   3.739   7.796  1.6858  1.3620 -2.0720
   82SAPS     N 7614   2.494   3.168   9.914 -0.2754  0.0485 -0.4154
   82SAPS   HN1 7615   2.598   3.165   9.918 -0.3156 -0.7251  0.7661
   82SAPS   HN2 7616   2.468   3.077   9.871  0.6838 -1.1665  1.4190
   82SAPS   HN3 7617   2.460   3.238   9.845 -0.4464  0.6280  0.2417
   82SAPS   C12 7618   2.421   3.177  10.048 -0.5206  0.0785  0.4917
   82SAPS  H12A 7619   2.435   3.081  10.095 -0.9449  0.2678  1.0095
   82SAPS   C13 7620   2.474   3.294  10.140 -0.2486  0.2468  0.1056
   82SAPS  O13A 7621   2.555   3.384  10.099 -0.3436  0.2871  0.0751
   82SAPS  O13B 7622   2.427   3.308  10.254 -0.1240  0.2834  0.3460
   82SAPS   C11 7623   2.264   3.200  10.026  0.0002 -0.3117 -0.6600
   82SAPS  H11A 7624   2.230   3.203  10.131  0.0415  1.6666 -0.6753
   82SAPS  H11B 7625   2.228   3.110   9.970 -0.6797  0.2770 -1.1868
   82SAPS     P 7626   2.207   3.337   9.808  0.2109 -0.0770 -0.0321
   82SAPS   O13 7627   2.339   3.330   9.737 -0.2395  0.1458  0.8553
   82SAPS   O14 7628   2.104   3.239   9.772  0.1072  0.3939 -0.1511
   82SAPS   O12 7629   2.229   3.321   9.961 -0.1775 -0.3081 -0.1084
   82SAPS   O11 7630   2.152   3.484   9.805  0.0520  0.6737 -0.5348
   82SAPS    C1 7631   2.153   3.566   9.689  0.1878  0.0128 -0.6617
   82SAPS    HA 7632   2.123   3.669   9.717 -1.6560 -0.4212 -0.9022
   82SAPS    HB 7633   2.253   3.578   9.641  1.1590 -0.3183  1.2111
   82SAPS    C2 7634   2.051   3.516   9.584 -0.0684 -0.4462  0.1861
   82SAPS    HS 7635   1.964   3.472   9.637  0.8009  0.4725  2.4926
   82SAPS   O21 7636   2.108   3.419   9.501 -0.4868 -0.1047 -0.6285
   82SAPS   C21 7637   2.024   3.335   9.431 -0.0955 -0.1533 -0.1624
   82SAPS   O22 7638   1.901   3.342   9.451 -0.3553  0.3875 -0.0466
   82SAPS   C22 7639   2.101   3.252   9.332 -0.5647 -0.0388  0.4061
   82SAPS   H2R 7640   2.128   3.318   9.247 -0.8997 -0.7902 -0.2934
   82SAPS   H2S 7641   2.196   3.222   9.382  0.8116  1.5718 -1.1366
   82SAPS    C3 7642   2.000   3.636   9.500 -0.4428 -0.7975  1.4521
   82SAPS    HX 7643   1.949   3.699   9.577 -3.0167 -0.8133 -0.1203
   82SAPS    HY 7644   1.924   3.600   9.427  0.8192  1.7125 -1.3076
   82SAPS   O31 7645   2.112   3.716   9.449  0.0697 -0.6658 -0.2734
   82SAPS   C31 7646   2.146   3.681   9.321 -0.1252  0.1290  0.2378
   82SAPS   O32 7647   2.064   3.634   9.241 -0.3069 -0.3454 -0.4430
   82SAPS   C32 7648   2.291   3.749   9.293 -0.0537  0.0408  0.3222
   82SAPS   H2X 7649   2.366   3.693   9.354 -1.0276 -1.0920  0.5148
   82SAPS   H2Y 7650   2.277   3.844   9.349 -1.5299 -1.0582  1.9615
   82SAPS   C23 7651   2.021   3.128   9.285 -0.2115  0.3535 -0.2509
   82SAPS   H3R 7652   1.984   3.062   9.366  1.4919 -0.1245  0.1824
   82SAPS   H3S 7653   2.099   3.061   9.241 -0.6631  0.1662 -0.7799
   82SAPS   C24 7654   1.914   3.151   9.177  0.0986  0.3436 -0.9492
   82SAPS   H4R 7655   1.843   3.223   9.224  1.6064 -0.1802  2.4365
   82SAPS   H4S 7656   1.858   3.057   9.158 -2.6289  1.8627 -0.9134
   82SAPS   C25 7657   1.968   3.211   9.049  0.3815  0.4757 -0.1646
   82SAPS   H5R 7658   1.992   3.318   9.049 -1.6356  0.9806 -1.2799
   82SAPS   C26 7659   2.004   3.132   8.942  0.0576  0.5210 -0.4998
   82SAPS   H6R 7660   2.047   3.189   8.859  0.6219  4.5501  2.2909
   82SAPS   C27 7661   1.996   2.980   8.935  0.1605  0.4146  0.2619
   82SAPS   H7R 7662   2.029   2.935   9.031 -1.1480  1.6883  1.3523
   82SAPS   H7S 7663   2.067   2.947   8.856 -1.2134  2.0594 -1.7594
   82SAPS   C28 7664   1.856   2.937   8.908  0.7904 -0.6492 -0.2323
   82SAPS   H8R 7665   1.781   2.975   8.979  1.8417 -2.0717  1.7435
   82SAPS   C29 7666   1.817   2.844   8.821  0.0963 -0.3930  0.1126
   82SAPS   H9R 7667   1.718   2.795   8.827 -0.6053  0.9776  0.0244
   82SAPS  C210 7668   1.916   2.771   8.734  0.3718 -0.1296 -0.6962
   82SAPS  H10R 7669   1.870   2.672   8.716  0.6506 -0.4870  0.4765
   82SAPS  H10S 7670   2.007   2.747   8.793 -1.2134  0.2747  2.0514
   82SAPS  C211 7671   1.946   2.845   8.605  0.4007 -0.0431 -0.2658
   82SAPS  H11R 7672   1.956   2.954   8.616  3.3601 -0.1462 -1.0581
   82SAPS  C212 7673   1.958   2.798   8.479  0.1363  0.3581 -0.2504
   82SAPS  H12R 7674   1.978   2.866   8.395 -1.3804  1.3767  0.1689
   82SAPS  C213 7675   1.939   2.647   8.447  0.5534  0.3531  0.0737
   82SAPS  H13R 7676   1.834   2.647   8.409  1.0674  2.8151 -1.6052
   82SAPS  H13S 7677   1.939   2.574   8.531 -1.6753 -0.4539 -0.5654
   82SAPS  C214 7678   2.044   2.601   8.346 -0.6382 -0.3538  1.1132
   82SAPS  H14R 7679   2.149   2.627   8.368 -0.3339 -1.5607  1.1959
   82SAPS  C215 7680   2.035   2.529   8.231  0.4420 -0.3935  0.4542
   82SAPS  H15R 7681   2.123   2.495   8.173 -0.8660 -1.6150 -0.8976
   82SAPS  C216 7682   1.909   2.479   8.170  0.5555  0.9670 -0.6381
   82SAPS  H16R 7683   1.826   2.478   8.244  2.0202  0.5368  1.0423
   82SAPS  H16S 7684   1.933   2.372   8.149  1.0752  0.2584  2.9704
   82SAPS  C217 7685   1.873   2.560   8.047 -0.1554  0.3102  0.3244
   82SAPS  H17R 7686   1.823   2.653   8.081 -0.7510  0.5492 -1.1333
   82SAPS  H17S 7687   1.792   2.500   8.002 -0.3419  1.5781 -1.1115
   82SAPS  C218 7688   1.984   2.581   7.941  0.3390  0.3832  0.4421
   82SAPS  H18R 7689   2.081   2.604   7.990  0.0510  1.0914  0.7010
   82SAPS  H18S 7690   1.947   2.668   7.884 -0.2945 -0.0709  0.1563
   82SAPS  C219 7691   2.001   2.459   7.854 -0.4541  0.0469 -0.3194
   82SAPS  H19R 7692   2.005   2.370   7.920 -2.2059 -0.3674 -0.7308
   82SAPS  H19S 7693   2.090   2.465   7.788 -0.8315  0.7074 -0.7763
   82SAPS  C220 7694   1.880   2.447   7.763 -0.3046 -0.4398  0.1705
   82SAPS  H20R 7695   1.924   2.430   7.662  0.9352 -0.2559  0.6604
   82SAPS  H20S 7696   1.825   2.543   7.759  0.8223  0.2072 -0.5049
   82SAPS  H20T 7697   1.815   2.358   7.776  3.3311 -3.2952  0.4998
   82SAPS   C33 7698   2.337   3.762   9.146 -0.5492 -0.6664  0.3781
   82SAPS   H3X 7699   2.268   3.829   9.089  0.3093  0.3272  0.4665
   82SAPS   H3Y 7700   2.332   3.659   9.104 -0.6739 -0.4886 -0.0521
   82SAPS   C34 7701   2.478   3.825   9.132  0.0815 -0.2342 -0.1536
   82SAPS   H4X 7702   2.540   3.780   9.213 -0.0674  0.9164  0.6185
   82SAPS   H4Y 7703   2.469   3.933   9.156  0.1079 -0.4521  0.8788
   82SAPS   C35 7704   2.546   3.794   9.001  0.2806 -0.2473 -0.0307
   82SAPS   H5X 7705   2.552   3.684   8.992  0.5256 -0.2083 -0.3634
   82SAPS   H5Y 7706   2.651   3.830   8.997  0.9060 -2.0732 -1.1942
   82SAPS   C36 7707   2.459   3.836   8.884 -0.1946  0.6531  0.4660
   82SAPS   H6X 7708   2.442   3.946   8.882  2.5120  1.1590  0.6564
   82SAPS   H6Y 7709   2.361   3.785   8.872 -1.2372  2.9857 -2.4164
   82SAPS   C37 7710   2.529   3.799   8.750 -0.0117  0.0240 -0.1005
   82SAPS   H7X 7711   2.554   3.691   8.743 -3.1606 -0.7558 -0.5255
   82SAPS   H7Y 7712   2.621   3.860   8.764  0.5102 -0.2264 -2.1956
   82SAPS   C38 7713   2.467   3.846   8.616  0.2097  0.2826 -0.1430
   82SAPS   H8X 7714   2.448   3.954   8.631 -0.9074  0.1120 -0.2543
   82SAPS   H8Y 7715   2.364   3.804   8.613 -0.3696  1.7064 -0.8798
   82SAPS   C39 7716   2.556   3.815   8.500  0.1221 -0.3016  1.2507
   82SAPS   H9X 7717   2.543   3.711   8.464 -0.7056  0.8702 -2.1497
   82SAPS   H9Y 7718   2.661   3.811   8.534  0.2007  1.2974  1.2606
   82SAPS  C310 7719   2.536   3.915   8.387  0.6172  0.6483  0.4453
   82SAPS  H10X 7720   2.584   4.012   8.411 -0.8942  1.3269  0.7827
   82SAPS  H10Y 7721   2.427   3.927   8.375  0.2605 -0.9292  1.8462
   82SAPS  C311 7722   2.593   3.879   8.244 -0.1631 -0.1857  0.0495
   82SAPS  H11X 7723   2.702   3.896   8.232 -0.2159  0.8703  0.8783
   82SAPS  H11Y 7724   2.542   3.948   8.173 -2.4597 -1.4764  0.3395
   82SAPS  C312 7725   2.567   3.733   8.191  0.5032 -0.5127 -0.4565
   82SAPS  H12X 7726   2.456   3.731   8.185  0.3401 -1.7449  1.9308
   82SAPS  H12Y 7727   2.611   3.667   8.268 -0.3716  0.0886  0.5999
   82SAPS  C313 7728   2.627   3.700   8.050 -0.4657 -0.0211 -0.7109
   82SAPS  H13X 7729   2.737   3.695   8.063 -0.6424 -0.5297  0.7815
   82SAPS  H13Y 7730   2.603   3.773   7.970  2.6342  1.2003 -0.6542
   82SAPS  C314 7731   2.596   3.551   8.002  0.3765 -0.0503  0.2264
   82SAPS  H14X 7732   2.620   3.486   8.089  1.2986 -2.6698 -1.8617
   82SAPS  H14Y 7733   2.666   3.529   7.919 -1.9887  1.1258 -2.2260
   82SAPS  C315 7734   2.449   3.523   7.960 -0.8390  0.3664 -0.1769
   82SAPS  H15X 7735   2.377   3.550   8.041  0.5876  0.0714  1.2347
   82SAPS  H15Y 7736   2.440   3.419   7.925  1.5767 -0.5913  1.7534
   82SAPS  C316 7737   2.410   3.605   7.835  0.6953 -0.1912  0.7481
   82SAPS  H16X 7738   2.426   3.714   7.854 -0.0235 -0.1626  1.2158
   82SAPS  H16Y 7739   2.304   3.576   7.820  0.9378 -0.9412  0.4484
   82SAPS  C317 7740   2.485   3.570   7.711 -0.3515 -0.2732 -0.5572
   82SAPS  H17X 7741   2.489   3.460   7.698 -0.0251 -0.5485  1.5715
   82SAPS  H17Y 7742   2.591   3.603   7.724 -0.1992 -0.7748 -0.5153
   82SAPS  C318 7743   2.436   3.652   7.592 -1.3272  0.1279  0.0435
   82SAPS  H18X 7744   2.511   3.631   7.512 -1.0296 -0.2849  0.4220
   82SAPS  H18Y 7745   2.450   3.758   7.621  1.1614 -0.3302  0.7839
   82SAPS  H18Z 7746   2.337   3.618   7.556 -1.9769  3.4392 -1.6577
   83SAPS     N 7747   4.377   5.174   9.720  0.1272  0.4193  0.3780
   83SAPS   HN1 7748   4.326   5.219   9.641  1.3584  2.5570  0.7257
   83SAPS   HN2 7749   4.473   5.160   9.684  0.4518 -2.0626  1.9643
   83SAPS   HN3 7750   4.340   5.080   9.745 -0.1466  1.1919  3.3539
   83SAPS   C12 7751   4.375   5.270   9.826 -0.0217  0.1879  0.1402
   83SAPS  H12A 7752   4.276   5.277   9.869 -1.7083 -4.2818 -2.3889
   83SAPS   C13 7753   4.483   5.251   9.945  0.4891  0.6365  0.2008
   83SAPS  O13A 7754   4.562   5.152   9.942  0.3085 -0.3457 -0.3768
   83SAPS  O13B 7755   4.475   5.326  10.044 -0.1386  0.0783 -0.0182
   83SAPS   C11 7756   4.412   5.408   9.764 -1.2291  0.1737  0.3804
   83SAPS  H11A 7757   4.521   5.408   9.743 -0.8135 -0.8561  2.2647
   83SAPS  H11B 7758   4.402   5.479   9.849 -2.7869  0.3023  0.1123
   83SAPS     P 7759   4.336   5.590   9.605  0.0867 -0.3306  0.1700
   83SAPS   O13 7760   4.370   5.686   9.714 -0.2451 -0.4497  0.1751
   83SAPS   O14 7761   4.437   5.575   9.501  0.2456 -0.2290  0.1590
   83SAPS   O12 7762   4.321   5.442   9.660 -0.2641 -0.6481 -0.0298
   83SAPS   O11 7763   4.202   5.622   9.533 -0.1516 -0.1420 -0.2450
   83SAPS    C1 7764   4.107   5.524   9.475  0.5582 -0.6851 -0.3025
   83SAPS    HA 7765   4.085   5.443   9.549 -0.9844  0.8548  1.0057
   83SAPS    HB 7766   4.015   5.579   9.447  0.7481 -0.9307 -1.4729
   83SAPS    C2 7767   4.171   5.464   9.349  0.6673  0.3645  0.5566
   83SAPS    HS 7768   4.279   5.440   9.359  0.8209  0.1034 -1.3871
   83SAPS   O21 7769   4.149   5.563   9.253  1.0274  0.2522  0.7320
   83SAPS   C21 7770   4.227   5.560   9.139  0.2400  0.2833 -0.0883
   83SAPS   O22 7771   4.332   5.497   9.129  0.2895 -0.1258  0.7197
   83SAPS   C22 7772   4.170   5.647   9.037 -0.1007 -0.3470  0.3087
   83SAPS   H2R 7773   4.121   5.732   9.088 -0.7650 -2.2884  3.1819
   83SAPS   H2S 7774   4.248   5.696   8.975 -2.1241  0.6798 -1.5357
   83SAPS    C3 7775   4.110   5.323   9.309  0.1187  1.2342 -0.0884
   83SAPS    HX 7776   4.044   5.325   9.220  2.2470  1.3254 -1.7665
   83SAPS    HY 7777   4.049   5.294   9.397 -1.6596 -0.9674 -1.9222
   83SAPS   O31 7778   4.206   5.223   9.263 -0.2896 -0.3310 -0.5303
   83SAPS   C31 7779   4.280   5.168   9.364  1.0893 -0.4283 -0.2460
   83SAPS   O32 7780   4.258   5.185   9.485 -0.1636  0.7776  0.3380
   83SAPS   C32 7781   4.389   5.082   9.311 -0.0569  0.3880  0.1359
   83SAPS   H2X 7782   4.455   5.056   9.397  1.7439  1.0132 -1.0064
   83SAPS   H2Y 7783   4.450   5.145   9.243 -0.3957  0.4583 -0.1038
   83SAPS   C23 7784   4.070   5.574   8.951 -0.1757  0.0369 -0.0768
   83SAPS   H3R 7785   4.002   5.651   8.908  0.2004  0.9149  0.8707
   83SAPS   H3S 7786   4.013   5.502   9.014  2.3638  0.1343  2.5186
   83SAPS   C24 7787   4.138   5.493   8.841  0.2809  0.5131 -0.8017
   83SAPS   H4R 7788   4.206   5.558   8.781  2.4238  2.1718  3.0660
   83SAPS   H4S 7789   4.048   5.477   8.777 -1.3879 -3.0638  2.0833
   83SAPS   C25 7790   4.201   5.365   8.885  0.3585 -0.8435 -0.6893
   83SAPS   H5R 7791   4.301   5.385   8.926  0.4458  2.8497 -2.3424
   83SAPS   C26 7792   4.171   5.241   8.837  0.3425 -0.0818  0.0527
   83SAPS   H6R 7793   4.221   5.158   8.889  0.3175  1.1570  2.1605
   83SAPS   C27 7794   4.054   5.204   8.748 -0.0681  0.1479  0.7585
   83SAPS   H7R 7795   3.987   5.292   8.736 -0.7659 -0.0914  2.6149
   83SAPS   H7S 7796   3.988   5.139   8.808  1.4781 -1.1170  1.1621
   83SAPS   C28 7797   4.096   5.127   8.627 -0.1278 -0.1286  0.0673
   83SAPS   H8R 7798   4.192   5.074   8.630  1.5591  2.2149 -3.7492
   83SAPS   C29 7799   4.034   5.111   8.512  0.2730  0.1708 -0.1458
   83SAPS   H9R 7800   4.077   5.042   8.437 -1.3663 -0.8018 -0.2353
   83SAPS  C210 7801   3.900   5.167   8.484  0.2317  0.7611  0.5640
   83SAPS  H10R 7802   3.853   5.218   8.571 -1.5505  0.2005 -0.0402
   83SAPS  H10S 7803   3.830   5.086   8.455  0.2084  0.4350  1.5175
   83SAPS  C211 7804   3.896   5.278   8.382  0.3023  0.5506  0.5416
   83SAPS  H11R 7805   3.900   5.384   8.413  0.3785  0.5199  0.6353
   83SAPS  C212 7806   3.902   5.268   8.247 -0.4187  0.1544 -0.0943
   83SAPS  H12R 7807   3.911   5.361   8.188  0.3489  0.4731  0.5008
   83SAPS  C213 7808   3.920   5.133   8.184  0.0318 -0.3265  0.0975
   83SAPS  H13R 7809   3.827   5.109   8.130  0.1501 -0.5346 -0.0136
   83SAPS  H13S 7810   3.928   5.053   8.260  1.3488  1.1342  1.5989
   83SAPS  C214 7811   4.042   5.131   8.093  0.6942 -0.8799 -0.3705
   83SAPS  H14R 7812   4.074   5.230   8.061  1.9390 -0.9678  0.5326
   83SAPS  C215 7813   4.116   5.025   8.062  0.3723 -0.3862 -0.1067
   83SAPS  H15R 7814   4.177   5.047   7.973 -0.5772  1.3884 -0.3611
   83SAPS  C216 7815   4.105   4.884   8.096  0.0833  1.0670 -0.1732
   83SAPS  H16R 7816   4.185   4.831   8.040  0.5265 -0.1658  1.5441
   83SAPS  H16S 7817   4.012   4.839   8.055  1.4031 -1.0939 -0.9301
   83SAPS  C217 7818   4.124   4.845   8.241 -0.1098  0.4160 -0.3874
   83SAPS  H17R 7819   4.107   4.735   8.246  2.3966 -0.0996 -1.6054
   83SAPS  H17S 7820   4.046   4.885   8.309 -0.5551 -1.1422  0.0646
   83SAPS  C218 7821   4.267   4.865   8.292 -0.5407  0.0618 -0.9415
   83SAPS  H18R 7822   4.290   4.974   8.286 -4.1490  0.9351 -1.0769
   83SAPS  H18S 7823   4.345   4.806   8.238 -1.1252 -1.0710 -0.5617
   83SAPS  C219 7824   4.280   4.825   8.439 -0.4167 -0.6314  0.3968
   83SAPS  H19R 7825   4.241   4.722   8.455  1.4495 -1.3322  0.7256
   83SAPS  H19S 7826   4.210   4.884   8.500  1.3950  1.6968  0.3639
   83SAPS  C220 7827   4.421   4.836   8.501 -0.1083 -0.6856 -0.0231
   83SAPS  H20R 7828   4.500   4.781   8.446  0.5272  0.0317  0.1457
   83SAPS  H20S 7829   4.422   4.803   8.607 -1.2323 -0.6783  0.0062
   83SAPS  H20T 7830   4.459   4.941   8.497  0.5903 -0.9054  0.6937
   83SAPS   C33 7831   4.339   4.942   9.258 -0.7367  0.7850  0.3971
   83SAPS   H3X 7832   4.292   4.883   9.340 -1.6422  0.0815 -0.6054
   83SAPS   H3Y 7833   4.429   4.894   9.214 -0.3061  2.3948 -0.5599
   83SAPS   C34 7834   4.250   4.955   9.136 -0.3210 -0.2309 -0.5281
   83SAPS   H4X 7835   4.300   5.025   9.065 -0.7811  0.5812 -0.0692
   83SAPS   H4Y 7836   4.153   5.002   9.163 -0.5796 -1.1475  0.1735
   83SAPS   C35 7837   4.216   4.826   9.063 -0.4750 -0.3701  0.6752
   83SAPS   H5X 7838   4.198   4.742   9.134  1.8846 -0.9192  0.7211
   83SAPS   H5Y 7839   4.300   4.807   8.993 -1.4202  0.0672 -0.6104
   83SAPS   C36 7840   4.087   4.836   8.983 -0.6083 -0.4168 -0.6694
   83SAPS   H6X 7841   4.085   4.922   8.912 -0.2014  2.3820  2.4218
   83SAPS   H6Y 7842   3.993   4.861   9.037 -0.6580  1.8249 -1.6629
   83SAPS   C37 7843   4.061   4.701   8.906  0.4226 -0.1765 -0.1803
   83SAPS   H7X 7844   4.042   4.628   8.988 -2.6140 -0.5354 -1.0594
   83SAPS   H7Y 7845   4.151   4.653   8.861  0.5744  0.0533 -0.1198
   83SAPS   C38 7846   3.945   4.707   8.806  0.1528 -0.3773 -0.2864
   83SAPS   H8X 7847   3.969   4.781   8.726  0.2050  0.5080  0.5328
   83SAPS   H8Y 7848   3.860   4.733   8.873  1.8515  0.6924  1.5354
   83SAPS   C39 7849   3.910   4.580   8.739  0.4283  0.3086 -0.0402
   83SAPS   H9X 7850   3.882   4.511   8.821 -0.8099 -1.2270 -1.6756
   83SAPS   H9Y 7851   3.993   4.530   8.685 -0.2873 -1.4178  0.4012
   83SAPS  C310 7852   3.798   4.600   8.638  0.2293 -0.4400  0.1106
   83SAPS  H10X 7853   3.708   4.651   8.676  2.2961  1.4475  2.8248
   83SAPS  H10Y 7854   3.767   4.499   8.602 -1.1397  0.3279 -0.9539
   83SAPS  C311 7855   3.832   4.678   8.504 -0.2533 -0.0187 -0.4422
   83SAPS  H11X 7856   3.926   4.630   8.468  1.2384  1.6133  1.1015
   83SAPS  H11Y 7857   3.853   4.787   8.514  1.0025 -0.2524 -0.3565
   83SAPS  C312 7858   3.708   4.678   8.410 -0.9029  0.6560 -0.1220
   83SAPS  H12X 7859   3.628   4.715   8.478 -0.8490  0.7633 -0.1178
   83SAPS  H12Y 7860   3.678   4.579   8.369  0.4036 -1.0141  2.6062
   83SAPS  C313 7861   3.725   4.780   8.295  0.6985  0.7221  0.2228
   83SAPS  H13X 7862   3.799   4.721   8.237 -0.2955 -0.2581 -0.0785
   83SAPS  H13Y 7863   3.763   4.877   8.333  0.9634  1.3762 -1.5922
   83SAPS  C314 7864   3.597   4.796   8.219 -0.2477 -0.2310  0.5371
   83SAPS  H14X 7865   3.505   4.828   8.272 -0.7867 -1.0447  0.1161
   83SAPS  H14Y 7866   3.573   4.698   8.173  0.4349 -0.4168  0.5547
   83SAPS  C315 7867   3.617   4.895   8.100  0.0021 -0.1326 -0.0980
   83SAPS  H15X 7868   3.698   4.855   8.036  1.5860  1.9120  0.5185
   83SAPS  H15Y 7869   3.643   4.992   8.147  1.2895  0.1154 -1.2578
   83SAPS  C316 7870   3.480   4.909   8.021  0.1112 -0.1584 -0.7187
   83SAPS  H16X 7871   3.405   4.963   8.083  0.9530  1.3343 -0.9666
   83SAPS  H16Y 7872   3.447   4.808   7.988 -0.4640 -0.7663  1.5259
   83SAPS  C317 7873   3.508   4.980   7.890 -0.0586 -0.6158  0.2740
   83SAPS  H17X 7874   3.418   4.983   7.825  0.6765  0.5576 -0.7421
   83SAPS  H17Y 7875   3.584   4.926   7.830 -0.1569  0.6959 -1.0758
   83SAPS  C318 7876   3.550   5.126   7.905  0.4142 -0.1992 -0.1003
   83SAPS  H18X 7877   3.655   5.127   7.940  0.9777 -2.5383 -1.5097
   83SAPS  H18Y 7878   3.500   5.192   7.979  1.1975 -0.3567  0.5785
   83SAPS  H18Z 7879   3.541   5.173   7.804  0.1357 -1.9819 -0.9482
   84SAPS     N 7880   5.968   3.073   9.668 -0.1798 -0.1988  0.0064
   84SAPS   HN1 7881   6.010   2.978   9.668  1.2190  0.2233  3.9741
   84SAPS   HN2 7882   5.890   3.070   9.599  1.1222  0.3882 -1.5547
   84SAPS   HN3 7883   6.037   3.145   9.639  2.3925 -1.4839  2.5178
   84SAPS   C12 7884   5.912   3.102   9.805 -0.4755  0.1303 -0.2935
   84SAPS  H12A 7885   5.818   3.051   9.820 -0.4314  0.1104 -0.0826
   84SAPS   C13 7886   6.015   3.073   9.924  0.4627  0.0912  0.2661
   84SAPS  O13A 7887   6.137   3.047   9.907 -0.4719  0.3115  0.0885
   84SAPS  O13B 7888   5.975   3.100  10.044 -0.7719  0.0654  0.1804
   84SAPS   C11 7889   5.885   3.256   9.804  0.3801 -0.1406 -0.7191
   84SAPS  H11A 7890   5.970   3.321   9.776  1.5945 -0.1165  2.6162
   84SAPS  H11B 7891   5.857   3.290   9.905  0.2237 -0.0520 -0.7919
   84SAPS     P 7892   5.737   3.424   9.666 -0.2984 -0.0896  0.0559
   84SAPS   O13 7893   5.604   3.417   9.597  0.3451  0.1106  0.3203
   84SAPS   O14 7894   5.743   3.519   9.782  0.1024  0.5701  0.1191
   84SAPS   O12 7895   5.770   3.287   9.723  0.4629 -0.0584  0.7452
   84SAPS   O11 7896   5.846   3.459   9.562 -0.5919  0.1620 -0.6873
   84SAPS    C1 7897   5.847   3.390   9.429 -0.1668  0.1526 -0.5415
   84SAPS    HA 7898   5.849   3.280   9.439 -0.5119  0.0572 -1.4980
   84SAPS    HB 7899   5.755   3.409   9.370 -0.9076  2.4372  1.1740
   84SAPS    C2 7900   5.973   3.434   9.354  0.5234  0.4197 -0.6380
   84SAPS    HS 7901   6.051   3.469   9.424 -0.4633 -1.6937  1.6804
   84SAPS   O21 7902   5.939   3.537   9.260  0.6122 -0.1312 -0.3958
   84SAPS   C21 7903   6.033   3.606   9.208  0.0265  0.8002  0.1070
   84SAPS   O22 7904   6.151   3.597   9.242 -0.3538 -0.4576 -0.1905
   84SAPS   C22 7905   5.985   3.663   9.075 -0.2081 -0.1285 -0.4143
   84SAPS   H2R 7906   5.883   3.624   9.055 -0.7847 -1.0235  3.5117
   84SAPS   H2S 7907   5.982   3.772   9.091  0.7336  0.0357 -1.1938
   84SAPS    C3 7908   6.054   3.309   9.282  0.7568  0.1598 -0.2287
   84SAPS    HX 7909   6.058   3.217   9.345 -1.2135  0.0680 -0.1695
   84SAPS    HY 7910   6.155   3.342   9.249  0.7375 -1.3130 -1.8917
   84SAPS   O31 7911   6.000   3.278   9.151  0.1915 -0.5456 -0.1051
   84SAPS   C31 7912   5.907   3.188   9.148  0.9583  0.2641 -0.1033
   84SAPS   O32 7913   5.870   3.120   9.242  0.2018  0.0593 -0.0634
   84SAPS   C32 7914   5.847   3.191   9.010 -0.5936  0.1296 -0.4806
   84SAPS   H2X 7915   5.872   3.093   8.966  2.1248 -0.3280  1.8085
   84SAPS   H2Y 7916   5.879   3.273   8.942 -0.4244  0.2091 -0.3039
   84SAPS   C23 7917   6.087   3.635   8.965 -0.1608  0.2105  0.9946
   84SAPS   H3R 7918   6.191   3.632   9.002  0.1617  1.6449  0.2665
   84SAPS   H3S 7919   6.081   3.728   8.906  3.7220  1.0270  1.6316
   84SAPS   C24 7920   6.056   3.508   8.890 -0.3146  0.4227 -0.8666
   84SAPS   H4R 7921   6.034   3.432   8.968  1.5795 -0.4004 -1.0623
   84SAPS   H4S 7922   6.146   3.468   8.838  1.2119  2.4241  0.0682
   84SAPS   C25 7923   5.939   3.529   8.800  0.0916  0.2188  0.0997
   84SAPS   H5R 7924   5.842   3.531   8.852  0.6588  2.2885  1.2003
   84SAPS   C26 7925   5.953   3.558   8.666 -0.0485 -0.1657 -0.2967
   84SAPS   H6R 7926   5.862   3.573   8.605  0.5603 -2.5739 -1.9711
   84SAPS   C27 7927   6.083   3.574   8.588  0.1195  0.3939 -0.4337
   84SAPS   H7R 7928   6.120   3.482   8.538 -0.2990  0.8680 -1.6377
   84SAPS   H7S 7929   6.157   3.600   8.667 -1.5299  1.2195  0.9079
   84SAPS   C28 7930   6.071   3.685   8.488 -0.5709 -0.0051  0.1659
   84SAPS   H8R 7931   6.057   3.787   8.527  3.0911  0.8473 -0.3045
   84SAPS   C29 7932   6.072   3.669   8.352 -0.0698 -0.2180 -0.0639
   84SAPS   H9R 7933   6.074   3.768   8.303 -2.4529  1.1622  2.3664
   84SAPS  C210 7934   6.074   3.538   8.273 -0.3851 -0.2036  0.2187
   84SAPS  H10R 7935   6.009   3.552   8.183  0.7897  1.7804 -0.3788
   84SAPS  H10S 7936   6.020   3.463   8.335 -1.4241 -0.0961 -0.5150
   84SAPS  C211 7937   6.208   3.465   8.241  0.0381 -0.2072 -0.5534
   84SAPS  H11R 7938   6.264   3.434   8.331  1.7264  0.3134 -1.3778
   84SAPS  C212 7939   6.262   3.442   8.123  0.3056 -0.2312 -0.0731
   84SAPS  H12R 7940   6.351   3.378   8.113 -1.9407 -3.3500 -1.2525
   84SAPS  C213 7941   6.200   3.482   7.991 -1.1896 -0.3312  0.1205
   84SAPS  H13R 7942   6.096   3.519   8.000 -1.1277 -0.4811  1.5670
   84SAPS  H13S 7943   6.198   3.391   7.928  0.2406 -0.2684 -0.0392
   84SAPS  C214 7944   6.282   3.589   7.907  0.2051 -0.5882 -0.1458
   84SAPS  H14R 7945   6.264   3.689   7.950  0.1155 -0.1518 -1.1839
   84SAPS  C215 7946   6.372   3.560   7.809  0.0512  0.5307 -0.9278
   84SAPS  H15R 7947   6.429   3.643   7.766  1.0070  0.4233  0.0838
   84SAPS  C216 7948   6.397   3.428   7.747 -0.3265  0.0969  0.7117
   84SAPS  H16R 7949   6.382   3.345   7.819  1.3378 -1.2993 -0.4505
   84SAPS  H16S 7950   6.508   3.418   7.745 -0.3741 -2.2242  3.4377
   84SAPS  C217 7951   6.322   3.406   7.615  1.0038 -0.5400  0.6966
   84SAPS  H17R 7952   6.214   3.429   7.628  1.2618  0.9125  0.4091
   84SAPS  H17S 7953   6.324   3.299   7.583  2.2810 -0.2105 -0.4361
   84SAPS  C218 7954   6.378   3.487   7.498  0.4724  0.2283 -0.4265
   84SAPS  H18R 7955   6.350   3.593   7.520 -0.2178  0.2474 -1.3497
   84SAPS  H18S 7956   6.325   3.452   7.407  0.0777  0.8789 -0.4577
   84SAPS  C219 7957   6.527   3.472   7.458  0.3566  0.0527 -0.1461
   84SAPS  H19R 7958   6.583   3.472   7.554 -1.5327  0.3247  1.0035
   84SAPS  H19S 7959   6.556   3.556   7.392 -2.0890  0.6326 -0.5837
   84SAPS  C220 7960   6.568   3.343   7.388  0.3804 -0.4835 -0.9724
   84SAPS  H20R 7961   6.475   3.304   7.342 -0.1842  0.1614 -0.4089
   84SAPS  H20S 7962   6.605   3.267   7.461  0.9315 -0.0767 -0.8180
   84SAPS  H20T 7963   6.647   3.373   7.317  0.9824 -1.7493 -0.8668
   84SAPS   C33 7964   5.685   3.199   9.026  0.4068 -0.1776 -0.0929
   84SAPS   H3X 7965   5.659   3.305   9.048 -2.4702 -0.8776  0.3680
   84SAPS   H3Y 7966   5.651   3.134   9.110 -1.1477  0.2665 -0.3373
   84SAPS   C34 7967   5.613   3.156   8.894 -0.2535  0.2584 -0.5133
   84SAPS   H4X 7968   5.504   3.155   8.916  0.1570  1.5825  2.0681
   84SAPS   H4Y 7969   5.639   3.050   8.875 -1.5480  0.1050 -1.5648
   84SAPS   C35 7970   5.639   3.240   8.775  0.2863 -0.2988 -0.4621
   84SAPS   H5X 7971   5.748   3.245   8.755  0.9014 -2.8291  1.6978
   84SAPS   H5Y 7972   5.599   3.342   8.792 -1.0969 -1.2974  3.1258
   84SAPS   C36 7973   5.556   3.186   8.659  0.4038  0.7931 -0.0502
   84SAPS   H6X 7974   5.448   3.184   8.687  0.3843 -4.0023  0.2038
   84SAPS   H6Y 7975   5.591   3.084   8.635  2.2968  0.6778  2.7213
   84SAPS   C37 7976   5.584   3.268   8.537  0.1337 -0.2389 -0.6026
   84SAPS   H7X 7977   5.685   3.250   8.493 -0.8960 -1.7866 -2.5033
   84SAPS   H7Y 7978   5.575   3.375   8.563 -0.5347 -0.8346  1.9260
   84SAPS   C38 7979   5.479   3.232   8.432  0.0950  0.6480  0.2423
   84SAPS   H8X 7980   5.376   3.255   8.466 -0.2207  2.2070 -1.6195
   84SAPS   H8Y 7981   5.492   3.122   8.427  2.3287  0.8651  0.2409
   84SAPS   C39 7982   5.480   3.295   8.288 -0.8521 -0.0969 -1.1709
   84SAPS   H9X 7983   5.580   3.269   8.248 -0.6712 -2.3178  0.5114
   84SAPS   H9Y 7984   5.481   3.405   8.296 -0.4440 -0.0904 -1.3015
   84SAPS  C310 7985   5.370   3.241   8.201  0.1681 -0.7770  0.7716
   84SAPS  H10X 7986   5.271   3.248   8.250  0.2037 -1.4760  0.9561
   84SAPS  H10Y 7987   5.393   3.136   8.171 -0.3836 -0.6729 -0.0529
   84SAPS  C311 7988   5.365   3.311   8.058 -0.0599  0.2899 -0.7955
   84SAPS  H11X 7989   5.398   3.417   8.066 -1.4315  0.7243 -0.5102
   84SAPS  H11Y 7990   5.257   3.313   8.030  0.0118 -2.2797 -1.5281
   84SAPS  C312 7991   5.447   3.253   7.946 -1.2267 -0.1628 -0.3123
   84SAPS  H12X 7992   5.415   3.147   7.936  0.1923 -0.8556  1.8559
   84SAPS  H12Y 7993   5.557   3.271   7.949 -0.8549 -2.3254  1.6010
   84SAPS  C313 7994   5.404   3.319   7.817  0.1703 -0.3193  0.5293
   84SAPS  H13X 7995   5.407   3.429   7.812 -2.9352 -0.1909 -1.2718
   84SAPS  H13Y 7996   5.294   3.304   7.807  0.2204 -2.8672  2.5165
   84SAPS  C314 7997   5.462   3.256   7.692 -0.5933  0.0970  0.2261
   84SAPS  H14X 7998   5.452   3.146   7.706  1.2725  0.1682  2.9253
   84SAPS  H14Y 7999   5.563   3.300   7.682 -1.1885  1.9667  1.8777
   84SAPS  C315 8000   5.386   3.285   7.562 -0.2596 -0.0475 -0.2162
   84SAPS  H15X 8001   5.280   3.313   7.582 -0.6307 -1.2202 -0.4911
   84SAPS  H15Y 8002   5.382   3.199   7.491 -1.0364 -0.5849  0.4581
   84SAPS  C316 8003   5.452   3.399   7.491 -0.1588  0.1715 -1.1679
   84SAPS  H16X 8004   5.546   3.367   7.441  1.6482 -0.0370  2.0698
   84SAPS  H16Y 8005   5.482   3.472   7.570 -0.1740 -1.1666  0.1073
   84SAPS  C317 8006   5.377   3.482   7.384 -0.0045 -0.0455  0.1135
   84SAPS  H17X 8007   5.456   3.543   7.336  1.6127 -0.6045  1.9070
   84SAPS  H17Y 8008   5.303   3.542   7.441 -0.8639 -0.1102 -0.9116
   84SAPS  C318 8009   5.296   3.407   7.282  0.0004  0.4072  0.1419
   84SAPS  H18X 8010   5.259   3.463   7.194 -0.4338 -4.3508 -3.0817
   84SAPS  H18Y 8011   5.205   3.366   7.331 -0.5709 -0.1885 -1.3576
   84SAPS  H18Z 8012   5.348   3.316   7.247 -1.1865 -0.9636  1.7978
   85SAPS     N 8013   2.050   6.345   9.760  0.3301  0.1857  0.5274
   85SAPS   HN1 8014   2.102   6.434   9.773 -0.5645  0.9033 -0.5660
   85SAPS   HN2 8015   2.111   6.287   9.698 -0.3030 -0.0085  0.0793
   85SAPS   HN3 8016   1.952   6.353   9.727 -0.2327 -3.7645  0.7627
   85SAPS   C12 8017   2.038   6.275   9.889 -0.7392 -0.1493  0.1108
   85SAPS  H12A 8018   2.139   6.287   9.923 -0.6278 -0.8197  0.0216
   85SAPS   C13 8019   1.949   6.337   9.997 -0.0556  0.9132 -0.1606
   85SAPS  O13A 8020   1.872   6.429   9.967  0.6936  0.3011 -0.3735
   85SAPS  O13B 8021   1.972   6.300  10.115 -0.3097  0.1899  0.1996
   85SAPS   C11 8022   1.995   6.129   9.846 -0.1180 -0.2296  0.3472
   85SAPS  H11A 8023   1.895   6.121   9.797 -0.7856 -0.5375  1.7126
   85SAPS  H11B 8024   1.982   6.068   9.938  2.6642 -0.4840  0.6607
   85SAPS     P 8025   2.074   5.922   9.697 -0.0833 -0.3430  0.1396
   85SAPS   O13 8026   2.176   5.904   9.592 -0.3907 -0.1053 -0.0214
   85SAPS   O14 8027   2.076   5.819   9.804  0.3848  0.3057 -0.2636
   85SAPS   O12 8028   2.094   6.060   9.778 -0.0641 -0.1212 -0.3089
   85SAPS   O11 8029   1.934   5.954   9.629  0.5619 -0.2173 -0.5214
   85SAPS    C1 8030   1.930   6.066   9.540 -0.2760 -0.8657  0.1627
   85SAPS    HA 8031   1.929   6.162   9.595  0.6742 -0.5009 -0.4219
   85SAPS    HB 8032   2.017   6.068   9.470  0.2950 -1.0885  0.8547
   85SAPS    C2 8033   1.807   6.065   9.450  0.4694  0.0867  0.2580
   85SAPS    HS 8034   1.719   6.084   9.515  0.4522 -1.8843  0.8923
   85SAPS   O21 8035   1.793   5.925   9.395 -0.1806 -0.0524 -0.7046
   85SAPS   C21 8036   1.693   5.901   9.324  0.0965  0.0699 -0.4957
   85SAPS   O22 8037   1.597   5.975   9.304  0.0124  0.0117  0.7043
   85SAPS   C22 8038   1.710   5.761   9.262  0.8663 -0.6388  0.0306
   85SAPS   H2R 8039   1.798   5.712   9.309  0.9187  0.3644  1.0042
   85SAPS   H2S 8040   1.616   5.709   9.291  0.2622  0.4587  0.0996
   85SAPS    C3 8041   1.818   6.171   9.332  0.5800 -0.0194  0.3038
   85SAPS    HX 8042   1.844   6.266   9.384 -1.8007  1.1951 -0.5885
   85SAPS    HY 8043   1.720   6.190   9.285  0.9196 -1.1111 -0.9201
   85SAPS   O31 8044   1.922   6.137   9.231 -0.5353 -0.1996 -0.1477
   85SAPS   C31 8045   2.039   6.186   9.233  0.0601  0.0599 -0.0084
   85SAPS   O32 8046   2.086   6.269   9.308  0.0953  0.1228 -0.3889
   85SAPS   C32 8047   2.128   6.116   9.126  0.0903  0.6554  0.6791
   85SAPS   H2X 8048   2.069   6.123   9.031  0.0441  1.7448  0.7729
   85SAPS   H2Y 8049   2.122   6.009   9.155  1.5456  0.2765 -0.3218
   85SAPS   C23 8050   1.716   5.753   9.105  0.2870  0.4951 -0.0617
   85SAPS   H3R 8051   1.651   5.829   9.057 -1.4332  1.0826  2.9219
   85SAPS   H3S 8052   1.665   5.656   9.085 -1.6805  0.9207  2.3049
   85SAPS   C24 8053   1.858   5.759   9.050  0.1129  0.3947 -0.1410
   85SAPS   H4R 8054   1.922   5.676   9.087  0.6410  1.8706  2.5143
   85SAPS   H4S 8055   1.898   5.857   9.083  1.1516 -0.3613  0.9459
   85SAPS   C25 8056   1.854   5.747   8.900 -0.1279  0.2639 -0.3607
   85SAPS   H5R 8057   1.820   5.649   8.863 -3.8319  0.5666  1.7496
   85SAPS   C26 8058   1.888   5.849   8.814  0.2946  1.4697  0.4187
   85SAPS   H6R 8059   1.887   5.817   8.709 -1.5015 -1.5296  1.2303
   85SAPS   C27 8060   1.925   5.987   8.849  0.0263  0.3896  0.0787
   85SAPS   H7R 8061   1.932   6.039   8.751  0.0640 -1.5529 -1.0001
   85SAPS   H7S 8062   2.021   5.983   8.906 -1.2524 -0.1930  2.3134
   85SAPS   C28 8063   1.833   6.078   8.934 -0.1884  0.2806  0.4727
   85SAPS   H8R 8064   1.783   6.028   9.018 -1.2125  1.3019  0.4994
   85SAPS   C29 8065   1.827   6.217   8.905  0.3678  0.3604 -1.0582
   85SAPS   H9R 8066   1.763   6.284   8.965 -1.3355 -0.7193 -1.5862
   85SAPS  C210 8067   1.905   6.287   8.801 -0.0991 -0.2999  0.6444
   85SAPS  H10R 8068   1.863   6.282   8.698  2.5884 -1.9627 -0.4657
   85SAPS  H10S 8069   2.005   6.240   8.787 -0.7439 -1.3932 -0.4421
   85SAPS  C211 8070   1.942   6.431   8.834  0.0217  0.3808 -0.2792
   85SAPS  H11R 8071   1.981   6.445   8.936 -2.3313  0.7394  0.6413
   85SAPS  C212 8072   1.934   6.535   8.752 -0.0689  0.1256  0.3605
   85SAPS  H12R 8073   1.958   6.633   8.796  1.6885 -0.2129  0.2043
   85SAPS  C213 8074   1.898   6.530   8.600  0.0578 -0.5106  0.8140
   85SAPS  H13R 8075   1.874   6.634   8.569 -3.4833 -1.2123  0.7528
   85SAPS  H13S 8076   1.799   6.483   8.582 -0.0085  0.2883 -1.1145
   85SAPS  C214 8077   2.011   6.477   8.514  0.1170 -1.1357  0.9109
   85SAPS  H14R 8078   2.098   6.438   8.568  1.8901  0.5294 -0.6107
   85SAPS  C215 8079   2.022   6.492   8.378 -0.0498 -0.8784 -0.0390
   85SAPS  H15R 8080   2.105   6.437   8.331 -0.0768 -1.4781  0.5933
   85SAPS  C216 8081   1.908   6.542   8.292  0.6252  0.6526 -0.7983
   85SAPS  H16R 8082   1.825   6.589   8.349  1.2841  0.5860  0.2576
   85SAPS  H16S 8083   1.855   6.453   8.253  1.1848 -0.8912  1.7756
   85SAPS  C217 8084   1.944   6.639   8.171 -0.1194  0.2325  0.4043
   85SAPS  H17R 8085   1.870   6.615   8.092 -2.7216  0.3463  2.6509
   85SAPS  H17S 8086   2.046   6.607   8.140 -0.4154 -2.4089  1.8415
   85SAPS  C218 8087   1.952   6.792   8.196  0.2800  0.3585 -0.2933
   85SAPS  H18R 8088   2.054   6.822   8.227  0.3005  0.2383 -0.2448
   85SAPS  H18S 8089   1.878   6.819   8.275  1.1864  0.2372  0.6119
   85SAPS  C219 8090   1.929   6.876   8.063 -0.3051 -0.1317  0.1593
   85SAPS  H19R 8091   1.835   6.836   8.021  0.3988 -1.0721 -0.5614
   85SAPS  H19S 8092   2.014   6.863   7.993 -0.5980  0.8342 -0.3945
   85SAPS  C220 8093   1.919   7.025   8.092 -0.8852  0.5580  0.0603
   85SAPS  H20R 8094   2.019   7.069   8.111 -1.3075  2.1209 -1.1870
   85SAPS  H20S 8095   1.854   7.043   8.181 -0.6071  0.6794  0.2421
   85SAPS  H20T 8096   1.877   7.080   8.006 -1.8992 -0.6786 -0.2566
   85SAPS   C33 8097   2.267   6.176   9.099  0.4744  0.6735  0.7533
   85SAPS   H3X 8098   2.320   6.104   9.033 -1.7462 -0.6929  0.3668
   85SAPS   H3Y 8099   2.323   6.176   9.196 -0.5945 -1.6701  1.4476
   85SAPS   C34 8100   2.262   6.315   9.028 -0.5684  0.1900 -0.6440
   85SAPS   H4X 8101   2.220   6.378   9.109  0.5778  2.6327 -1.8342
   85SAPS   H4Y 8102   2.189   6.325   8.945 -1.2823  1.9656  0.1446
   85SAPS   C35 8103   2.401   6.382   8.981  0.7047  0.2973 -0.3502
   85SAPS   H5X 8104   2.446   6.302   8.918 -1.9929 -1.7115  0.1335
   85SAPS   H5Y 8105   2.469   6.398   9.068  1.9832  3.0109 -1.7251
   85SAPS   C36 8106   2.383   6.511   8.908 -0.8435 -1.4334  0.2366
   85SAPS   H6X 8107   2.485   6.554   8.911 -1.1817 -0.6318  0.7556
   85SAPS   H6Y 8108   2.321   6.588   8.959 -0.0866 -0.9836  0.4922
   85SAPS   C37 8109   2.328   6.501   8.765 -0.0386  0.2089 -0.2428
   85SAPS   H7X 8110   2.333   6.602   8.717 -2.2598 -0.4958 -2.1185
   85SAPS   H7Y 8111   2.226   6.458   8.770 -0.2425  0.7399  0.2835
   85SAPS   C38 8112   2.421   6.428   8.667 -0.4730  0.3468  0.5998
   85SAPS   H8X 8113   2.422   6.318   8.680  0.0811  0.1088 -1.2982
   85SAPS   H8Y 8114   2.519   6.476   8.685 -0.5763  0.4809  0.8064
   85SAPS   C39 8115   2.386   6.446   8.518  0.1755 -0.0815  0.1822
   85SAPS   H9X 8116   2.374   6.554   8.496 -4.8952 -0.6750 -1.1145
   85SAPS   H9Y 8117   2.289   6.393   8.510  0.4929 -0.9841  1.8380
   85SAPS  C310 8118   2.494   6.372   8.427 -0.1210  0.1324 -0.4800
   85SAPS  H10X 8119   2.496   6.261   8.430  1.2198  0.1550  0.4433
   85SAPS  H10Y 8120   2.595   6.393   8.467 -0.5172 -1.4159  1.5153
   85SAPS  C311 8121   2.486   6.424   8.286  0.0188 -0.3002  0.0073
   85SAPS  H11X 8122   2.591   6.427   8.249  0.3093  1.2492  0.8735
   85SAPS  H11Y 8123   2.435   6.523   8.275  2.1059  0.6540 -1.8305
   85SAPS  C312 8124   2.419   6.314   8.196  0.2988 -0.1190 -0.2043
   85SAPS  H12X 8125   2.320   6.293   8.241  0.6216  1.1127  1.1797
   85SAPS  H12Y 8126   2.482   6.223   8.202  1.8466  0.8670 -0.9287
   85SAPS  C313 8127   2.393   6.357   8.053  0.1894 -0.3121  0.3649
   85SAPS  H13X 8128   2.352   6.277   7.987 -0.2824  3.1275 -3.9185
   85SAPS  H13Y 8129   2.491   6.391   8.013  0.8800 -0.1619  2.0936
   85SAPS  C314 8130   2.301   6.482   8.035  0.8172 -0.0987 -0.2364
   85SAPS  H14X 8131   2.360   6.570   8.069  0.0790  0.9525 -1.5206
   85SAPS  H14Y 8132   2.214   6.470   8.104  0.6778  1.7449 -0.0386
   85SAPS  C315 8133   2.258   6.506   7.888 -0.4714 -0.4985 -0.0077
   85SAPS  H15X 8134   2.152   6.476   7.878 -0.7868  0.3291  0.7157
   85SAPS  H15Y 8135   2.320   6.447   7.818 -0.7114 -0.0309 -0.6232
   85SAPS  C316 8136   2.259   6.650   7.841  0.0091  0.4323 -0.1695
   85SAPS  H16X 8137   2.366   6.679   7.849  0.2186 -0.4534  0.3303
   85SAPS  H16Y 8138   2.202   6.709   7.916  0.3871  0.6447 -0.0492
   85SAPS  C317 8139   2.192   6.677   7.706 -0.8746 -0.2032  0.4478
   85SAPS  H17X 8140   2.081   6.678   7.714 -0.9249 -0.8054 -0.0327
   85SAPS  H17Y 8141   2.223   6.611   7.622 -1.7922  0.1730 -0.1955
   85SAPS  C318 8142   2.238   6.817   7.663 -0.0139 -1.0045  0.5105
   85SAPS  H18X 8143   2.348   6.803   7.663 -0.0434 -1.3540  2.0511
   85SAPS  H18Y 8144   2.218   6.907   7.725 -2.2545 -2.2192  1.6646
   85SAPS  H18Z 8145   2.201   6.835   7.560  2.1958  0.5091 -0.0882
   86SAPS     N 8146   4.842   6.436   9.683  0.0062 -0.1610 -0.3516
   86SAPS   HN1 8147   4.922   6.474   9.627 -0.2854  1.2230  0.1341
   86SAPS   HN2 8148   4.789   6.368   9.624  1.6647 -0.9263 -1.0219
   86SAPS   HN3 8149   4.780   6.515   9.710 -0.4944 -0.3604 -0.8965
   86SAPS   C12 8150   4.901   6.373   9.801 -0.1767 -0.6373 -0.5634
   86SAPS  H12A 8151   4.997   6.422   9.808  0.2621 -1.2063 -2.1576
   86SAPS   C13 8152   4.823   6.390   9.934 -0.3411  0.4582 -0.7668
   86SAPS  O13A 8153   4.716   6.456   9.935  0.8880 -0.3904  0.5954
   86SAPS  O13B 8154   4.898   6.372  10.037 -0.4854 -0.0229 -0.0126
   86SAPS   C11 8155   4.912   6.218   9.779 -0.8076  0.0014  0.7490
   86SAPS  H11A 8156   4.809   6.178   9.776 -0.9829  0.1741  2.7853
   86SAPS  H11B 8157   4.969   6.171   9.862 -0.2485  0.3691  0.5837
   86SAPS     P 8158   5.015   6.037   9.606  0.3033  0.1468 -0.1714
   86SAPS   O13 8159   5.151   6.045   9.556  0.7721 -0.2612  0.0919
   86SAPS   O14 8160   4.995   5.947   9.723 -0.3934  0.3107  0.4900
   86SAPS   O12 8161   4.975   6.182   9.656 -0.1552 -0.7492 -0.5704
   86SAPS   O11 8162   4.919   5.990   9.486 -0.5348  0.7600  0.0859
   86SAPS    C1 8163   4.901   6.089   9.383  0.4045  0.2661 -1.1283
   86SAPS    HA 8164   4.832   6.169   9.418 -0.6126 -1.4020  0.9117
   86SAPS    HB 8165   4.995   6.142   9.357  2.2788 -2.9155 -1.4080
   86SAPS    C2 8166   4.838   6.025   9.251 -0.2824 -0.1928 -0.3713
   86SAPS    HS 8167   4.738   5.985   9.278 -1.5777  3.8054  1.5904
   86SAPS   O21 8168   4.929   5.928   9.200 -0.3079 -0.2788  0.4987
   86SAPS   C21 8169   4.867   5.836   9.123 -0.0482 -0.0639 -0.2873
   86SAPS   O22 8170   4.746   5.826   9.106  0.3976 -0.2303 -0.3136
   86SAPS   C22 8171   4.954   5.740   9.059 -0.0201 -0.2419 -0.2317
   86SAPS   H2R 8172   5.053   5.788   9.044 -1.1030  1.6890 -1.6992
   86SAPS   H2S 8173   4.956   5.653   9.127 -0.8342  0.3931  0.6118
   86SAPS    C3 8174   4.803   6.145   9.144 -1.0038 -0.3574  0.6932
   86SAPS    HX 8175   4.735   6.209   9.203 -1.6553 -1.9683  1.7402
   86SAPS    HY 8176   4.746   6.093   9.064 -1.3184  0.4546  0.3759
   86SAPS   O31 8177   4.926   6.210   9.097 -0.3421  0.0099 -0.9843
   86SAPS   C31 8178   4.943   6.347   9.129 -0.7166  0.4138  1.0676
   86SAPS   O32 8179   4.859   6.414   9.180  0.2712 -0.0180  0.3699
   86SAPS   C32 8180   5.084   6.387   9.099  0.4954  0.1473 -0.4971
   86SAPS   H2X 8181   5.130   6.305   9.041  2.3450 -0.5021  1.7119
   86SAPS   H2Y 8182   5.137   6.386   9.197 -0.4274 -0.6851  0.0244
   86SAPS   C23 8183   4.904   5.697   8.918 -0.5482 -0.4434  1.0725
   86SAPS   H3R 8184   4.794   5.693   8.904 -0.3715  0.0132 -0.7029
   86SAPS   H3S 8185   4.949   5.595   8.908  0.8333  0.3561 -2.5778
   86SAPS   C24 8186   4.953   5.784   8.806  0.1433  0.1577  0.4103
   86SAPS   H4R 8187   4.939   5.747   8.702 -2.0370  2.8736 -0.3851
   86SAPS   H4S 8188   5.063   5.785   8.817  0.2286  0.7260 -0.3768
   86SAPS   C25 8189   4.911   5.930   8.805  0.5179  0.8453 -0.1755
   86SAPS   H5R 8190   4.803   5.949   8.799  0.4412  0.0424 -3.0859
   86SAPS   C26 8191   4.992   6.041   8.809  0.7179 -0.0574  0.0895
   86SAPS   H6R 8192   4.942   6.137   8.828 -2.1637 -0.8184 -2.8039
   86SAPS   C27 8193   5.144   6.037   8.802 -0.3679  0.3233 -0.6809
   86SAPS   H7R 8194   5.192   6.128   8.759  2.6295 -0.8794 -0.1348
   86SAPS   H7S 8195   5.181   5.959   8.732  1.2100 -0.9458  1.4469
   86SAPS   C28 8196   5.203   6.017   8.939 -0.2450 -0.1682  0.1244
   86SAPS   H8R 8197   5.137   5.966   9.011  0.2835 -1.8031 -0.4970
   86SAPS   C29 8198   5.323   6.064   8.995 -0.0764 -0.1744  0.0174
   86SAPS   H9R 8199   5.346   6.028   9.097  1.5967 -1.6071 -0.8272
   86SAPS  C210 8200   5.427   6.140   8.924  0.4440 -0.1665 -0.5379
   86SAPS  H10R 8201   5.424   6.118   8.815  0.3051  1.9883 -1.0088
   86SAPS  H10S 8202   5.523   6.098   8.961  0.4723 -0.4354 -0.9040
   86SAPS  C211 8203   5.417   6.289   8.952  0.4408 -0.0212  0.8580
   86SAPS  H11R 8204   5.428   6.328   9.054 -0.2965  1.2627  0.4558
   86SAPS  C212 8205   5.400   6.386   8.862  0.5595 -0.0012 -0.1494
   86SAPS  H12R 8206   5.389   6.487   8.902  2.2229 -0.2218  1.0227
   86SAPS  C213 8207   5.404   6.373   8.710  0.7594  0.6808  0.4490
   86SAPS  H13R 8208   5.317   6.309   8.684  0.3156  0.8736  1.4074
   86SAPS  H13S 8209   5.489   6.310   8.675  0.4381 -0.2115  1.2334
   86SAPS  C214 8210   5.398   6.501   8.632 -0.6937 -0.0333  0.5199
   86SAPS  H14R 8211   5.327   6.580   8.662 -1.8369 -0.4020 -1.0920
   86SAPS  C215 8212   5.469   6.532   8.518  0.2814 -0.4012  0.4036
   86SAPS  H15R 8213   5.455   6.637   8.489 -0.5828  0.1033  2.4481
   86SAPS  C216 8214   5.564   6.444   8.439 -0.6785 -0.1073 -0.0462
   86SAPS  H16R 8215   5.581   6.347   8.490  0.3839  0.1128  0.0314
   86SAPS  H16S 8216   5.659   6.501   8.439 -1.6829  1.6784  0.9794
   86SAPS  C217 8217   5.521   6.419   8.292  0.3018  0.2776 -0.2935
   86SAPS  H17R 8218   5.524   6.515   8.238 -0.0566  0.4890  0.0611
   86SAPS  H17S 8219   5.416   6.383   8.293  0.3637  0.0549 -1.0047
   86SAPS  C218 8220   5.609   6.325   8.208 -0.2327 -0.2842 -0.1526
   86SAPS  H18R 8221   5.646   6.231   8.254 -2.1390 -0.9409  0.1453
   86SAPS  H18S 8222   5.708   6.372   8.188 -0.8822  1.4073  0.3903
   86SAPS  C219 8223   5.532   6.289   8.081 -0.6079  0.0077 -0.9371
   86SAPS  H19R 8224   5.494   6.380   8.030  1.1139  2.6887  2.1723
   86SAPS  H19S 8225   5.437   6.242   8.114 -0.3177 -0.1078 -0.2444
   86SAPS  C220 8226   5.600   6.194   7.990 -0.2925  0.0923  0.8508
   86SAPS  H20R 8227   5.563   6.189   7.886  2.3921 -0.5646 -0.1645
   86SAPS  H20S 8228   5.610   6.091   8.030 -0.7978 -1.8501 -3.4931
   86SAPS  H20T 8229   5.703   6.230   7.967 -0.3002 -0.9651 -1.0359
   86SAPS   C33 8230   5.088   6.518   9.018  0.2626  0.0723 -0.1553
   86SAPS   H3X 8231   5.193   6.555   9.019 -0.0047  0.8591 -0.6602
   86SAPS   H3Y 8232   5.016   6.588   9.065  0.2646  1.8352 -2.5984
   86SAPS   C34 8233   5.046   6.496   8.873  0.1467 -0.1574 -0.4389
   86SAPS   H4X 8234   5.040   6.388   8.851  2.3531 -0.2716 -0.6926
   86SAPS   H4Y 8235   5.128   6.539   8.811  0.2191  0.0073 -0.2295
   86SAPS   C35 8236   4.922   6.569   8.836  0.4453 -0.1852  0.0143
   86SAPS   H5X 8237   4.940   6.677   8.858  1.1128  0.3415 -2.6964
   86SAPS   H5Y 8238   4.841   6.538   8.905  0.9215 -0.1297  0.6007
   86SAPS   C36 8239   4.892   6.557   8.689  0.1446  0.3884 -0.0974
   86SAPS   H6X 8240   4.979   6.601   8.636 -0.7659  1.8745 -0.4270
   86SAPS   H6Y 8241   4.806   6.623   8.667 -0.4154  0.2728  1.6202
   86SAPS   C37 8242   4.856   6.418   8.637  0.5387  0.2748 -0.3266
   86SAPS   H7X 8243   4.775   6.374   8.699  1.9918 -1.6747  0.2835
   86SAPS   H7Y 8244   4.936   6.343   8.655  1.4046  0.5643 -2.6292
   86SAPS   C38 8245   4.825   6.421   8.489  0.0687 -0.0038 -0.1045
   86SAPS   H8X 8246   4.776   6.519   8.470  0.7546  0.0033 -2.0405
   86SAPS   H8Y 8247   4.757   6.337   8.464 -0.6974  0.0587  1.5934
   86SAPS   C39 8248   4.943   6.426   8.398  0.4443 -0.7596  0.1968
   86SAPS   H9X 8249   5.009   6.341   8.426 -1.5573 -2.4369  0.0563
   86SAPS   H9Y 8250   5.001   6.518   8.418  0.5243 -0.9027  0.6424
   86SAPS  C310 8251   4.917   6.425   8.247 -0.1852 -0.3904 -0.3442
   86SAPS  H10X 8252   4.864   6.510   8.200  1.6038  0.6596 -0.5178
   86SAPS  H10Y 8253   4.862   6.329   8.235  2.1838 -2.0263  1.1443
   86SAPS  C311 8254   5.039   6.410   8.154  0.1035  0.3756  0.0109
   86SAPS  H11X 8255   5.104   6.340   8.210 -1.1148 -1.6882 -1.0365
   86SAPS  H11Y 8256   5.087   6.510   8.155 -1.1570  1.0098  1.9177
   86SAPS  C312 8257   5.014   6.357   8.010  0.4669  0.5735 -0.1839
   86SAPS  H12X 8258   4.953   6.264   8.016  1.6654 -0.2680 -0.6950
   86SAPS  H12Y 8259   5.106   6.335   7.952 -0.7468 -1.4096 -1.4675
   86SAPS  C313 8260   4.939   6.463   7.918 -0.2913 -0.2634 -0.3577
   86SAPS  H13X 8261   5.001   6.554   7.899 -2.7049  1.7677  0.8670
   86SAPS  H13Y 8262   4.848   6.501   7.970 -0.2355 -0.2668 -0.2568
   86SAPS  C314 8263   4.892   6.390   7.794  0.1111  0.3698  0.7538
   86SAPS  H14X 8264   4.851   6.289   7.818  2.8054 -0.1189  4.1081
   86SAPS  H14Y 8265   4.969   6.364   7.718 -0.6874 -0.6578  0.2699
   86SAPS  C315 8266   4.786   6.478   7.723 -0.1122 -0.2972 -0.0566
   86SAPS  H15X 8267   4.811   6.583   7.749  1.5340 -1.2074  2.3728
   86SAPS  H15Y 8268   4.687   6.463   7.771 -1.5007  2.6217 -1.7284
   86SAPS  C316 8269   4.772   6.449   7.573 -0.3598  0.5852 -1.2883
   86SAPS  H16X 8270   4.739   6.344   7.558 -0.6214  0.2790  0.9828
   86SAPS  H16Y 8271   4.869   6.458   7.520 -1.6445 -1.0629 -4.1501
   86SAPS  C317 8272   4.682   6.555   7.507  0.5976  0.5490 -0.5111
   86SAPS  H17X 8273   4.699   6.661   7.536 -0.9055  0.8847 -0.7957
   86SAPS  H17Y 8274   4.577   6.531   7.531  0.7365 -1.3750 -1.6338
   86SAPS  C318 8275   4.690   6.541   7.350 -0.0174 -0.4672  0.0007
   86SAPS  H18X 8276   4.795   6.537   7.312  0.8764  1.1662  2.0841
   86SAPS  H18Y 8277   4.627   6.616   7.297 -0.4986 -0.7037  0.2325
   86SAPS  H18Z 8278   4.641   6.443   7.331 -0.3367 -0.7349  2.0332
   87SAPS     N 8279   5.551   6.741   9.692 -0.9547  0.0698  0.0373
   87SAPS   HN1 8280   5.453   6.775   9.688 -1.0903 -0.3562 -0.3386
   87SAPS   HN2 8281   5.571   6.708   9.788  0.2152  1.0501  0.1534
   87SAPS   HN3 8282   5.617   6.818   9.668 -0.5664 -0.0014  0.8537
   87SAPS   C12 8283   5.561   6.631   9.594 -0.5150 -0.0396  0.9716
   87SAPS  H12A 8284   5.576   6.659   9.491 -1.5070 -0.4699  0.7021
   87SAPS   C13 8285   5.676   6.537   9.629  0.0640 -0.9783 -0.7126
   87SAPS  O13A 8286   5.765   6.565   9.719  0.8078 -0.4399  0.9563
   87SAPS  O13B 8287   5.693   6.434   9.561  0.6006 -0.0394  0.1714
   87SAPS   C11 8288   5.432   6.549   9.602 -0.4893 -0.0883  0.9033
   87SAPS  H11A 8289   5.433   6.498   9.701  1.0883  0.7960  1.3777
   87SAPS  H11B 8290   5.448   6.476   9.520 -0.2299  1.6286 -0.6503
   87SAPS     P 8291   5.191   6.577   9.513 -0.0066 -0.0279  0.0764
   87SAPS   O13 8292   5.207   6.432   9.477 -0.3695  0.1982 -0.1765
   87SAPS   O14 8293   5.075   6.607   9.599 -0.3419  0.0715 -0.0367
   87SAPS   O12 8294   5.316   6.632   9.583 -0.5251 -0.2737  0.1049
   87SAPS   O11 8295   5.169   6.655   9.381 -0.2537 -0.0092 -0.0096
   87SAPS    C1 8296   5.114   6.783   9.371 -0.6548 -0.2956 -0.4262
   87SAPS    HA 8297   5.031   6.787   9.297  0.0192 -0.3184 -1.1989
   87SAPS    HB 8298   5.066   6.817   9.466  0.9017  0.7638  0.0324
   87SAPS    C2 8299   5.231   6.876   9.325  0.8631 -0.1842 -0.3346
   87SAPS    HS 8300   5.299   6.878   9.412 -0.1846  0.3789  0.4964
   87SAPS   O21 8301   5.175   7.001   9.300  0.0817 -0.3390  1.0377
   87SAPS   C21 8302   5.139   7.074   9.404 -0.3386 -0.2876  0.5755
   87SAPS   O22 8303   5.162   7.041   9.518  0.0557 -0.0484 -0.1144
   87SAPS   C22 8304   5.080   7.208   9.358 -0.4243 -0.0849  0.7763
   87SAPS   H2R 8305   5.162   7.283   9.363 -0.8794  0.3582  2.1115
   87SAPS   H2S 8306   5.032   7.203   9.259 -1.1867  0.4708  1.1064
   87SAPS    C3 8307   5.305   6.821   9.201  0.6452  0.1537  1.1175
   87SAPS    HX 8308   5.333   6.714   9.213 -0.2173 -0.1946  0.1638
   87SAPS    HY 8309   5.410   6.859   9.199  1.3871 -1.7981  0.4404
   87SAPS   O31 8310   5.231   6.829   9.076  0.1583 -0.1178 -0.1314
   87SAPS   C31 8311   5.262   6.930   8.999 -1.2421 -0.6502  0.2866
   87SAPS   O32 8312   5.351   7.010   9.014  0.3395 -0.4595  0.3177
   87SAPS   C32 8313   5.180   6.917   8.874 -0.3322 -0.6149  0.1225
   87SAPS   H2X 8314   5.095   6.987   8.889 -0.7868 -1.5818  2.4335
   87SAPS   H2Y 8315   5.152   6.811   8.854 -1.1722  0.0847 -2.9629
   87SAPS   C23 8316   4.970   7.254   9.455 -0.7644  0.1054  0.2303
   87SAPS   H3R 8317   4.945   7.358   9.425  0.4539 -0.0172 -1.3412
   87SAPS   H3S 8318   4.990   7.240   9.564 -2.3080 -1.7904  0.3379
   87SAPS   C24 8319   4.833   7.181   9.418 -0.8383  0.0600  0.0376
   87SAPS   H4R 8320   4.808   7.213   9.314 -1.6032  2.2052  0.8227
   87SAPS   H4S 8321   4.748   7.218   9.479 -0.7226  0.1552  0.1430
   87SAPS   C25 8322   4.827   7.032   9.435  0.0164  0.2946 -0.0560
   87SAPS   H5R 8323   4.830   7.004   9.542 -1.1863  0.6747  0.1026
   87SAPS   C26 8324   4.818   6.939   9.336 -0.1815 -0.6800  0.0608
   87SAPS   H6R 8325   4.805   6.833   9.365 -0.9221 -0.0173  2.3358
   87SAPS   C27 8326   4.815   6.976   9.191  0.0679 -0.5170 -0.3241
   87SAPS   H7R 8327   4.917   7.011   9.164 -0.2609  1.4458  0.7586
   87SAPS   H7S 8328   4.747   7.062   9.177  1.1060 -0.0555 -3.1107
   87SAPS   C28 8329   4.783   6.863   9.100 -0.5796 -0.1023  0.4049
   87SAPS   H8R 8330   4.770   6.761   9.139 -0.1892 -0.9511 -1.5681
   87SAPS   C29 8331   4.765   6.873   8.968  0.0513  0.1666  0.1015
   87SAPS   H9R 8332   4.726   6.789   8.909 -1.2588  0.2424  0.8178
   87SAPS  C210 8333   4.772   7.001   8.877 -0.0239  0.1315  0.0926
   87SAPS  H10R 8334   4.862   7.005   8.813 -0.7756 -0.4319 -1.0478
   87SAPS  H10S 8335   4.776   7.095   8.935  0.4412  1.1666 -1.5593
   87SAPS  C211 8336   4.653   7.013   8.782  0.1793  0.0661 -0.6016
   87SAPS  H11R 8337   4.553   7.014   8.827 -0.2244 -0.9536 -1.4295
   87SAPS  C212 8338   4.654   7.014   8.647  0.8140 -0.2014 -0.5256
   87SAPS  H12R 8339   4.563   7.052   8.599 -0.3469  0.7367  2.1828
   87SAPS  C213 8340   4.761   6.985   8.553  0.4452  0.8049  0.1515
   87SAPS  H13R 8341   4.864   6.999   8.593  0.5125 -0.2679  0.3651
   87SAPS  H13S 8342   4.767   7.066   8.477 -1.9619  1.2224  0.2989
   87SAPS  C214 8343   4.737   6.858   8.472 -0.2293 -0.4454  0.0022
   87SAPS  H14R 8344   4.718   6.766   8.531 -3.2096 -0.8523 -1.4038
   87SAPS  C215 8345   4.742   6.838   8.343 -0.1722 -0.0447  0.1256
   87SAPS  H15R 8346   4.721   6.738   8.303  0.5417  0.6848 -2.2122
   87SAPS  C216 8347   4.793   6.929   8.236  0.6922  0.0192 -0.0114
   87SAPS  H16R 8348   4.836   6.872   8.151 -2.5552 -0.7811 -1.2928
   87SAPS  H16S 8349   4.881   6.980   8.280  0.4030 -0.3326  1.0007
   87SAPS  C217 8350   4.688   7.025   8.195  0.0132  0.1729  0.7188
   87SAPS  H17R 8351   4.724   7.084   8.107 -0.7091  1.3345  1.1874
   87SAPS  H17S 8352   4.670   7.102   8.273  1.4986 -0.1368  1.4140
   87SAPS  C218 8353   4.551   6.963   8.144  0.3343 -0.0695 -0.4577
   87SAPS  H18R 8354   4.504   6.885   8.208 -0.5868  0.5379 -0.3832
   87SAPS  H18S 8355   4.574   6.910   8.048  0.4810  3.0896 -2.3082
   87SAPS  C219 8356   4.452   7.069   8.117  0.4975 -0.1458 -0.0641
   87SAPS  H19R 8357   4.433   7.134   8.206 -0.5158 -1.6335  0.8431
   87SAPS  H19S 8358   4.355   7.028   8.082  0.0864  0.2455  0.5789
   87SAPS  C220 8359   4.506   7.173   8.004 -0.0749  0.5693  0.5828
   87SAPS  H20R 8360   4.582   7.240   8.050  0.4469  0.5324 -0.2258
   87SAPS  H20S 8361   4.426   7.236   7.960 -0.3596 -0.5469 -0.5520
   87SAPS  H20T 8362   4.553   7.123   7.917  0.5862  2.0706  0.0483
   87SAPS   C33 8363   5.255   6.953   8.743  0.0061  0.3734 -0.2994
   87SAPS   H3X 8364   5.338   6.880   8.735 -0.1181  0.1422  0.4355
   87SAPS   H3Y 8365   5.284   7.059   8.729 -2.7108  0.8711 -3.5293
   87SAPS   C34 8366   5.158   6.916   8.626  0.4394  0.3641 -0.3655
   87SAPS   H4X 8367   5.090   7.003   8.612  1.0035  0.7368 -0.7933
   87SAPS   H4Y 8368   5.093   6.827   8.642 -0.5689  0.8796 -1.4917
   87SAPS   C35 8369   5.240   6.881   8.502  0.2117  0.0421 -0.6896
   87SAPS   H5X 8370   5.328   6.816   8.514  0.7651  0.6086 -1.5454
   87SAPS   H5Y 8371   5.284   6.973   8.457 -0.0848 -0.3846 -1.8795
   87SAPS   C36 8372   5.146   6.812   8.394 -0.6565 -0.3324  0.1101
   87SAPS   H6X 8373   5.080   6.891   8.352  0.8072  0.4255 -0.8669
   87SAPS   H6Y 8374   5.095   6.730   8.448 -0.9551 -0.8286 -0.8954
   87SAPS   C37 8375   5.238   6.769   8.285 -0.8177 -0.3863 -0.1057
   87SAPS   H7X 8376   5.191   6.698   8.213  2.0502 -1.3729 -1.1658
   87SAPS   H7Y 8377   5.325   6.706   8.315 -0.8934 -0.0847  0.7647
   87SAPS   C38 8378   5.278   6.885   8.196  0.2522 -0.7531  0.3699
   87SAPS   H8X 8379   5.354   6.959   8.228  0.0318  1.4525 -3.5060
   87SAPS   H8Y 8380   5.181   6.938   8.179  1.2846  1.4511  1.0128
   87SAPS   C39 8381   5.333   6.852   8.058  0.1048  0.0130  0.1722
   87SAPS   H9X 8382   5.264   6.797   7.991 -0.5169  1.6097 -0.5422
   87SAPS   H9Y 8383   5.428   6.796   8.069  0.6651  0.9023 -0.0689
   87SAPS  C310 8384   5.362   6.973   7.969  0.1003 -0.0931 -0.6822
   87SAPS  H10X 8385   5.435   7.037   8.023 -0.0742 -1.0275  0.7037
   87SAPS  H10Y 8386   5.272   7.035   7.949 -1.3804 -1.6398  0.8529
   87SAPS  C311 8387   5.426   6.935   7.833 -0.5560 -0.4938  0.9934
   87SAPS  H11X 8388   5.360   6.877   7.765  0.8269  1.0451 -1.8440
   87SAPS  H11Y 8389   5.520   6.876   7.836 -0.0583 -0.1150 -2.9554
   87SAPS  C312 8390   5.469   7.061   7.754 -1.1925 -0.3295  0.6253
   87SAPS  H12X 8391   5.557   7.111   7.800 -1.7724  0.1308  1.2588
   87SAPS  H12Y 8392   5.387   7.136   7.757 -2.4031 -1.6361  1.0849
   87SAPS  C313 8393   5.503   7.009   7.613  0.6373 -0.2419 -0.4071
   87SAPS  H13X 8394   5.420   6.967   7.552  0.1489 -0.5613  0.4648
   87SAPS  H13Y 8395   5.575   6.924   7.610 -0.4036 -1.1786  0.5466
   87SAPS  C314 8396   5.564   7.124   7.528  0.1818  0.4074  0.1176
   87SAPS  H14X 8397   5.648   7.164   7.589 -1.0274  0.0741  2.1211
   87SAPS  H14Y 8398   5.500   7.214   7.513  2.1010  1.8307  0.1778
   87SAPS  C315 8399   5.590   7.069   7.391 -0.2277  0.0102  0.4567
   87SAPS  H15X 8400   5.497   7.030   7.346  0.7345 -0.5512 -1.1377
   87SAPS  H15Y 8401   5.670   6.992   7.392 -0.0299  0.2128  0.3443
   87SAPS  C316 8402   5.638   7.189   7.299  0.2025 -0.0245 -0.2962
   87SAPS  H16X 8403   5.725   7.247   7.335 -0.3591  0.7985 -0.2254
   87SAPS  H16Y 8404   5.554   7.262   7.297 -0.8880 -0.8271  4.4397
   87SAPS  C317 8405   5.652   7.136   7.155  0.0467 -0.5129 -0.0853
   87SAPS  H17X 8406   5.563   7.075   7.128  0.1626 -0.5437 -0.3936
   87SAPS  H17Y 8407   5.734   7.061   7.163  0.1594 -0.5934 -1.7048
   87SAPS  C318 8408   5.674   7.253   7.067 -0.2039  1.0821 -0.4009
   87SAPS  H18X 8409   5.746   7.327   7.108  0.7849  0.7114 -1.4277
   87SAPS  H18Y 8410   5.582   7.315   7.061 -0.3595  1.1968  2.0595
   87SAPS  H18Z 8411   5.710   7.229   6.964  2.1393 -0.5595  0.7043
   88SAPS     N 8412   7.011   2.638  10.011 -0.2732 -0.1734 -0.4186
   88SAPS   HN1 8413   6.974   2.709  10.078  1.8969 -0.4982  1.2490
   88SAPS   HN2 8414   6.995   2.550  10.064 -1.4704 -1.3299 -2.5532
   88SAPS   HN3 8415   7.113   2.645   9.996 -0.0335  0.0331  1.1240
   88SAPS   C12 8416   6.948   2.637   9.877 -0.0537  0.7602 -0.4496
   88SAPS  H12A 8417   6.983   2.549   9.825 -0.3933 -0.2205  0.9306
   88SAPS   C13 8418   6.794   2.624   9.887 -0.6069 -0.6484 -0.1066
   88SAPS  O13A 8419   6.731   2.609   9.999 -0.1322  0.1359 -0.5433
   88SAPS  O13B 8420   6.726   2.612   9.781  0.1170 -0.5635 -0.0792
   88SAPS   C11 8421   6.992   2.763   9.806  0.9393 -0.2551 -0.0792
   88SAPS  H11A 8422   6.960   2.850   9.867  3.2896 -0.4641  1.6007
   88SAPS  H11B 8423   6.931   2.766   9.714 -0.6553  2.2912  0.9636
   88SAPS     P 8424   7.255   2.814   9.872  0.4262 -0.5189  0.0392
   88SAPS   O13 8425   7.254   2.731   9.993  0.3368  0.8222  0.5468
   88SAPS   O14 8426   7.377   2.795   9.794  0.2779  0.4809  0.3063
   88SAPS   O12 8427   7.131   2.757   9.789  0.6402  0.3929 -0.1374
   88SAPS   O11 8428   7.215   2.964   9.908  0.4179  0.1785 -0.1097
   88SAPS    C1 8429   7.251   3.069   9.815 -0.6000  0.5898 -0.5693
   88SAPS    HA 8430   7.290   3.148   9.882  0.3534 -0.1435 -0.2326
   88SAPS    HB 8431   7.336   3.047   9.746 -0.5233  0.5312 -0.4558
   88SAPS    C2 8432   7.125   3.125   9.743  0.0475  0.1595 -0.5907
   88SAPS    HS 8433   7.047   3.125   9.822 -0.0076 -2.5152 -0.5549
   88SAPS   O21 8434   7.087   3.031   9.647  0.5121 -0.4794 -0.3155
   88SAPS   C21 8435   6.960   3.047   9.598  0.0388 -0.3152  0.9612
   88SAPS   O22 8436   6.878   3.122   9.647  0.0069 -0.4849 -0.2489
   88SAPS   C22 8437   6.947   2.963   9.472 -0.2056 -0.4845  0.5652
   88SAPS   H2R 8438   7.023   2.999   9.399 -3.2797  0.6070 -2.3844
   88SAPS   H2S 8439   6.977   2.865   9.514 -0.3557 -1.0875 -0.6987
   88SAPS    C3 8440   7.145   3.268   9.692  0.1924  0.5488  0.4040
   88SAPS    HX 8441   7.198   3.320   9.774 -0.1834  1.6133 -0.0027
   88SAPS    HY 8442   7.048   3.314   9.660  0.1225 -0.3819 -0.8108
   88SAPS   O31 8443   7.244   3.271   9.585  0.5538  0.2200 -0.7125
   88SAPS   C31 8444   7.190   3.267   9.464 -0.7088  0.1267  0.3111
   88SAPS   O32 8445   7.076   3.251   9.423 -0.5155  0.2472 -0.5384
   88SAPS   C32 8446   7.318   3.282   9.371  0.9527 -0.3612  0.2016
   88SAPS   H2X 8447   7.372   3.186   9.387  0.4688 -0.5852  0.5455
   88SAPS   H2Y 8448   7.378   3.371   9.399 -0.1207 -0.3571  2.8365
   88SAPS   C23 8449   6.809   2.959   9.401 -0.2718 -0.0886  0.0215
   88SAPS   H3R 8450   6.735   2.931   9.479  0.8342 -2.2647  0.3726
   88SAPS   H3S 8451   6.801   2.868   9.339 -0.4159 -0.2509  0.2768
   88SAPS   C24 8452   6.766   3.073   9.312  0.8361 -0.0769 -0.3571
   88SAPS   H4R 8453   6.730   3.155   9.377  2.1194 -0.4421  0.8720
   88SAPS   H4S 8454   6.681   3.035   9.251  1.4671 -1.8362 -0.2028
   88SAPS   C25 8455   6.869   3.131   9.221  1.1339  0.3456 -0.3130
   88SAPS   H5R 8456   6.917   3.217   9.271 -1.5045  0.9228  1.4334
   88SAPS   C26 8457   6.882   3.102   9.091  1.1851  0.4041 -0.1992
   88SAPS   H6R 8458   6.954   3.158   9.030  2.1940  0.0391  0.6276
   88SAPS   C27 8459   6.796   3.001   9.019 -0.5837 -0.3084  0.2797
   88SAPS   H7R 8460   6.707   3.048   8.973 -0.6721  0.4577  1.2173
   88SAPS   H7S 8461   6.768   2.919   9.089 -0.9895 -0.3238  0.1017
   88SAPS   C28 8462   6.883   2.929   8.910 -0.4263  0.4979  0.5000
   88SAPS   H8R 8463   6.972   2.881   8.953 -1.3473  0.1837  2.1183
   88SAPS   C29 8464   6.861   2.942   8.774 -0.5475 -0.7892  0.3344
   88SAPS   H9R 8465   6.918   2.883   8.701  0.2299 -0.3136  0.5526
   88SAPS  C210 8466   6.745   3.022   8.717  0.3512  1.0334 -0.3629
   88SAPS  H10R 8467   6.657   3.018   8.784  1.2077  0.7650  0.7947
   88SAPS  H10S 8468   6.703   2.985   8.621  0.9908 -0.0776 -0.2385
   88SAPS  C211 8469   6.801   3.161   8.714  0.0516 -0.0976 -0.4081
   88SAPS  H11R 8470   6.835   3.197   8.812  0.0121 -1.1654  0.0081
   88SAPS  C212 8471   6.809   3.241   8.605 -0.4721  0.8796 -0.5787
   88SAPS  H12R 8472   6.823   3.350   8.612  0.0710  1.0052 -2.8849
   88SAPS  C213 8473   6.766   3.200   8.462 -0.0375 -0.2170 -0.2969
   88SAPS  H13R 8474   6.658   3.212   8.440 -0.4007 -2.7769 -0.1871
   88SAPS  H13S 8475   6.784   3.091   8.456 -0.3749 -0.3788  1.2135
   88SAPS  C214 8476   6.859   3.261   8.359 -0.2750 -0.2225 -0.1557
   88SAPS  H14R 8477   6.962   3.261   8.397 -0.7546  0.2941  1.2009
   88SAPS  C215 8478   6.826   3.316   8.241 -0.0217  0.1323  0.4363
   88SAPS  H15R 8479   6.912   3.349   8.181  1.0023  0.2526  1.9302
   88SAPS  C216 8480   6.691   3.326   8.174 -0.1284 -0.3687 -0.0748
   88SAPS  H16R 8481   6.662   3.432   8.157 -0.2355 -0.6066 -1.4968
   88SAPS  H16S 8482   6.618   3.273   8.240  1.4663 -0.0308  2.0808
   88SAPS  C217 8483   6.684   3.264   8.030 -0.4576 -0.4266  0.2308
   88SAPS  H17R 8484   6.580   3.269   7.991 -0.8183  3.2871  1.2733
   88SAPS  H17S 8485   6.729   3.162   8.031  0.6857  0.0507 -0.6382
   88SAPS  C218 8486   6.773   3.346   7.928 -0.3159  0.3490 -0.1137
   88SAPS  H18R 8487   6.874   3.352   7.974 -0.3958  0.7010  0.0152
   88SAPS  H18S 8488   6.726   3.445   7.914 -3.5932 -1.0920 -0.3174
   88SAPS  C219 8489   6.790   3.287   7.790  0.2203 -0.1384 -0.4088
   88SAPS  H19R 8490   6.696   3.291   7.732  0.3559 -1.4585 -0.7563
   88SAPS  H19S 8491   6.817   3.179   7.801  1.1722  0.1433  0.1499
   88SAPS  C220 8492   6.909   3.342   7.699  0.4598  0.3598 -0.0006
   88SAPS  H20R 8493   6.875   3.434   7.647 -3.3735  0.6178  2.5105
   88SAPS  H20S 8494   6.936   3.259   7.630 -2.6953 -1.7789  1.0751
   88SAPS  H20T 8495   6.995   3.368   7.764 -0.9990 -0.6026  2.4910
   88SAPS   C33 8496   7.273   3.291   9.220 -0.1839 -0.2692 -0.1001
   88SAPS   H3X 8497   7.190   3.364   9.207  0.5930  0.7368  0.3797
   88SAPS   H3Y 8498   7.221   3.196   9.195 -1.6822  0.7237 -0.9776
   88SAPS   C34 8499   7.391   3.307   9.120  0.3148 -0.4772 -0.0789
   88SAPS   H4X 8500   7.465   3.224   9.121  1.2338  0.3291  0.1453
   88SAPS   H4Y 8501   7.440   3.399   9.159  0.6900 -0.3668 -0.7902
   88SAPS   C35 8502   7.349   3.340   8.976 -0.0695  0.5497  0.8660
   88SAPS   H5X 8503   7.442   3.376   8.926 -0.5040  0.4902 -0.0001
   88SAPS   H5Y 8504   7.264   3.411   8.978 -0.2577  0.4161 -0.9801
   88SAPS   C36 8505   7.321   3.220   8.885  0.2697  0.3383 -0.6857
   88SAPS   H6X 8506   7.227   3.178   8.928  0.4239  1.3075  0.6762
   88SAPS   H6Y 8507   7.399   3.140   8.882  1.6673  1.6699 -0.7927
   88SAPS   C37 8508   7.296   3.250   8.730  0.2812  0.4390 -0.3471
   88SAPS   H7X 8509   7.396   3.290   8.700  0.6124  0.6506  0.9822
   88SAPS   H7Y 8510   7.218   3.328   8.713  0.5160  1.1132  1.5004
   88SAPS   C38 8511   7.255   3.122   8.654 -0.8216 -0.3038 -0.2610
   88SAPS   H8X 8512   7.158   3.081   8.690 -1.0279  1.0542  0.8430
   88SAPS   H8Y 8513   7.334   3.047   8.675 -0.8312 -0.6132 -1.2747
   88SAPS   C39 8514   7.220   3.149   8.510 -0.0223  0.4606 -0.3793
   88SAPS   H9X 8515   7.310   3.196   8.465 -1.1406  2.5084 -0.5960
   88SAPS   H9Y 8516   7.132   3.215   8.497  1.7666  2.7744 -1.4637
   88SAPS  C310 8517   7.197   3.023   8.423  0.1168  0.4131 -0.2683
   88SAPS  H10X 8518   7.110   2.962   8.455  1.1086 -1.6177 -1.2515
   88SAPS  H10Y 8519   7.286   2.956   8.416 -0.7127 -0.8919  1.1750
   88SAPS  C311 8520   7.175   3.070   8.274  0.7335  0.4930  1.0556
   88SAPS  H11X 8521   7.267   3.120   8.237  0.7216  0.7376  1.3466
   88SAPS  H11Y 8522   7.084   3.134   8.271  1.5627  1.6781 -0.7993
   88SAPS  C312 8523   7.155   2.949   8.182 -0.6002  0.0322  0.1416
   88SAPS  H12X 8524   7.070   2.887   8.215  0.2880 -1.2959  0.0079
   88SAPS  H12Y 8525   7.253   2.897   8.175  1.2804  3.3714 -0.8859
   88SAPS  C313 8526   7.123   2.999   8.034 -0.3268 -0.2250  0.6696
   88SAPS  H13X 8527   7.208   3.037   7.972  0.2713  1.6504  2.5363
   88SAPS  H13Y 8528   7.047   3.079   8.041  0.0693  0.3083 -0.7298
   88SAPS  C314 8529   7.044   2.884   7.954 -0.7345 -0.5120 -0.1871
   88SAPS  H14X 8530   6.963   2.846   8.020  1.1719  1.2414  3.4175
   88SAPS  H14Y 8531   7.120   2.803   7.946 -0.7942 -0.6544  0.6497
   88SAPS  C315 8532   6.978   2.937   7.819 -0.3455 -0.6380 -0.3042
   88SAPS  H15X 8533   7.024   3.024   7.767 -1.5916 -0.3433 -0.9348
   88SAPS  H15Y 8534   6.878   2.966   7.856  0.1207 -0.2296  0.6860
   88SAPS  C316 8535   6.945   2.824   7.716  0.1670 -0.3997  0.2506
   88SAPS  H16X 8536   6.912   2.726   7.754  1.4603 -0.7931  0.4022
   88SAPS  H16Y 8537   7.040   2.810   7.660 -0.0219 -1.7494  0.2450
   88SAPS  C317 8538   6.851   2.882   7.605 -1.0180  0.2962 -0.2441
   88SAPS  H17X 8539   6.893   2.974   7.558 -2.0048  1.2381  0.6425
   88SAPS  H17Y 8540   6.751   2.901   7.651  0.0509 -0.8629  2.7484
   88SAPS  C318 8541   6.830   2.777   7.493 -0.2315  0.3432  0.0651
   88SAPS  H18X 8542   6.929   2.741   7.460 -0.1523  0.3403  0.3062
   88SAPS  H18Y 8543   6.761   2.821   7.417 -0.3242  0.0174 -0.0375
   88SAPS  H18Z 8544   6.785   2.685   7.535 -0.3677  0.1362 -0.5298
   89SAPS     N 8545   5.453   0.873   9.811 -0.2095  0.1821 -0.8900
   89SAPS   HN1 8546   5.365   0.817   9.809 -0.2970  0.3157 -3.0760
   89SAPS   HN2 8547   5.448   0.949   9.882  1.2010 -0.7752  0.3096
   89SAPS   HN3 8548   5.468   0.913   9.717  1.8427 -1.3163 -1.2676
   89SAPS   C12 8549   5.566   0.796   9.856  0.0882 -0.3632  0.7152
   89SAPS  H12A 8550   5.646   0.863   9.883  1.9278 -2.7321  1.5971
   89SAPS   C13 8551   5.546   0.727   9.989 -0.3343  0.3448  0.0243
   89SAPS  O13A 8552   5.427   0.703  10.028  0.0459  0.1758 -0.1906
   89SAPS  O13B 8553   5.641   0.669  10.036  1.0459 -0.1926 -0.0655
   89SAPS   C11 8554   5.615   0.699   9.744  0.1033 -0.2915 -0.8856
   89SAPS  H11A 8555   5.540   0.620   9.726 -0.2383  0.0311 -0.8967
   89SAPS  H11B 8556   5.706   0.655   9.791  0.0417  1.9387  1.5599
   89SAPS     P 8557   5.767   0.722   9.540  0.1317 -0.1547 -0.0087
   89SAPS   O13 8558   5.891   0.779   9.592 -0.3154 -0.5108  0.0908
   89SAPS   O14 8559   5.767   0.576   9.511 -0.5108 -0.3661 -0.2275
   89SAPS   O12 8560   5.639   0.765   9.620 -0.2648 -0.0611 -0.0948
   89SAPS   O11 8561   5.730   0.805   9.409 -0.0909  0.3133  0.5240
   89SAPS    C1 8562   5.824   0.815   9.299  0.2787  0.1630  0.4873
   89SAPS    HA 8563   5.816   0.911   9.244  0.4233 -0.5592 -0.8275
   89SAPS    HB 8564   5.926   0.827   9.341  0.8989 -0.3913 -0.8221
   89SAPS    C2 8565   5.833   0.686   9.210  0.3127  1.3121 -0.0103
   89SAPS    HS 8566   5.859   0.604   9.280 -1.4082  0.5952 -0.1674
   89SAPS   O21 8567   5.931   0.719   9.109 -0.1468 -0.1256 -0.7530
   89SAPS   C21 8568   6.004   0.623   9.068 -0.1028 -0.2662  0.6783
   89SAPS   O22 8569   5.988   0.504   9.096  0.1388 -0.3608  0.1056
   89SAPS   C22 8570   6.117   0.676   8.974 -0.6675 -0.2336  0.0242
   89SAPS   H2R 8571   6.079   0.651   8.873 -0.0918  1.3242 -0.5956
   89SAPS   H2S 8572   6.132   0.785   8.988  1.1339 -0.5201  0.6094
   89SAPS    C3 8573   5.701   0.645   9.139 -0.2744  0.1786  0.1894
   89SAPS    HX 8574   5.663   0.731   9.081  1.1819  0.1057 -0.9331
   89SAPS    HY 8575   5.612   0.619   9.201 -0.1446 -0.1149  0.2583
   89SAPS   O31 8576   5.724   0.550   9.040 -0.2180 -0.3700  0.1543
   89SAPS   C31 8577   5.683   0.427   9.060 -0.2385 -0.3715 -1.1323
   89SAPS   O32 8578   5.615   0.398   9.156  0.2905  0.3153 -0.2083
   89SAPS   C32 8579   5.719   0.330   8.947 -0.1403  0.2924 -0.1714
   89SAPS   H2X 8580   5.716   0.233   9.000 -0.7998  0.2648 -0.2505
   89SAPS   H2Y 8581   5.818   0.361   8.907 -0.4384 -0.2828 -1.4215
   89SAPS   C23 8582   6.257   0.607   8.995  0.0788  0.4402 -0.2291
   89SAPS   H3R 8583   6.244   0.497   8.984 -0.6026  0.3706  0.9685
   89SAPS   H3S 8584   6.291   0.618   9.100  1.0664 -1.8699 -0.2442
   89SAPS   C24 8585   6.366   0.644   8.891  0.3299  0.5001 -0.0205
   89SAPS   H4R 8586   6.349   0.606   8.788  3.2072 -3.0429  0.5878
   89SAPS   H4S 8587   6.458   0.587   8.917 -1.9136 -3.4912  0.0683
   89SAPS   C25 8588   6.388   0.794   8.903  0.0184 -0.4716  0.4196
   89SAPS   H5R 8589   6.419   0.827   9.004 -2.6550  1.8268  0.6105
   89SAPS   C26 8590   6.383   0.873   8.794  0.9355  0.2697  0.0303
   89SAPS   H6R 8591   6.395   0.981   8.810  0.6027  0.1753  0.9402
   89SAPS   C27 8592   6.359   0.834   8.650 -1.0067  0.0365 -0.2432
   89SAPS   H7R 8593   6.419   0.741   8.634  1.2702  0.7718  2.9757
   89SAPS   H7S 8594   6.402   0.910   8.582 -0.1527 -1.7828 -1.8593
   89SAPS   C28 8595   6.212   0.828   8.618 -0.5354  0.4077 -0.2738
   89SAPS   H8R 8596   6.154   0.803   8.708  1.3494 -1.9189  0.3952
   89SAPS   C29 8597   6.151   0.844   8.501 -1.0546  0.4768  0.1652
   89SAPS   H9R 8598   6.041   0.852   8.503 -1.0808  0.8247 -1.4428
   89SAPS  C210 8599   6.221   0.858   8.368 -0.7731 -0.7497 -0.6305
   89SAPS  H10R 8600   6.308   0.925   8.380 -1.3223 -0.2017  0.5042
   89SAPS  H10S 8601   6.143   0.911   8.309 -0.4468  0.4196 -0.0428
   89SAPS  C211 8602   6.270   0.734   8.295  0.4862  0.1789  1.1968
   89SAPS  H11R 8603   6.338   0.667   8.349  0.9369  1.6391  2.5312
   89SAPS  C212 8604   6.229   0.711   8.164  0.0172 -0.7056  0.0434
   89SAPS  H12R 8605   6.267   0.614   8.126  1.5869 -0.1714  0.1739
   89SAPS  C213 8606   6.133   0.791   8.072  0.1033  0.0397  0.6186
   89SAPS  H13R 8607   6.100   0.894   8.098 -1.4540  0.4468 -2.4611
   89SAPS  H13S 8608   6.034   0.743   8.060  0.4484 -0.4403 -0.5193
   89SAPS  C214 8609   6.195   0.790   7.936 -0.5856  0.0159  0.5488
   89SAPS  H14R 8610   6.294   0.838   7.928 -0.2142 -0.8621 -0.3549
   89SAPS  C215 8611   6.154   0.737   7.819  0.4358  0.0285 -0.3894
   89SAPS  H15R 8612   6.214   0.756   7.729  2.8848 -2.3964  0.5976
   89SAPS  C216 8613   6.018   0.668   7.804 -0.3724  0.6333 -0.1445
   89SAPS  H16R 8614   5.961   0.700   7.714 -1.0852  0.3924  0.2106
   89SAPS  H16S 8615   5.951   0.697   7.887  0.1558  1.9824 -0.1693
   89SAPS  C217 8616   6.026   0.513   7.801  0.2222 -0.2106 -0.2870
   89SAPS  H17R 8617   6.068   0.472   7.895  2.1103 -0.5114 -1.2123
   89SAPS  H17S 8618   6.096   0.483   7.720  1.6373  2.4545 -0.1446
   89SAPS  C218 8619   5.885   0.453   7.777 -0.0357  0.1318  0.9110
   89SAPS  H18R 8620   5.840   0.494   7.684 -0.3395 -0.3428  0.8418
   89SAPS  H18S 8621   5.821   0.477   7.864 -0.5281  1.0808  0.3020
   89SAPS  C219 8622   5.906   0.298   7.752  0.0097 -0.0639  0.7349
   89SAPS  H19R 8623   5.968   0.269   7.839  0.0009  1.0910  1.1400
   89SAPS  H19S 8624   5.962   0.271   7.660  0.7942  1.9898  0.5684
   89SAPS  C220 8625   5.772   0.218   7.756 -0.5159 -0.3651 -0.0629
   89SAPS  H20R 8626   5.711   0.232   7.664 -3.4436 -1.4424  1.5864
   89SAPS  H20S 8627   5.711   0.235   7.847 -0.1052 -1.2732  0.3982
   89SAPS  H20T 8628   5.803   0.111   7.758 -1.6976 -0.7244 -0.2461
   89SAPS   C33 8629   5.636   0.334   8.819  0.2344  0.3121 -0.9564
   89SAPS   H3X 8630   5.690   0.269   8.746  0.5915 -0.9303  0.3701
   89SAPS   H3Y 8631   5.634   0.438   8.780 -1.1044  0.7234  0.1470
   89SAPS   C34 8632   5.491   0.291   8.838 -0.5556  1.0327 -0.2853
   89SAPS   H4X 8633   5.435   0.324   8.748  0.2158  1.7395 -0.5271
   89SAPS   H4Y 8634   5.438   0.345   8.919 -2.2775 -0.4634 -0.3660
   89SAPS   C35 8635   5.464   0.138   8.843  0.0202  0.7624  0.3508
   89SAPS   H5X 8636   5.356   0.112   8.835  0.4498 -1.6926  1.4819
   89SAPS   H5Y 8637   5.501   0.100   8.941  0.1428  0.7326  0.2930
   89SAPS   C36 8638   5.533   0.056   8.722 -0.1923 -0.6692 -0.2425
   89SAPS   H6X 8639   5.531  -0.051   8.751 -2.3872 -0.3038  1.2149
   89SAPS   H6Y 8640   5.642   0.077   8.727 -0.3315  0.0006  0.2616
   89SAPS   C37 8641   5.472   0.098   8.591 -0.1784  0.4094 -0.1821
   89SAPS   H7X 8642   5.487   0.205   8.567 -0.0548  1.1333  2.7238
   89SAPS   H7Y 8643   5.362   0.095   8.600 -0.3104  0.1964 -1.6196
   89SAPS   C38 8644   5.520  -0.002   8.488 -0.2508 -0.8910  0.2076
   89SAPS   H8X 8645   5.481  -0.104   8.508 -1.0683 -0.7534 -0.6355
   89SAPS   H8Y 8646   5.630  -0.015   8.499  0.2722  0.0000 -2.9908
   89SAPS   C39 8647   5.491   0.034   8.348 -0.0069 -0.2128 -0.1134
   89SAPS   H9X 8648   5.381   0.052   8.339  0.3415  2.6047  0.3628
   89SAPS   H9Y 8649   5.526  -0.055   8.291  1.4211 -0.7274  1.5129
   89SAPS  C310 8650   5.567   0.157   8.291 -0.6504 -0.5502 -0.2231
   89SAPS  H10X 8651   5.542   0.255   8.337 -0.3182 -0.2500 -0.6677
   89SAPS  H10Y 8652   5.532   0.168   8.186  0.5586  1.6433 -0.4681
   89SAPS  C311 8653   5.717   0.154   8.315  0.3772 -0.3883 -0.3222
   89SAPS  H11X 8654   5.752   0.049   8.304 -1.1052 -0.9525  0.0541
   89SAPS  H11Y 8655   5.749   0.195   8.413  1.6894 -0.1158 -0.8430
   89SAPS  C312 8656   5.791   0.239   8.211  0.5940  0.2493 -0.3991
   89SAPS  H12X 8657   5.749   0.342   8.216 -0.4832 -0.1709 -0.6328
   89SAPS  H12Y 8658   5.779   0.216   8.103  1.6769 -0.1015 -0.4549
   89SAPS  C313 8659   5.935   0.266   8.250  0.0694 -0.0339  0.0850
   89SAPS  H13X 8660   5.923   0.307   8.352 -3.7268 -0.2170 -0.1331
   89SAPS  H13Y 8661   5.978   0.340   8.179  0.3194 -0.5826 -0.3490
   89SAPS  C314 8662   6.025   0.150   8.234 -0.2824  0.4575 -0.3179
   89SAPS  H14X 8663   5.970   0.067   8.283 -0.6831  1.0877  0.3244
   89SAPS  H14Y 8664   6.125   0.167   8.279 -0.4811  0.7841  0.0007
   89SAPS  C315 8665   6.049   0.125   8.085  1.2237  0.4296  0.0556
   89SAPS  H15X 8666   6.076   0.213   8.021 -2.5157  0.0789 -2.3252
   89SAPS  H15Y 8667   5.952   0.090   8.044  0.9157 -0.9634  1.8507
   89SAPS  C316 8668   6.139   0.005   8.061 -0.3967  0.1677 -0.2057
   89SAPS  H16X 8669   6.085  -0.079   8.109 -0.6703  0.5157  0.1008
   89SAPS  H16Y 8670   6.231   0.018   8.121 -0.7586  1.2096  0.1650
   89SAPS  C317 8671   6.183  -0.023   7.916  0.7192 -0.4078  0.5237
   89SAPS  H17X 8672   6.265  -0.097   7.928 -0.4619 -2.0048 -0.9401
   89SAPS  H17Y 8673   6.222   0.074   7.877  0.7179  0.5760  2.7513
   89SAPS  C318 8674   6.075  -0.076   7.815 -0.2874 -0.0576  0.0031
   89SAPS  H18X 8675   5.989  -0.010   7.791 -0.2618 -1.3093 -4.3934
   89SAPS  H18Y 8676   6.045  -0.178   7.846  1.9767 -1.4073 -1.8727
   89SAPS  H18Z 8677   6.139  -0.093   7.725  2.0049  2.2940  1.0600
   90SAPS     N 8678   0.457   0.509   9.889 -0.1570  0.1030 -0.5434
   90SAPS   HN1 8679   0.473   0.564   9.802  0.3676  0.4187 -0.2581
   90SAPS   HN2 8680   0.550   0.468   9.914 -0.7752  0.0461  1.8831
   90SAPS   HN3 8681   0.387   0.433   9.878 -2.8595  2.6710 -2.5377
   90SAPS   C12 8682   0.424   0.595  10.001  1.2754  0.1157 -0.9553
   90SAPS  H12A 8683   0.409   0.531  10.087  4.2714  0.5638 -0.0074
   90SAPS   C13 8684   0.527   0.703  10.040  0.2579 -0.2983  0.1225
   90SAPS  O13A 8685   0.630   0.727   9.975 -0.9456 -0.1922 -0.3274
   90SAPS  O13B 8686   0.492   0.766  10.149 -0.1796  0.5439 -0.4902
   90SAPS   C11 8687   0.282   0.662   9.979 -0.7035  0.8618 -0.2362
   90SAPS  H11A 8688   0.260   0.717  10.073  1.7876  1.3452  0.1301
   90SAPS  H11B 8689   0.214   0.578   9.953 -1.3383  1.5837 -0.9298
   90SAPS     P 8690   0.171   0.846   9.833  0.2654 -0.1227  0.6844
   90SAPS   O13 8691   0.051   0.810   9.914 -0.1458 -0.4279  0.2000
   90SAPS   O14 8692   0.220   0.987   9.829  0.1989  0.5040  0.3707
   90SAPS   O12 8693   0.289   0.748   9.869  0.4862 -0.2476 -0.6478
   90SAPS   O11 8694   0.135   0.800   9.695 -0.1305  0.0146  0.3536
   90SAPS    C1 8695   0.222   0.726   9.610  0.5113 -0.4729  0.2190
   90SAPS    HA 8696   0.271   0.641   9.661 -2.4834 -0.9391  2.6738
   90SAPS    HB 8697   0.157   0.681   9.532 -0.9840  3.3538 -0.9985
   90SAPS    C2 8698   0.318   0.818   9.531 -0.2468  0.6670  0.7210
   90SAPS    HS 8699   0.400   0.838   9.602 -1.3203 -1.7705  2.8142
   90SAPS   O21 8700   0.246   0.936   9.497  0.4170  0.3464  0.5142
   90SAPS   C21 8701   0.314   1.034   9.433  0.5585 -0.0047  0.3028
   90SAPS   O22 8702   0.435   1.038   9.417 -0.2852  0.0420  0.2641
   90SAPS   C22 8703   0.215   1.132   9.377 -0.2336  0.2463  0.7079
   90SAPS   H2R 8704   0.112   1.100   9.405 -0.4736  0.8629  0.5386
   90SAPS   H2S 8705   0.231   1.236   9.412 -2.4854  0.8265  0.2280
   90SAPS    C3 8706   0.379   0.745   9.405 -0.2100 -0.5574 -0.1763
   90SAPS    HX 8707   0.415   0.646   9.442  0.3869  0.0824  1.0297
   90SAPS    HY 8708   0.463   0.796   9.354 -0.0559  1.2936  1.7766
   90SAPS   O31 8709   0.273   0.712   9.316 -0.2879  0.1183  0.1385
   90SAPS   C31 8710   0.243   0.590   9.280 -0.1347 -0.0301 -0.4160
   90SAPS   O32 8711   0.290   0.489   9.321  0.0456  0.4194  0.0289
   90SAPS   C32 8712   0.144   0.596   9.168 -0.7827 -0.2851 -0.1902
   90SAPS   H2X 8713   0.101   0.699   9.158 -0.2190 -0.0011  0.2588
   90SAPS   H2Y 8714   0.057   0.539   9.208 -1.0548 -0.2638 -0.7488
   90SAPS   C23 8715   0.211   1.124   9.219  0.0270 -0.4648 -0.3379
   90SAPS   H3R 8716   0.198   1.019   9.184 -1.6572  0.5673 -3.1216
   90SAPS   H3S 8717   0.309   1.156   9.177  0.6062 -0.2538  1.1255
   90SAPS   C24 8718   0.097   1.212   9.158  1.6964  0.5687 -0.0079
   90SAPS   H4R 8719   0.115   1.219   9.049  0.0979 -1.6222 -0.4777
   90SAPS   H4S 8720   0.126   1.309   9.205 -1.0671  1.2653  0.4542
   90SAPS   C25 8721  -0.051   1.174   9.178  0.3864 -0.0561  0.4178
   90SAPS   H5R 8722  -0.089   1.155   9.280 -0.1086  0.8567  0.4143
   90SAPS   C26 8723  -0.146   1.168   9.075 -1.1884 -0.0461  0.3412
   90SAPS   H6R 8724  -0.250   1.148   9.106 -1.4267  0.7742  0.0843
   90SAPS   C27 8725  -0.131   1.191   8.927  0.4204 -0.1835  0.0866
   90SAPS   H7R 8726  -0.218   1.152   8.872  1.6592 -0.4055 -1.7947
   90SAPS   H7S 8727  -0.044   1.130   8.895  0.0877 -0.8718  0.4902
   90SAPS   C28 8728  -0.087   1.334   8.895  0.1743 -0.8917  0.7022
   90SAPS   H8R 8729  -0.050   1.399   8.976 -0.2757 -1.3262  1.2598
   90SAPS   C29 8730  -0.108   1.385   8.774  0.2432  0.3085 -0.7043
   90SAPS   H9R 8731  -0.077   1.487   8.743  0.8231  0.0319 -1.0537
   90SAPS  C210 8732  -0.167   1.312   8.657 -0.0691  0.3454 -0.4222
   90SAPS  H10R 8733  -0.221   1.219   8.685  2.2240 -0.3984  1.9610
   90SAPS  H10S 8734  -0.091   1.265   8.591 -1.7425 -1.0904 -1.4301
   90SAPS  C211 8735  -0.255   1.395   8.563  0.3257  0.5195 -0.9211
   90SAPS  H11R 8736  -0.324   1.453   8.627  1.2593 -1.4438  2.1271
   90SAPS  C212 8737  -0.232   1.400   8.428  0.1216 -0.3412 -0.0989
   90SAPS  H12R 8738  -0.308   1.463   8.378 -0.4363 -0.2925  0.7913
   90SAPS  C213 8739  -0.118   1.336   8.347  0.0384  0.0461 -0.6866
   90SAPS  H13R 8740  -0.022   1.351   8.401  0.6507 -0.7678 -1.5107
   90SAPS  H13S 8741  -0.115   1.405   8.260 -1.4552  1.3702  0.2533
   90SAPS  C214 8742  -0.135   1.196   8.307  0.2220  0.2859  0.0322
   90SAPS  H14R 8743  -0.118   1.127   8.391  0.7643  0.7688  0.3244
   90SAPS  C215 8744  -0.175   1.148   8.189  0.0873  0.2919  0.3050
   90SAPS  H15R 8745  -0.169   1.039   8.178 -3.3298 -0.0152  0.5050
   90SAPS  C216 8746  -0.219   1.231   8.069 -0.4750 -0.1122  0.3010
   90SAPS  H16R 8747  -0.225   1.337   8.100 -0.4042 -0.5084  1.7395
   90SAPS  H16S 8748  -0.314   1.196   8.023  0.1262 -0.2638 -0.8694
   90SAPS  C217 8749  -0.103   1.230   7.960  0.7710  0.4578 -1.0222
   90SAPS  H17R 8750  -0.115   1.140   7.896 -2.6725  0.3941 -0.5175
   90SAPS  H17S 8751  -0.007   1.212   8.014  0.8394  1.4766 -0.7807
   90SAPS  C218 8752  -0.079   1.355   7.878  0.6777 -1.2736 -0.3931
   90SAPS  H18R 8753   0.005   1.331   7.810  1.0394 -1.2572  0.0386
   90SAPS  H18S 8754  -0.048   1.444   7.938 -1.1818  1.0028 -2.5796
   90SAPS  C219 8755  -0.205   1.403   7.798 -0.8819 -0.3866  0.3288
   90SAPS  H19R 8756  -0.282   1.442   7.868  0.0360  1.4968  0.3485
   90SAPS  H19S 8757  -0.247   1.313   7.748  1.2396 -1.4531  0.3351
   90SAPS  C220 8758  -0.187   1.499   7.681 -0.0854  0.1506 -0.3211
   90SAPS  H20R 8759  -0.111   1.580   7.695 -1.6718  1.9893 -1.7525
   90SAPS  H20S 8760  -0.282   1.553   7.665  0.6634  0.7204 -3.4611
   90SAPS  H20T 8761  -0.166   1.431   7.596 -2.0759 -0.8448 -0.0780
   90SAPS   C33 8762   0.180   0.540   9.029 -0.3162 -0.0160  0.2059
   90SAPS   H3X 8763   0.208   0.433   9.039  4.2968  0.4566 -3.5837
   90SAPS   H3Y 8764   0.279   0.583   9.000 -0.8360  1.2341  0.2154
   90SAPS   C34 8765   0.080   0.564   8.908 -0.0121  0.4637  0.7182
   90SAPS   H4X 8766   0.128   0.519   8.818 -0.8807 -0.8338  0.8777
   90SAPS   H4Y 8767   0.063   0.671   8.881  1.1849  0.8235  1.3177
   90SAPS   C35 8768  -0.044   0.483   8.920  0.5837 -0.0923  0.4099
   90SAPS   H5X 8769  -0.078   0.520   9.019 -0.4594  0.4811 -0.1594
   90SAPS   H5Y 8770  -0.016   0.375   8.919  0.9478 -0.0034 -0.9335
   90SAPS   C36 8771  -0.149   0.521   8.813 -0.0512 -0.2232 -0.4984
   90SAPS   H6X 8772  -0.142   0.630   8.798 -0.7259  0.1658  1.6939
   90SAPS   H6Y 8773  -0.247   0.496   8.859 -0.4469 -1.5970 -1.9906
   90SAPS   C37 8774  -0.126   0.449   8.685  0.1661 -0.0025 -0.7482
   90SAPS   H7X 8775  -0.112   0.341   8.706  1.0239 -0.0443 -1.4859
   90SAPS   H7Y 8776  -0.028   0.474   8.639  0.9825 -1.0749  0.3710
   90SAPS   C38 8777  -0.239   0.468   8.584 -0.3860 -0.5220 -0.0632
   90SAPS   H8X 8778  -0.268   0.572   8.559 -1.4085 -1.2141 -2.0572
   90SAPS   H8Y 8779  -0.330   0.433   8.637  0.4097 -1.2243  0.8792
   90SAPS   C39 8780  -0.226   0.372   8.464 -0.8896  0.0496  0.8701
   90SAPS   H9X 8781  -0.144   0.300   8.485 -1.7123 -1.1971 -0.0841
   90SAPS   H9Y 8782  -0.182   0.433   8.381 -1.1421 -0.4888  0.3391
   90SAPS  C310 8783  -0.362   0.328   8.414  0.0718  0.5295  0.0794
   90SAPS  H10X 8784  -0.409   0.280   8.503  0.4530 -1.3228 -0.6624
   90SAPS  H10Y 8785  -0.338   0.241   8.350  1.2137 -0.5039  1.8177
   90SAPS  C311 8786  -0.456   0.427   8.344  0.2376 -0.0098  0.5229
   90SAPS  H11X 8787  -0.506   0.364   8.268  2.0122  0.5206 -1.1744
   90SAPS  H11Y 8788  -0.389   0.501   8.295  1.3922 -2.0925 -1.2098
   90SAPS  C312 8789  -0.574   0.494   8.425 -0.9515 -0.1490  1.0289
   90SAPS  H12X 8790  -0.601   0.583   8.364 -0.3518  1.5932  3.1750
   90SAPS  H12Y 8791  -0.535   0.528   8.523  1.4557  1.2359 -0.3095
   90SAPS  C313 8792  -0.692   0.405   8.442  0.3228  0.4337 -0.3016
   90SAPS  H13X 8793  -0.656   0.303   8.470 -1.6314 -0.6306 -1.4979
   90SAPS  H13Y 8794  -0.741   0.409   8.343  3.0974 -0.2010 -1.8282
   90SAPS  C314 8795  -0.770   0.445   8.561 -0.2066 -0.7407 -0.7050
   90SAPS  H14X 8796  -0.799   0.552   8.556 -1.8770 -0.8987  2.7758
   90SAPS  H14Y 8797  -0.700   0.442   8.648  3.5024 -1.0248 -3.4159
   90SAPS  C315 8798  -0.901   0.366   8.572 -0.6542  0.2180 -0.2534
   90SAPS  H15X 8799  -0.880   0.260   8.546  0.6421  0.4930 -0.3617
   90SAPS  H15Y 8800  -0.970   0.405   8.494  0.1291  2.6234  0.1838
   90SAPS  C316 8801  -0.962   0.379   8.710  0.8980 -0.1580 -0.1881
   90SAPS  H16X 8802  -1.018   0.474   8.722  2.5833  0.6149  2.5048
   90SAPS  H16Y 8803  -0.889   0.381   8.793  0.9252  3.3034 -0.1587
   90SAPS  C317 8804  -1.045   0.264   8.766 -0.0670  0.1824  0.1178
   90SAPS  H17X 8805  -1.088   0.298   8.863 -0.3121 -2.8684  1.1992
   90SAPS  H17Y 8806  -0.973   0.180   8.776 -0.3620 -0.4903 -2.6207
   90SAPS  C318 8807  -1.155   0.213   8.677  0.5720  0.1656  0.9852
   90SAPS  H18X 8808  -1.208   0.119   8.706 -0.6918  0.1905 -1.0134
   90SAPS  H18Y 8809  -1.102   0.203   8.580  1.2256 -0.8535  1.4276
   90SAPS  H18Z 8810  -1.240   0.284   8.676  1.5288  1.4247 -2.0752
   91SAPS     N 8811   3.486   3.396   5.551 -0.8225 -0.3958  0.4978
   91SAPS   HN1 8812   3.585   3.422   5.569 -1.1633  1.9806 -0.6311
   91SAPS   HN2 8813   3.455   3.360   5.643 -0.0258 -0.6272  0.6825
   91SAPS   HN3 8814   3.479   3.314   5.487 -1.2402  0.7817 -1.0418
   91SAPS   C12 8815   3.398   3.500   5.489 -0.0486  0.0884 -0.3983
   91SAPS  H12A 8816   3.466   3.541   5.416  0.1499 -1.1706 -0.9454
   91SAPS   C13 8817   3.279   3.443   5.413 -0.5176 -0.1380  0.0631
   91SAPS  O13A 8818   3.267   3.316   5.394  0.3758 -0.3203  0.3021
   91SAPS  O13B 8819   3.207   3.522   5.348 -0.3796  0.0564  0.2567
   91SAPS   C11 8820   3.349   3.600   5.595 -0.0189 -0.1762 -0.1772
   91SAPS  H11A 8821   3.274   3.549   5.660  0.7391  0.1214  0.9582
   91SAPS  H11B 8822   3.297   3.680   5.539  1.4057  0.5463 -0.5133
   91SAPS     P 8823   3.483   3.614   5.819  0.1652  0.1782  0.1335
   91SAPS   O13 8824   3.504   3.467   5.828  0.2437  0.7507  0.0153
   91SAPS   O14 8825   3.593   3.703   5.870 -0.4066 -0.1687 -0.0020
   91SAPS   O12 8826   3.450   3.659   5.670  0.3279  0.0581 -0.2040
   91SAPS   O11 8827   3.341   3.650   5.881 -0.1545  0.3863 -0.5712
   91SAPS    C1 8828   3.293   3.786   5.871 -0.4494 -0.0840  0.7539
   91SAPS    HA 8829   3.371   3.862   5.894  0.1841 -0.3006 -0.5939
   91SAPS    HB 8830   3.262   3.810   5.767 -2.1189  1.3740  1.5264
   91SAPS    C2 8831   3.168   3.802   5.965  0.2274  0.1000 -0.1193
   91SAPS    HS 8832   3.125   3.899   5.933  1.6885  1.7223  2.4617
   91SAPS   O21 8833   3.204   3.821   6.101  0.2664  0.4199 -0.0067
   91SAPS   C21 8834   3.110   3.844   6.185 -0.2941 -0.3168 -0.0176
   91SAPS   O22 8835   2.995   3.875   6.162  0.1638 -0.3894  0.0003
   91SAPS   C22 8836   3.164   3.818   6.327 -0.2496 -0.0346  1.0009
   91SAPS   H2R 8837   3.113   3.892   6.392 -0.6152  0.7846 -0.1905
   91SAPS   H2S 8838   3.123   3.725   6.373 -0.4178  0.1583  1.2383
   91SAPS    C3 8839   3.062   3.684   5.950 -0.1446  0.2249  0.8949
   91SAPS    HX 8840   3.085   3.641   5.849 -2.3075 -1.0004  0.8600
   91SAPS    HY 8841   2.953   3.707   5.949 -0.3075 -0.4404  1.6262
   91SAPS   O31 8842   3.080   3.587   6.056 -0.2962 -0.0051 -0.4058
   91SAPS   C31 8843   3.127   3.465   6.020  0.5256  0.4634  0.1359
   91SAPS   O32 8844   3.111   3.411   5.912 -0.1179 -0.0352 -0.1082
   91SAPS   C32 8845   3.186   3.389   6.136 -0.1949 -0.2235 -0.0863
   91SAPS   H2X 8846   3.236   3.303   6.086 -0.7372  0.7443 -2.4033
   91SAPS   H2Y 8847   3.106   3.347   6.201 -0.3547 -0.8040 -0.6532
   91SAPS   C23 8848   3.317   3.833   6.344 -0.0475  0.2836 -0.0573
   91SAPS   H3R 8849   3.349   3.919   6.281  0.0742  0.5301  0.3341
   91SAPS   H3S 8850   3.363   3.745   6.294  0.8349  1.2004 -0.9155
   91SAPS   C24 8851   3.352   3.855   6.492  0.1234 -0.0058  0.4439
   91SAPS   H4R 8852   3.297   3.778   6.551 -0.3940  1.4010  1.8488
   91SAPS   H4S 8853   3.313   3.952   6.529 -1.7803 -0.7889  0.6017
   91SAPS   C25 8854   3.501   3.854   6.499 -0.2184  0.1256  0.3864
   91SAPS   H5R 8855   3.562   3.795   6.429  1.2272  0.2676  1.4619
   91SAPS   C26 8856   3.573   3.928   6.585  0.6549 -0.2322 -0.2837
   91SAPS   H6R 8857   3.682   3.940   6.571  0.5805  0.1923 -0.5290
   91SAPS   C27 8858   3.515   4.006   6.699  0.4904 -0.5038  0.2938
   91SAPS   H7R 8859   3.408   3.979   6.715 -0.1032  0.5931 -1.4539
   91SAPS   H7S 8860   3.517   4.115   6.680 -2.6881 -0.3299  0.4238
   91SAPS   C28 8861   3.593   3.989   6.828  0.1048 -0.2984 -0.1948
   91SAPS   H8R 8862   3.638   3.888   6.831 -2.1459 -1.3431  0.4538
   91SAPS   C29 8863   3.592   4.056   6.946  0.4317 -0.4037  0.6123
   91SAPS   H9R 8864   3.655   4.027   7.031  0.7424  0.9272  0.8502
   91SAPS  C210 8865   3.500   4.175   6.978  0.1451  0.6946  0.3879
   91SAPS  H10R 8866   3.439   4.142   7.064 -2.2829 -0.1360 -1.5453
   91SAPS  H10S 8867   3.427   4.203   6.900  1.0496 -1.0637 -1.1905
   91SAPS  C211 8868   3.594   4.292   6.995 -1.0645  0.1445 -0.6426
   91SAPS  H11R 8869   3.617   4.355   6.908 -0.3122  0.5878 -0.1364
   91SAPS  C212 8870   3.635   4.332   7.118  0.3903  0.5477  0.2699
   91SAPS  H12R 8871   3.712   4.409   7.119 -0.4164  1.3877 -0.4872
   91SAPS  C213 8872   3.589   4.289   7.252  0.0285  0.2405  0.3104
   91SAPS  H13R 8873   3.660   4.323   7.331 -1.9482  2.3767  1.3030
   91SAPS  H13S 8874   3.584   4.179   7.239  4.2318  0.0102 -0.8675
   91SAPS  C214 8875   3.452   4.328   7.296 -0.9990 -0.6314 -0.8372
   91SAPS  H14R 8876   3.388   4.373   7.218 -0.9834  2.1226  0.5885
   91SAPS  C215 8877   3.414   4.334   7.426  0.8142 -0.1383 -0.5496
   91SAPS  H15R 8878   3.312   4.366   7.450  0.2462 -1.6844 -0.8211
   91SAPS  C216 8879   3.491   4.304   7.549 -0.2282 -0.3065 -0.2577
   91SAPS  H16R 8880   3.559   4.220   7.526  1.4860  0.6795  0.9620
   91SAPS  H16S 8881   3.421   4.267   7.627  1.6394 -0.6958  1.3058
   91SAPS  C217 8882   3.585   4.420   7.603 -0.4678  0.3189  0.5594
   91SAPS  H17R 8883   3.660   4.455   7.529 -0.6255 -1.0779 -0.2854
   91SAPS  H17S 8884   3.646   4.389   7.690 -0.9175  0.5146  0.9477
   91SAPS  C218 8885   3.509   4.553   7.634 -0.0289  0.1087  0.3046
   91SAPS  H18R 8886   3.437   4.516   7.709 -0.0346 -1.7712 -0.5811
   91SAPS  H18S 8887   3.448   4.584   7.546  0.7094  1.0901  0.1157
   91SAPS  C219 8888   3.592   4.668   7.691  0.5197 -0.7138 -0.7263
   91SAPS  H19R 8889   3.660   4.641   7.774 -0.1090  0.8021  0.3388
   91SAPS  H19S 8890   3.529   4.744   7.742  2.4988  1.6746 -1.6419
   91SAPS  C220 8891   3.673   4.733   7.584  0.1558  0.3892 -0.4470
   91SAPS  H20R 8892   3.605   4.770   7.505 -0.7548 -1.1317 -0.4108
   91SAPS  H20S 8893   3.745   4.659   7.542  1.0338  0.1483  1.3771
   91SAPS  H20T 8894   3.733   4.819   7.621  0.5971  0.0843 -0.4471
   91SAPS   C33 8895   3.285   3.473   6.220 -0.8374  0.3294  0.3799
   91SAPS   H3X 8896   3.232   3.564   6.255 -1.1147  0.0657  0.6503
   91SAPS   H3Y 8897   3.375   3.507   6.163 -0.7492 -0.9752 -0.2892
   91SAPS   C34 8898   3.328   3.388   6.345  0.1304 -0.1143 -0.2087
   91SAPS   H4X 8899   3.345   3.282   6.313  0.8570 -0.7393  2.0815
   91SAPS   H4Y 8900   3.243   3.399   6.415 -2.8028  0.2875 -3.5776
   91SAPS   C35 8901   3.453   3.445   6.413 -0.3957 -0.3222  0.7368
   91SAPS   H5X 8902   3.452   3.556   6.412  1.0258 -0.2478  2.6822
   91SAPS   H5Y 8903   3.535   3.414   6.344  1.0804 -0.9571  2.6783
   91SAPS   C36 8904   3.482   3.399   6.550  0.8685  0.3182  0.3525
   91SAPS   H6X 8905   3.496   3.289   6.539  1.7332  0.4117  0.4744
   91SAPS   H6Y 8906   3.405   3.415   6.629  1.0196 -0.1778  0.6081
   91SAPS   C37 8907   3.610   3.468   6.600  0.4574  0.5075 -0.3861
   91SAPS   H7X 8908   3.615   3.576   6.576 -2.5218  1.2730  1.9214
   91SAPS   H7Y 8909   3.691   3.416   6.545  0.6842 -1.5594  1.7375
   91SAPS   C38 8910   3.622   3.448   6.748  0.6140 -0.7596  0.8510
   91SAPS   H8X 8911   3.615   3.340   6.768 -0.6868 -0.3701  2.7587
   91SAPS   H8Y 8912   3.546   3.502   6.809 -0.1859 -1.5762  0.5927
   91SAPS   C39 8913   3.756   3.503   6.795 -0.5479 -0.6801 -0.3699
   91SAPS   H9X 8914   3.757   3.608   6.758 -1.3008  0.2506  2.0334
   91SAPS   H9Y 8915   3.832   3.436   6.751 -1.6575 -0.8987 -2.0550
   91SAPS  C310 8916   3.752   3.496   6.951  0.8376 -0.0852  0.3933
   91SAPS  H10X 8917   3.731   3.390   6.977  3.2558 -0.3231  1.6591
   91SAPS  H10Y 8918   3.666   3.558   6.987  0.3328 -1.4472  1.6434
   91SAPS  C311 8919   3.879   3.544   7.021 -0.1959  0.2531 -0.1537
   91SAPS  H11X 8920   3.958   3.470   6.998  0.7712  0.8971  1.0000
   91SAPS  H11Y 8921   3.869   3.536   7.132  1.4320 -2.0688 -0.1194
   91SAPS  C312 8922   3.928   3.677   6.968 -0.0241  0.0883 -0.0531
   91SAPS  H12X 8923   3.858   3.760   6.994  0.2886 -0.2957  2.2332
   91SAPS  H12Y 8924   3.952   3.678   6.860 -0.6623 -1.7116 -0.2394
   91SAPS  C313 8925   4.059   3.719   7.041 -0.4764 -0.2296  0.3990
   91SAPS  H13X 8926   4.149   3.673   6.995  0.9643  0.7644  2.1150
   91SAPS  H13Y 8927   4.047   3.684   7.146  0.6628 -0.3381  0.5003
   91SAPS  C314 8928   4.073   3.866   7.041  0.0065  0.4495 -0.2616
   91SAPS  H14X 8929   4.044   3.913   6.945  0.7711  2.0715  0.2529
   91SAPS  H14Y 8930   4.182   3.884   7.056  0.1176  0.0834 -0.6320
   91SAPS  C315 8931   3.993   3.932   7.154 -0.0134 -0.8367 -1.0320
   91SAPS  H15X 8932   4.037   3.910   7.254  0.0994  0.6151 -0.7418
   91SAPS  H15Y 8933   3.886   3.903   7.163  0.0191 -0.4739  1.0451
   91SAPS  C316 8934   3.983   4.085   7.140  0.4712 -0.0073  0.0808
   91SAPS  H16X 8935   3.919   4.132   7.218  0.4144  1.0010 -0.5472
   91SAPS  H16Y 8936   3.937   4.107   7.041  0.3049 -3.8418 -0.8397
   91SAPS  C317 8937   4.119   4.155   7.135 -0.2893 -0.4442  0.4801
   91SAPS  H17X 8938   4.180   4.127   7.047  0.2226  1.4465  0.1936
   91SAPS  H17Y 8939   4.181   4.113   7.218  3.1662 -0.5176 -1.9053
   91SAPS  C318 8940   4.106   4.305   7.139 -0.1354  0.1833 -0.0450
   91SAPS  H18X 8941   4.016   4.339   7.083  0.9063  1.4773 -1.0042
   91SAPS  H18Y 8942   4.200   4.348   7.098  0.1327 -1.9390 -1.8336
   91SAPS  H18Z 8943   4.076   4.344   7.239  0.3161  1.2979 -0.3333
   92SAPS     N 8944   3.223   3.080   5.508  0.3245 -0.3634  0.7061
   92SAPS   HN1 8945   3.262   3.164   5.459  0.1052  1.3827  3.2894
   92SAPS   HN2 8946   3.148   3.116   5.570 -1.2234 -1.7377 -0.3168
   92SAPS   HN3 8947   3.300   3.040   5.567 -0.4344 -0.3045  1.7636
   92SAPS   C12 8948   3.156   2.983   5.419  0.1785 -0.6566 -0.5320
   92SAPS  H12A 8949   3.071   3.043   5.388 -0.4518  0.6838  3.2212
   92SAPS   C13 8950   3.237   2.929   5.297  0.3313 -0.6312 -0.6373
   92SAPS  O13A 8951   3.358   2.965   5.283 -0.3378  0.0144  0.2663
   92SAPS  O13B 8952   3.177   2.849   5.221  0.8337  0.2511  0.1200
   92SAPS   C11 8953   3.105   2.872   5.510  0.4459 -0.2587  0.2393
   92SAPS  H11A 8954   3.185   2.815   5.562 -0.3005 -0.9901  0.6248
   92SAPS  H11B 8955   3.049   2.798   5.449 -1.3983  0.0030  1.5318
   92SAPS     P 8956   2.905   2.824   5.661 -0.5830 -0.0254 -0.0629
   92SAPS   O13 8957   2.773   2.858   5.604  0.2441 -0.5532 -0.0211
   92SAPS   O14 8958   2.964   2.692   5.632  0.2845 -0.6462 -0.2582
   92SAPS   O12 8959   3.015   2.924   5.604  0.3618  0.4672  0.0030
   92SAPS   O11 8960   2.904   2.841   5.818  0.1871 -0.1335  0.5217
   92SAPS    C1 8961   3.019   2.893   5.895  0.1702  0.6956 -0.1626
   92SAPS    HA 8962   3.068   2.975   5.839  0.4599  0.7848  0.2201
   92SAPS    HB 8963   2.979   2.932   5.991 -1.9890 -2.2524  0.2935
   92SAPS    C2 8964   3.122   2.779   5.936 -0.7532  0.7116 -0.8071
   92SAPS    HS 8965   3.149   2.724   5.843  0.6483  0.1714 -0.1156
   92SAPS   O21 8966   3.055   2.691   6.031  0.3621  0.5918  0.2989
   92SAPS   C21 8967   3.105   2.567   6.035  0.4432 -0.1303 -0.2720
   92SAPS   O22 8968   3.203   2.531   5.971  0.9597  0.0481 -0.5483
   92SAPS   C22 8969   3.021   2.477   6.129  0.4410  0.8085  0.4477
   92SAPS   H2R 8970   3.085   2.461   6.218  2.0268 -0.9897 -0.9167
   92SAPS   H2S 8971   2.929   2.536   6.149  0.2772 -0.3501  3.5879
   92SAPS    C3 8972   3.252   2.840   6.010  0.4660  0.0390  0.7830
   92SAPS    HX 8973   3.317   2.896   5.940 -0.6442  1.9581  1.2261
   92SAPS    HY 8974   3.329   2.768   6.045  0.3677 -0.7432 -0.5052
   92SAPS   O31 8975   3.215   2.940   6.108 -0.1151 -0.2162  0.3038
   92SAPS   C31 8976   3.234   2.907   6.233  0.4685 -0.2965  0.3709
   92SAPS   O32 8977   3.265   2.796   6.271  0.0397 -0.0914 -0.0575
   92SAPS   C32 8978   3.228   3.024   6.325 -0.0152  0.0058  0.2802
   92SAPS   H2X 8979   3.158   3.098   6.281 -1.5414 -1.9963 -0.8173
   92SAPS   H2Y 8980   3.334   3.056   6.332 -0.0783 -0.0219  2.0147
   92SAPS   C23 8981   2.979   2.346   6.064  0.1226 -0.4143 -0.0809
   92SAPS   H3R 8982   3.061   2.272   6.076  0.1839 -0.8140 -2.5519
   92SAPS   H3S 8983   2.950   2.361   5.958 -2.6366  4.2323  1.0616
   92SAPS   C24 8984   2.858   2.290   6.142 -0.1400  0.6077  0.9005
   92SAPS   H4R 8985   2.838   2.189   6.101 -0.5965 -0.0836  2.7440
   92SAPS   H4S 8986   2.774   2.358   6.115  0.3723  0.8823 -0.0820
   92SAPS   C25 8987   2.872   2.283   6.291 -0.9639 -0.5495  0.2160
   92SAPS   H5R 8988   2.945   2.203   6.307  1.3863  1.7675  1.8016
   92SAPS   C26 8989   2.835   2.366   6.389  0.6280 -0.3923 -0.3686
   92SAPS   H6R 8990   2.835   2.338   6.495 -3.8011 -3.3031 -0.8936
   92SAPS   C27 8991   2.735   2.488   6.372 -0.4071 -0.0834 -0.1286
   92SAPS   H7R 8992   2.654   2.463   6.443 -2.4736 -1.7348 -2.8848
   92SAPS   H7S 8993   2.675   2.483   6.279 -0.6437  3.4058 -0.3129
   92SAPS   C28 8994   2.812   2.619   6.397  0.6834 -0.7455  1.3208
   92SAPS   H8R 8995   2.853   2.652   6.300 -2.8240  0.8372  0.2015
   92SAPS   C29 8996   2.827   2.694   6.511  0.1066  0.9007 -0.0364
   92SAPS   H9R 8997   2.895   2.780   6.500  1.7078 -0.2981  0.0770
   92SAPS  C210 8998   2.775   2.668   6.654  0.0336 -0.8606 -0.9738
   92SAPS  H10R 8999   2.725   2.569   6.651  1.0588 -1.4288 -0.2089
   92SAPS  H10S 9000   2.699   2.739   6.692 -3.1195 -3.9073 -1.1642
   92SAPS  C211 9001   2.893   2.667   6.749 -0.2752  0.0051  0.5234
   92SAPS  H11R 9002   2.988   2.646   6.698  0.1800 -2.8277  2.3340
   92SAPS  C212 9003   2.894   2.681   6.884  0.3857  0.3550 -0.3938
   92SAPS  H12R 9004   2.979   2.668   6.952 -0.8844 -2.2212  0.8670
   92SAPS  C213 9005   2.774   2.712   6.969  0.1194 -0.4336 -0.8619
   92SAPS  H13R 9006   2.781   2.641   7.054 -0.6543  0.4981 -0.0006
   92SAPS  H13S 9007   2.678   2.690   6.918 -0.6312  0.1428  0.2670
   92SAPS  C214 9008   2.767   2.848   7.025 -0.1861  0.1333  0.1314
   92SAPS  H14R 9009   2.831   2.924   6.979 -1.1253  0.4478 -0.6867
   92SAPS  C215 9010   2.691   2.878   7.132 -0.1758  0.9683 -0.1476
   92SAPS  H15R 9011   2.662   2.976   7.171  2.2640  1.3964  0.7818
   92SAPS  C216 9012   2.604   2.775   7.206 -0.0791  0.1200 -0.2377
   92SAPS  H16R 9013   2.621   2.669   7.178 -0.2629  0.0929 -0.2500
   92SAPS  H16S 9014   2.495   2.791   7.191 -0.1967  1.0074  1.2647
   92SAPS  C217 9015   2.636   2.795   7.357 -0.6110  0.0983  0.2139
   92SAPS  H17R 9016   2.605   2.895   7.394 -1.6683 -0.2811  0.4039
   92SAPS  H17S 9017   2.743   2.784   7.385 -0.6752  4.0900  2.7070
   92SAPS  C218 9018   2.558   2.696   7.442  0.0816 -0.5632  0.7105
   92SAPS  H18R 9019   2.583   2.596   7.401 -0.0273 -0.9800  1.6249
   92SAPS  H18S 9020   2.450   2.721   7.438  0.0459 -0.2462  2.5990
   92SAPS  C219 9021   2.592   2.676   7.590  0.0709 -0.3425  0.2497
   92SAPS  H19R 9022   2.699   2.648   7.597  0.4851  1.1472  0.1446
   92SAPS  H19S 9023   2.528   2.589   7.616 -1.3683  0.3100 -0.9391
   92SAPS  C220 9024   2.551   2.775   7.689 -0.8877  0.0850  0.2486
   92SAPS  H20R 9025   2.440   2.782   7.693 -0.8609  0.0958  1.6765
   92SAPS  H20S 9026   2.594   2.871   7.653  1.6303 -0.4451  1.5926
   92SAPS  H20T 9027   2.587   2.749   7.791 -1.5741  0.4240  0.5867
   92SAPS   C33 9028   3.203   2.981   6.468  0.2477 -0.6833  0.8671
   92SAPS   H3X 9029   3.278   2.904   6.494  1.8414  0.7624  0.6840
   92SAPS   H3Y 9030   3.100   2.944   6.490  0.4467 -1.2742  0.8201
   92SAPS   C34 9031   3.227   3.102   6.569  0.7052 -0.3822  0.0714
   92SAPS   H4X 9032   3.134   3.162   6.570  0.9392 -0.0035 -0.4666
   92SAPS   H4Y 9033   3.316   3.165   6.548  0.2897  0.6008  1.1538
   92SAPS   C35 9034   3.244   3.066   6.718 -0.4579  0.1541 -0.2863
   92SAPS   H5X 9035   3.341   3.012   6.726 -0.4447  0.3687  1.3774
   92SAPS   H5Y 9036   3.168   3.002   6.767  0.4076  0.0676  1.0172
   92SAPS   C36 9037   3.251   3.196   6.800 -0.8477 -0.2625 -0.0025
   92SAPS   H6X 9038   3.170   3.271   6.790  1.0792  1.8870 -0.4363
   92SAPS   H6Y 9039   3.339   3.250   6.758  0.6473 -2.9766 -0.6131
   92SAPS   C37 9040   3.281   3.168   6.948  0.0927 -0.4446 -0.2920
   92SAPS   H7X 9041   3.384   3.127   6.947 -1.3459 -4.4142 -0.9844
   92SAPS   H7Y 9042   3.216   3.089   6.991 -0.2387  0.5216  1.0831
   92SAPS   C38 9043   3.258   3.291   7.024  0.6418 -0.9551 -1.4064
   92SAPS   H8X 9044   3.156   3.335   7.014  0.7513 -0.1468  0.5871
   92SAPS   H8Y 9045   3.325   3.371   6.986 -0.6466  0.0105 -1.7258
   92SAPS   C39 9046   3.272   3.284   7.177  0.0952  0.1227  0.2239
   92SAPS   H9X 9047   3.183   3.239   7.225  1.9169 -2.6383  1.3254
   92SAPS   H9Y 9048   3.301   3.385   7.212  0.9269  0.8455 -2.3243
   92SAPS  C310 9049   3.402   3.194   7.215  0.5702  0.2902 -0.2262
   92SAPS  H10X 9050   3.383   3.100   7.159 -1.3447  0.7214 -0.3727
   92SAPS  H10Y 9051   3.400   3.177   7.325  0.6951  0.1285 -0.2496
   92SAPS  C311 9052   3.527   3.266   7.182 -0.4762  0.0248  0.1936
   92SAPS  H11X 9053   3.513   3.311   7.081  0.4277 -1.4130 -0.6214
   92SAPS  H11Y 9054   3.614   3.197   7.182 -0.4508 -0.0676 -2.4108
   92SAPS  C312 9055   3.565   3.379   7.282  0.0021  0.0001 -0.4666
   92SAPS  H12X 9056   3.478   3.412   7.342 -0.2055  0.8399 -1.2110
   92SAPS  H12Y 9057   3.608   3.464   7.225 -0.7564  0.4252 -0.4196
   92SAPS  C313 9058   3.674   3.332   7.375 -0.2512 -0.2506  0.1418
   92SAPS  H13X 9059   3.755   3.315   7.301  0.5614  0.1060  0.9300
   92SAPS  H13Y 9060   3.658   3.239   7.433  0.9874  0.4002  1.6007
   92SAPS  C314 9061   3.713   3.444   7.479  0.1349 -0.2745 -0.1220
   92SAPS  H14X 9062   3.627   3.477   7.541  0.6412 -1.6887  1.4033
   92SAPS  H14Y 9063   3.759   3.529   7.425 -1.7894 -0.1056 -1.6035
   92SAPS  C315 9064   3.808   3.397   7.590 -1.0634 -0.3541 -1.3230
   92SAPS  H15X 9065   3.908   3.371   7.548 -0.2087 -0.1997  0.5069
   92SAPS  H15Y 9066   3.761   3.312   7.645  0.9032 -0.4578  0.3011
   92SAPS  C316 9067   3.830   3.504   7.704 -0.2604  0.4911  0.6267
   92SAPS  H16X 9068   3.821   3.605   7.658 -3.8479  0.5225  1.1319
   92SAPS  H16Y 9069   3.935   3.491   7.738  0.7647 -0.2959 -2.5630
   92SAPS  C317 9070   3.726   3.491   7.818  0.6183 -0.3848 -0.0626
   92SAPS  H17X 9071   3.782   3.490   7.914  0.6106  0.4921 -0.0400
   92SAPS  H17Y 9072   3.667   3.398   7.808  1.0330 -0.5358 -1.3016
   92SAPS  C318 9073   3.616   3.599   7.829  1.2871 -0.0296  0.4361
   92SAPS  H18X 9074   3.618   3.639   7.933  0.7669 -1.0029  0.8306
   92SAPS  H18Y 9075   3.512   3.562   7.812  2.1282 -1.8976 -0.9416
   92SAPS  H18Z 9076   3.629   3.685   7.760 -1.5254  0.9453  0.9659
   93SAPS     N 9077   4.301   2.046   5.727 -0.4917 -0.5359  0.6788
   93SAPS   HN1 9078   4.380   2.062   5.793  1.6393 -0.0686 -1.8261
   93SAPS   HN2 9079   4.216   2.012   5.778  0.1054 -2.0837  0.6855
   93SAPS   HN3 9080   4.334   1.971   5.664 -1.0921  0.5415 -0.9656
   93SAPS   C12 9081   4.276   2.170   5.643  0.3243  0.0584  1.0245
   93SAPS  H12A 9082   4.369   2.215   5.613 -1.3716  2.2596 -1.3859
   93SAPS   C13 9083   4.200   2.137   5.509 -0.4459 -0.0400  0.4657
   93SAPS  O13A 9084   4.181   2.019   5.476  0.3577 -0.2708 -0.2846
   93SAPS  O13B 9085   4.192   2.230   5.425  0.7655 -0.7535 -0.6103
   93SAPS   C11 9086   4.203   2.273   5.726  0.6342  0.7544  0.1154
   93SAPS  H11A 9087   4.238   2.276   5.831 -3.2352  1.1213  1.5344
   93SAPS  H11B 9088   4.099   2.234   5.730  0.6834  0.7435  1.6716
   93SAPS     P 9089   4.110   2.512   5.716 -0.3631 -0.0224  0.2889
   93SAPS   O13 9090   4.166   2.647   5.678 -0.4526 -0.1282  0.1820
   93SAPS   O14 9091   3.977   2.478   5.663 -0.0286  0.3322  0.7022
   93SAPS   O12 9092   4.213   2.400   5.671  0.5868  0.0632 -0.0340
   93SAPS   O11 9093   4.109   2.501   5.878  0.7015  0.0883  0.0527
   93SAPS    C1 9094   4.099   2.607   5.969  0.3302  0.1669 -0.3634
   93SAPS    HA 9095   4.038   2.695   5.937  0.2179 -0.1655 -1.0728
   93SAPS    HB 9096   4.058   2.562   6.062  3.0282 -2.2317 -0.2026
   93SAPS    C2 9097   4.247   2.661   5.998  0.4285 -0.1253  0.2810
   93SAPS    HS 9098   4.272   2.695   5.895 -0.7179 -1.0815 -0.3400
   93SAPS   O21 9099   4.322   2.547   6.035 -0.3995  0.0268  0.2536
   93SAPS   C21 9100   4.450   2.559   6.011 -0.7869 -0.5445  0.1184
   93SAPS   O22 9101   4.507   2.652   5.956  0.0757  0.6135  0.4510
   93SAPS   C22 9102   4.520   2.435   6.055  0.0768  0.0367 -0.1205
   93SAPS   H2R 9103   4.444   2.354   6.046  1.2715 -1.1610  0.3609
   93SAPS   H2S 9104   4.594   2.414   5.975  0.7910  0.4829  0.4190
   93SAPS    C3 9105   4.255   2.784   6.097  0.3906  0.4963 -0.4935
   93SAPS    HX 9106   4.176   2.854   6.061 -0.4802 -1.6081 -2.9045
   93SAPS    HY 9107   4.348   2.838   6.070 -0.2151  1.0981 -1.4584
   93SAPS   O31 9108   4.258   2.744   6.239  0.0049  0.2259 -0.2390
   93SAPS   C31 9109   4.176   2.810   6.318  0.6288 -1.2739 -0.3948
   93SAPS   O32 9110   4.098   2.897   6.293 -0.5989  0.1309  0.2202
   93SAPS   C32 9111   4.184   2.749   6.457  0.4306 -0.2337 -0.1431
   93SAPS   H2X 9112   4.289   2.724   6.481  0.0104  0.7924  3.2937
   93SAPS   H2Y 9113   4.138   2.648   6.452  2.0419 -1.0104  0.1493
   93SAPS   C23 9114   4.581   2.444   6.199 -0.5336 -0.2683 -0.3308
   93SAPS   H3R 9115   4.666   2.515   6.211 -2.2756  1.5244  3.3628
   93SAPS   H3S 9116   4.619   2.345   6.232  4.0872  1.9100  1.7585
   93SAPS   C24 9117   4.497   2.488   6.312 -0.2687 -0.2027  0.1740
   93SAPS   H4R 9118   4.446   2.581   6.279 -2.6235 -0.8128  1.8743
   93SAPS   H4S 9119   4.567   2.524   6.391 -0.6893 -0.5688  0.7142
   93SAPS   C25 9120   4.387   2.390   6.354  0.5001 -0.6718 -0.4394
   93SAPS   H5R 9121   4.354   2.326   6.271  1.0257 -0.4745 -0.8080
   93SAPS   C26 9122   4.356   2.356   6.481  0.2703 -0.4799 -0.0067
   93SAPS   H6R 9123   4.292   2.268   6.499 -0.8827  0.3335 -0.0055
   93SAPS   C27 9124   4.398   2.431   6.608  1.3549 -0.3024  1.0468
   93SAPS   H7R 9125   4.310   2.440   6.675  0.6027 -0.5602  0.1264
   93SAPS   H7S 9126   4.430   2.531   6.572  0.1332 -0.4550 -0.5910
   93SAPS   C28 9127   4.520   2.365   6.665  0.1444  0.3605  0.2981
   93SAPS   H8R 9128   4.585   2.320   6.589 -0.3476 -1.8229  1.0848
   93SAPS   C29 9129   4.553   2.364   6.791  0.0770 -0.2865  1.1164
   93SAPS   H9R 9130   4.653   2.322   6.814 -0.2026 -2.1705 -0.7826
   93SAPS  C210 9131   4.477   2.426   6.912 -0.2352  0.1047  0.3867
   93SAPS  H10R 9132   4.460   2.351   6.992 -0.1404 -0.7175 -0.3557
   93SAPS  H10S 9133   4.377   2.463   6.880 -0.8596 -1.3014  0.6371
   93SAPS  C211 9134   4.557   2.549   6.960 -0.5083 -0.1896  0.5153
   93SAPS  H11R 9135   4.539   2.634   6.892 -0.5566  0.3721  1.2237
   93SAPS  C212 9136   4.625   2.563   7.073 -0.4241 -0.0366 -0.0575
   93SAPS  H12R 9137   4.686   2.652   7.094 -0.5950 -0.0887  0.6775
   93SAPS  C213 9138   4.648   2.462   7.178  0.3048  0.6067 -0.4060
   93SAPS  H13R 9139   4.553   2.416   7.214  0.5142  0.5762  0.1145
   93SAPS  H13S 9140   4.704   2.507   7.262 -1.1516  0.8013  0.4954
   93SAPS  C214 9141   4.730   2.348   7.134  0.2729  0.2370 -1.0503
   93SAPS  H14R 9142   4.825   2.366   7.081  0.9673 -1.5909 -0.4749
   93SAPS  C215 9143   4.704   2.212   7.158  0.1417 -0.2570  0.5677
   93SAPS  H15R 9144   4.786   2.140   7.142  0.5221  0.1816  0.5066
   93SAPS  C216 9145   4.571   2.162   7.214 -1.1451  0.7500 -0.6677
   93SAPS  H16R 9146   4.554   2.064   7.164  1.1229  0.4099 -0.8901
   93SAPS  H16S 9147   4.488   2.229   7.183 -1.9073 -0.1850 -0.7072
   93SAPS  C217 9148   4.579   2.124   7.365  0.3958  0.5619  0.5961
   93SAPS  H17R 9149   4.659   2.051   7.387  1.4244  1.4950  0.0641
   93SAPS  H17S 9150   4.487   2.066   7.388  1.0136 -1.2147 -1.1228
   93SAPS  C218 9151   4.598   2.245   7.457  0.0979  0.0347  0.2855
   93SAPS  H18R 9152   4.513   2.317   7.454  1.7002  2.0341  1.2890
   93SAPS  H18S 9153   4.683   2.303   7.416  1.1431 -1.5487  0.1341
   93SAPS  C219 9154   4.616   2.202   7.606  0.2749 -0.7273 -0.1392
   93SAPS  H19R 9155   4.629   2.290   7.673 -1.5289 -1.1865  0.8841
   93SAPS  H19S 9156   4.708   2.140   7.609  0.7975  0.0599  1.6649
   93SAPS  C220 9157   4.500   2.123   7.660 -0.4683  0.4108  0.3122
   93SAPS  H20R 9158   4.478   2.135   7.769 -2.3414 -0.2316  0.0371
   93SAPS  H20S 9159   4.524   2.019   7.629 -0.0899  1.0724 -1.7582
   93SAPS  H20T 9160   4.407   2.150   7.606  0.1691  0.7073 -0.6697
   93SAPS   C33 9161   4.118   2.837   6.566  0.5276  0.7144  0.3502
   93SAPS   H3X 9162   4.014   2.862   6.535  1.0067  0.6920 -1.4090
   93SAPS   H3Y 9163   4.173   2.932   6.585  1.0426  0.7787 -1.3311
   93SAPS   C34 9164   4.119   2.746   6.693  0.1619 -0.1455 -0.0885
   93SAPS   H4X 9165   4.155   2.645   6.664  1.4689  0.7294 -1.6957
   93SAPS   H4Y 9166   4.013   2.740   6.725  0.3521  2.5639  1.3136
   93SAPS   C35 9167   4.198   2.801   6.812 -0.7512 -0.1824 -0.0684
   93SAPS   H5X 9168   4.156   2.899   6.844  1.2430  0.9521 -0.7049
   93SAPS   H5Y 9169   4.307   2.823   6.809 -0.5647 -0.6895  1.7880
   93SAPS   C36 9170   4.184   2.711   6.933  0.8573  0.1235  0.3925
   93SAPS   H6X 9171   4.259   2.629   6.932  0.7487  0.0222  0.4481
   93SAPS   H6Y 9172   4.084   2.663   6.920  1.5391 -0.6436 -2.9243
   93SAPS   C37 9173   4.196   2.792   7.065 -0.1311 -0.4517  1.0617
   93SAPS   H7X 9174   4.209   2.726   7.154  0.4632 -0.4293  0.9969
   93SAPS   H7Y 9175   4.099   2.842   7.087  0.1019  0.1691  0.7101
   93SAPS   C38 9176   4.313   2.886   7.069  0.0898 -0.1804 -1.0381
   93SAPS   H8X 9177   4.287   2.980   7.015  0.2468  0.4696  0.0024
   93SAPS   H8Y 9178   4.396   2.831   7.019  1.9358  0.5153  1.1111
   93SAPS   C39 9179   4.352   2.912   7.218 -0.4909  0.2996  0.0724
   93SAPS   H9X 9180   4.256   2.931   7.272 -1.9096 -1.6529 -1.5966
   93SAPS   H9Y 9181   4.402   3.010   7.215 -0.3289  0.3785  2.6554
   93SAPS  C310 9182   4.444   2.805   7.286  0.3820 -0.0296 -0.0949
   93SAPS  H10X 9183   4.540   2.808   7.230 -0.6391  1.6416 -1.8962
   93SAPS  H10Y 9184   4.405   2.702   7.270 -0.4201  0.1460  0.6138
   93SAPS  C311 9185   4.463   2.831   7.437  0.2171  0.0104 -0.8000
   93SAPS  H11X 9186   4.362   2.819   7.482  0.1286  0.2253 -0.9421
   93SAPS  H11Y 9187   4.480   2.939   7.457  0.6563 -0.3151  0.7257
   93SAPS  C312 9188   4.567   2.727   7.495 -0.1779 -0.2365 -0.3844
   93SAPS  H12X 9189   4.666   2.769   7.467 -0.0855 -0.1549  0.0632
   93SAPS  H12Y 9190   4.554   2.627   7.449  0.0187  0.1548 -1.3290
   93SAPS  C313 9191   4.561   2.713   7.654  0.3682  0.2755  0.6700
   93SAPS  H13X 9192   4.575   2.810   7.706 -0.9901 -0.7050  3.0363
   93SAPS  H13Y 9193   4.648   2.655   7.693  1.3256  2.0959  1.3364
   93SAPS  C314 9194   4.432   2.650   7.705 -0.0300 -0.3525 -0.7321
   93SAPS  H14X 9195   4.398   2.564   7.644 -2.6360  0.0550  0.0422
   93SAPS  H14Y 9196   4.343   2.717   7.701 -1.2629 -1.9765 -1.6750
   93SAPS  C315 9197   4.445   2.597   7.848 -0.0109  0.0236 -0.2982
   93SAPS  H15X 9198   4.498   2.670   7.912 -0.0006 -0.3512  0.1254
   93SAPS  H15Y 9199   4.509   2.507   7.860 -0.0458  0.3285  3.8616
   93SAPS  C316 9200   4.312   2.571   7.915  0.0703  0.2611  0.6708
   93SAPS  H16X 9201   4.243   2.658   7.918 -0.6561 -0.2975  0.3889
   93SAPS  H16Y 9202   4.324   2.546   8.023  0.7064  0.0036  0.5428
   93SAPS  C317 9203   4.238   2.443   7.863 -0.0525 -0.0374 -0.4490
   93SAPS  H17X 9204   4.307   2.358   7.884 -1.7468 -0.9569  1.9050
   93SAPS  H17Y 9205   4.218   2.440   7.754  2.5452  0.2386 -0.9829
   93SAPS  C318 9206   4.117   2.413   7.949  0.0915  0.8226  0.4193
   93SAPS  H18X 9207   4.138   2.418   8.058  0.2354  2.5180  0.3436
   93SAPS  H18Y 9208   4.062   2.324   7.911  2.1689 -0.4608  0.2811
   93SAPS  H18Z 9209   4.038   2.490   7.938 -0.6669  0.0572  0.3555
   94SAPS     N 9210   4.669   5.030   5.628 -0.5196 -0.2012  0.0579
   94SAPS   HN1 9211   4.642   5.098   5.554  1.3572  1.4853  0.8184
   94SAPS   HN2 9212   4.583   5.034   5.686  0.8670  1.3109  2.1611
   94SAPS   HN3 9213   4.732   5.078   5.695 -2.7476  0.1110  2.0539
   94SAPS   C12 9214   4.706   4.889   5.591 -0.0091 -0.6756  0.3739
   94SAPS  H12A 9215   4.618   4.846   5.546  0.4606 -0.7579 -0.4806
   94SAPS   C13 9216   4.817   4.880   5.492 -0.7199 -0.4752  0.2805
   94SAPS  O13A 9217   4.876   4.979   5.446 -0.2289  0.3739  0.0833
   94SAPS  O13B 9218   4.839   4.768   5.436  0.3390  0.5676 -0.5304
   94SAPS   C11 9219   4.746   4.810   5.722  0.5247 -0.2015  0.2347
   94SAPS  H11A 9220   4.816   4.875   5.777  1.5933 -1.1654  0.0540
   94SAPS  H11B 9221   4.795   4.715   5.693 -0.4277 -1.0154  1.1895
   94SAPS     P 9222   4.546   4.646   5.786 -0.2170 -0.1154  0.4878
   94SAPS   O13 9223   4.399   4.658   5.770 -0.5500  0.1102 -0.1588
   94SAPS   O14 9224   4.614   4.569   5.682  0.1514  0.4386  0.0756
   94SAPS   O12 9225   4.627   4.787   5.803 -0.1012  0.4819  0.4531
   94SAPS   O11 9226   4.572   4.573   5.920 -0.0902  0.1005 -0.0975
   94SAPS    C1 9227   4.548   4.642   6.040 -0.7853  0.3992 -0.4213
   94SAPS    HA 9228   4.458   4.707   6.047 -1.2470 -0.3819  1.2138
   94SAPS    HB 9229   4.522   4.570   6.120  0.3876 -1.2293 -1.4244
   94SAPS    C2 9230   4.672   4.720   6.100 -0.4166 -0.4524  0.3737
   94SAPS    HS 9231   4.687   4.798   6.022  0.7747 -0.6557  0.3838
   94SAPS   O21 9232   4.788   4.642   6.115 -0.6152 -0.8003  0.1586
   94SAPS   C21 9233   4.904   4.704   6.147 -0.2511 -0.9027  0.1209
   94SAPS   O22 9234   4.914   4.828   6.139 -0.3454  0.1851  0.0660
   94SAPS   C22 9235   5.006   4.619   6.195  0.1779 -0.2385  0.4009
   94SAPS   H2R 9236   5.034   4.548   6.114  0.7022  0.9695 -0.5067
   94SAPS   H2S 9237   5.103   4.670   6.213  1.4080 -1.9317 -1.0435
   94SAPS    C3 9238   4.626   4.795   6.228  0.4862  0.3544  0.1003
   94SAPS    HX 9239   4.538   4.857   6.198 -0.0479 -0.3703  0.1368
   94SAPS    HY 9240   4.702   4.857   6.279 -0.6496  0.2676  1.9750
   94SAPS   O31 9241   4.599   4.694   6.323  0.3265 -0.8357 -0.7488
   94SAPS   C31 9242   4.518   4.743   6.423  0.3143  1.1157  0.4416
   94SAPS   O32 9243   4.469   4.849   6.436 -0.0495 -0.2241  0.1181
   94SAPS   C32 9244   4.503   4.626   6.523 -0.4134  0.0523  0.0293
   94SAPS   H2X 9245   4.605   4.593   6.550 -0.4534 -0.3269 -0.2721
   94SAPS   H2Y 9246   4.470   4.535   6.468 -1.7060  0.6994 -0.2962
   94SAPS   C23 9247   4.971   4.550   6.320 -0.5042  0.1595  0.6554
   94SAPS   H3R 9248   5.004   4.444   6.312  0.3506  0.4096  0.7564
   94SAPS   H3S 9249   4.863   4.558   6.346 -0.8286 -1.3874 -0.1403
   94SAPS   C24 9250   5.034   4.621   6.446 -0.7932 -0.8653 -0.3358
   94SAPS   H4R 9251   5.142   4.604   6.464 -0.9230 -0.8517  0.4678
   94SAPS   H4S 9252   4.988   4.588   6.541 -0.9988  0.6974  0.1374
   94SAPS   C25 9253   5.007   4.770   6.452  0.2331  0.3135 -0.1240
   94SAPS   H5R 9254   5.069   4.824   6.379 -1.2861  0.4376 -1.3683
   94SAPS   C26 9255   4.927   4.845   6.526  0.6624 -0.1014 -0.8052
   94SAPS   H6R 9256   4.921   4.952   6.503  2.2344 -0.0015 -0.8879
   94SAPS   C27 9257   4.840   4.790   6.637  0.8337 -0.2201  0.3566
   94SAPS   H7R 9258   4.908   4.758   6.719  0.2572  1.9969  1.7947
   94SAPS   H7S 9259   4.807   4.688   6.605 -3.2314  0.7265  0.9206
   94SAPS   C28 9260   4.733   4.883   6.690 -0.5130  0.1655 -0.3349
   94SAPS   H8R 9261   4.642   4.892   6.629  0.0413 -2.4960 -1.7135
   94SAPS   C29 9262   4.744   4.965   6.800  0.0315  0.3566  1.5638
   94SAPS   H9R 9263   4.665   5.039   6.820 -0.8389 -0.7608  2.3583
   94SAPS  C210 9264   4.861   4.962   6.897  0.1813 -0.0900 -0.5565
   94SAPS  H10R 9265   4.852   5.057   6.955  0.5384  0.2284 -1.0116
   94SAPS  H10S 9266   4.963   4.960   6.853  0.1080 -0.1972 -0.7217
   94SAPS  C211 9267   4.860   4.846   6.992 -0.8519  0.1308  0.3955
   94SAPS  H11R 9268   4.912   4.762   6.945  0.8800  2.0014 -1.2374
   94SAPS  C212 9269   4.792   4.843   7.112 -0.1359 -0.2192  0.5310
   94SAPS  H12R 9270   4.832   4.766   7.180 -1.5948 -1.9028 -0.4272
   94SAPS  C213 9271   4.698   4.949   7.153 -0.5300 -0.5249  0.4401
   94SAPS  H13R 9272   4.617   4.950   7.077 -0.5574  1.7950  0.4446
   94SAPS  H13S 9273   4.760   5.041   7.142 -0.2338 -0.7813 -0.1012
   94SAPS  C214 9274   4.633   4.921   7.288  0.9842 -0.6995 -0.4142
   94SAPS  H14R 9275   4.600   4.817   7.302 -1.4881  0.0999  0.2264
   94SAPS  C215 9276   4.605   5.009   7.386 -0.5209 -0.3305  0.3071
   94SAPS  H15R 9277   4.572   4.972   7.484 -1.9933  0.1643  0.0209
   94SAPS  C216 9278   4.641   5.156   7.376  0.1303  0.0512  0.1936
   94SAPS  H16R 9279   4.654   5.191   7.272  0.2279 -0.9203 -0.1316
   94SAPS  H16S 9280   4.729   5.170   7.442 -1.0322 -3.1176  2.6947
   94SAPS  C217 9281   4.531   5.249   7.423  0.6728 -0.8133  0.3209
   94SAPS  H17R 9282   4.443   5.247   7.355  0.1799 -1.2990  0.9568
   94SAPS  H17S 9283   4.574   5.352   7.419 -2.9230  0.7947 -1.4227
   94SAPS  C218 9284   4.477   5.216   7.556  0.3958 -0.1945  0.1175
   94SAPS  H18R 9285   4.563   5.206   7.625  2.1990 -0.4268 -2.0465
   94SAPS  H18S 9286   4.429   5.116   7.555 -0.7825  0.2579  2.7989
   94SAPS  C219 9287   4.381   5.326   7.620  0.0896 -0.4317 -0.2444
   94SAPS  H19R 9288   4.294   5.347   7.554  1.4016  1.7479 -1.4264
   94SAPS  H19S 9289   4.433   5.424   7.628 -3.0049  1.3115  0.0335
   94SAPS  C220 9290   4.336   5.287   7.758  0.3362  0.1604  0.5648
   94SAPS  H20R 9291   4.264   5.362   7.797  0.4545 -0.3199  1.7603
   94SAPS  H20S 9292   4.427   5.276   7.822  0.0217 -0.6987  0.8775
   94SAPS  H20T 9293   4.281   5.191   7.750 -0.8223  0.8936 -0.6261
   94SAPS   C33 9294   4.417   4.657   6.646  0.3748 -0.1660  0.2465
   94SAPS   H3X 9295   4.314   4.668   6.606  0.6980  0.9386 -0.3480
   94SAPS   H3Y 9296   4.434   4.758   6.689 -1.6983  0.2756  0.1390
   94SAPS   C34 9297   4.437   4.545   6.758  1.5318  0.1028 -0.3249
   94SAPS   H4X 9298   4.545   4.546   6.781  1.4047  2.2073  0.3259
   94SAPS   H4Y 9299   4.416   4.445   6.713  0.4133  1.4068 -2.8833
   94SAPS   C35 9300   4.355   4.576   6.889 -0.6901  0.1993 -0.1596
   94SAPS   H5X 9301   4.248   4.549   6.885 -0.3891 -1.8150  2.7348
   94SAPS   H5Y 9302   4.370   4.685   6.907 -1.9763 -0.0596  3.0682
   94SAPS   C36 9303   4.422   4.517   7.023  0.2004 -0.5247  0.5056
   94SAPS   H6X 9304   4.531   4.536   7.029  0.1836 -0.4513  0.5855
   94SAPS   H6Y 9305   4.411   4.407   7.033 -0.1505 -0.4139  1.3767
   94SAPS   C37 9306   4.360   4.587   7.146 -0.0328  0.0043 -0.1918
   94SAPS   H7X 9307   4.250   4.581   7.131 -0.0645  1.4109 -0.6360
   94SAPS   H7Y 9308   4.391   4.694   7.145  2.5569 -0.6758  0.0009
   94SAPS   C38 9309   4.404   4.535   7.282  1.1842  0.5026  0.1160
   94SAPS   H8X 9310   4.513   4.545   7.303  0.9988  0.0702  1.3442
   94SAPS   H8Y 9311   4.410   4.424   7.284  0.9302  0.4917  1.8363
   94SAPS   C39 9312   4.316   4.585   7.397  0.0666 -0.0376 -0.0619
   94SAPS   H9X 9313   4.364   4.547   7.489  0.6653 -1.1278 -0.7945
   94SAPS   H9Y 9314   4.217   4.535   7.392  0.1492 -0.5395  2.3229
   94SAPS  C310 9315   4.302   4.741   7.398  0.3611  0.7480  0.4866
   94SAPS  H10X 9316   4.243   4.791   7.317 -0.2933  1.0661  1.1490
   94SAPS  H10Y 9317   4.406   4.777   7.383  0.0611  0.6253 -2.7233
   94SAPS  C311 9318   4.259   4.796   7.538 -0.3046  0.1550  0.4013
   94SAPS  H11X 9319   4.158   4.753   7.554 -0.1249 -1.4243 -2.0874
   94SAPS  H11Y 9320   4.268   4.906   7.531 -3.3076  0.5060  0.8156
   94SAPS  C312 9321   4.359   4.762   7.656 -0.0114  0.2728  0.7724
   94SAPS  H12X 9322   4.456   4.804   7.622 -0.6889  0.6140 -0.7997
   94SAPS  H12Y 9323   4.372   4.655   7.685  2.5490  0.2528 -0.1785
   94SAPS  C313 9324   4.311   4.828   7.789  0.0760 -0.2541  0.3681
   94SAPS  H13X 9325   4.214   4.775   7.795  0.2688 -1.3110 -3.4555
   94SAPS  H13Y 9326   4.304   4.938   7.776 -2.1320 -0.3096  0.7890
   94SAPS  C314 9327   4.410   4.807   7.903 -0.1856 -0.5714 -0.6702
   94SAPS  H14X 9328   4.418   4.699   7.927  1.2705 -0.1771  0.7697
   94SAPS  H14Y 9329   4.376   4.845   8.001  0.1754  0.0517 -0.7811
   94SAPS  C315 9330   4.558   4.851   7.877  0.1339  0.4835 -0.8017
   94SAPS  H15X 9331   4.619   4.779   7.818 -0.8335 -1.3585  0.3406
   94SAPS  H15Y 9332   4.614   4.838   7.972 -1.0514  0.7223 -0.0403
   94SAPS  C316 9333   4.566   4.991   7.816 -0.1786  0.9089 -0.3907
   94SAPS  H16X 9334   4.492   5.057   7.866  1.3628  1.9754  0.5739
   94SAPS  H16Y 9335   4.539   4.980   7.709  2.9382 -0.7515 -1.1344
   94SAPS  C317 9336   4.701   5.048   7.837 -0.4596 -0.3574 -0.2921
   94SAPS  H17X 9337   4.728   5.070   7.943  0.8369  1.1501 -0.9038
   94SAPS  H17Y 9338   4.690   5.141   7.778 -4.0792 -0.0210  0.6870
   94SAPS  C318 9339   4.822   4.973   7.773 -0.7423 -0.1820 -0.1324
   94SAPS  H18X 9340   4.848   4.874   7.816 -0.7183 -0.5324 -0.9199
   94SAPS  H18Y 9341   4.915   5.034   7.776 -1.1650  0.5688 -1.5661
   94SAPS  H18Z 9342   4.803   4.958   7.664 -0.1929  1.2352 -0.4479
   95SAPS     N 9343   1.118   3.591   4.983 -0.2802 -0.3088  0.1102
   95SAPS   HN1 9344   1.101   3.646   4.896 -0.0273  0.7955  0.7402
   95SAPS   HN2 9345   1.182   3.514   4.957 -1.6946 -1.3128 -0.5733
   95SAPS   HN3 9346   1.025   3.557   5.014  0.5513 -1.2582  1.6472
   95SAPS   C12 9347   1.155   3.714   5.062 -0.4048  0.4576  0.5314
   95SAPS  H12A 9348   1.253   3.749   5.034 -0.7819  1.4109  0.3472
   95SAPS   C13 9349   1.053   3.829   5.049  0.2156  0.1407  0.6031
   95SAPS  O13A 9350   0.941   3.811   4.997 -0.5656  0.2242  0.0121
   95SAPS  O13B 9351   1.093   3.949   5.071  0.1129  0.3563  0.1940
   95SAPS   C11 9352   1.151   3.680   5.214 -0.2887 -0.2828 -0.4075
   95SAPS  H11A 9353   1.047   3.654   5.240 -0.6621  0.6805 -0.9148
   95SAPS  H11B 9354   1.167   3.771   5.276 -2.8796 -0.8990  1.2887
   95SAPS     P 9355   1.212   3.448   5.317  0.2240 -0.1555  0.3658
   95SAPS   O13 9356   1.071   3.411   5.300 -0.4219 -0.7214  0.2879
   95SAPS   O14 9357   1.309   3.345   5.281 -0.5213  0.0553 -0.7441
   95SAPS   O12 9358   1.253   3.581   5.242  0.6398  0.7932 -0.2573
   95SAPS   O11 9359   1.224   3.482   5.471 -0.1663 -0.6542 -0.2825
   95SAPS    C1 9360   1.325   3.547   5.545 -0.1519  0.0417  0.1603
   95SAPS    HA 9361   1.426   3.542   5.498 -0.8164 -0.5773 -1.2348
   95SAPS    HB 9362   1.299   3.655   5.537  0.1423 -0.0462 -3.7104
   95SAPS    C2 9363   1.329   3.476   5.679  0.2851  1.0170  0.1734
   95SAPS    HS 9364   1.397   3.531   5.747  0.3041  1.8023 -0.4705
   95SAPS   O21 9365   1.361   3.335   5.666 -0.0814  0.6552 -0.2946
   95SAPS   C21 9366   1.492   3.316   5.660 -0.4634 -0.3186  0.1032
   95SAPS   O22 9367   1.573   3.398   5.627  0.2141  0.0334  0.8617
   95SAPS   C22 9368   1.529   3.183   5.717 -1.0707 -0.0018  0.3716
   95SAPS   H2R 9369   1.490   3.096   5.659  1.2408 -0.1684 -1.0501
   95SAPS   H2S 9370   1.640   3.176   5.720 -0.8669  1.2641 -2.2508
   95SAPS    C3 9371   1.204   3.506   5.761  0.0996 -0.7650 -0.3643
   95SAPS    HX 9372   1.126   3.445   5.712  0.6730 -0.7946 -1.2623
   95SAPS    HY 9373   1.185   3.616   5.756  4.7063  0.1875 -1.9499
   95SAPS   O31 9374   1.224   3.476   5.903  0.2762  0.6439  0.2689
   95SAPS   C31 9375   1.112   3.464   5.979 -0.5937 -0.1401 -0.4026
   95SAPS   O32 9376   0.995   3.475   5.949  0.0164  0.3348 -0.0105
   95SAPS   C32 9377   1.147   3.443   6.130 -0.0892 -0.2452 -0.0077
   95SAPS   H2X 9378   1.194   3.345   6.153  1.2680  0.2475 -0.5788
   95SAPS   H2Y 9379   1.051   3.454   6.185  0.3481  1.6486  0.4533
   95SAPS   C23 9380   1.483   3.153   5.863 -0.0161 -0.2022  0.3914
   95SAPS   H3R 9381   1.500   3.048   5.897  1.9629 -0.0836 -0.1252
   95SAPS   H3S 9382   1.374   3.172   5.869 -0.0290 -0.0319 -0.2963
   95SAPS   C24 9383   1.546   3.251   5.959 -0.6496  0.3816  0.0846
   95SAPS   H4R 9384   1.496   3.250   6.058  1.7358 -0.2787  1.3748
   95SAPS   H4S 9385   1.533   3.355   5.920  0.9523  0.3042 -0.7655
   95SAPS   C25 9386   1.696   3.223   5.980  0.0510 -0.0037 -0.0945
   95SAPS   H5R 9387   1.718   3.115   5.985  0.2794  0.0862  1.4074
   95SAPS   C26 9388   1.797   3.309   6.017  0.3506 -0.8422 -0.1578
   95SAPS   H6R 9389   1.898   3.267   6.028  1.4918  2.1716  2.6790
   95SAPS   C27 9390   1.776   3.457   6.025  0.1389 -0.1239  0.7293
   95SAPS   H7R 9391   1.863   3.495   6.084 -0.1324 -0.2438  1.2081
   95SAPS   H7S 9392   1.691   3.502   6.080  0.7763  0.3825  1.3318
   95SAPS   C28 9393   1.785   3.514   5.885 -0.1897 -0.7472 -0.3192
   95SAPS   H8R 9394   1.868   3.483   5.820 -0.3347  1.1030 -1.4647
   95SAPS   C29 9395   1.704   3.616   5.835 -0.5799  0.1105  0.0465
   95SAPS   H9R 9396   1.738   3.664   5.742 -2.6894  1.4555 -0.0922
   95SAPS  C210 9397   1.595   3.684   5.909 -0.3615 -0.0396  0.8976
   95SAPS  H10R 9398   1.636   3.738   5.997  0.5387  0.5451  0.1421
   95SAPS  H10S 9399   1.515   3.615   5.944 -2.3837  0.2171 -2.7950
   95SAPS  C211 9400   1.525   3.791   5.836 -0.5071 -0.4937 -0.1634
   95SAPS  H11R 9401   1.589   3.830   5.755  1.6851 -0.6975  1.3869
   95SAPS  C212 9402   1.430   3.876   5.876 -0.0100  0.2531 -0.5078
   95SAPS  H12R 9403   1.405   3.957   5.807 -0.5737 -0.0061 -0.6135
   95SAPS  C213 9404   1.353   3.857   6.003  0.1518  0.2411  0.1057
   95SAPS  H13R 9405   1.422   3.818   6.080 -0.3697  1.3006  1.1480
   95SAPS  H13S 9406   1.270   3.786   5.985 -0.4290  0.4689  1.7355
   95SAPS  C214 9407   1.283   3.978   6.048 -0.6221  0.2511 -0.0814
   95SAPS  H14R 9408   1.275   4.049   5.964 -3.0238  1.4304  1.0599
   95SAPS  C215 9409   1.244   4.010   6.177  0.0601  0.1519 -0.0779
   95SAPS  H15R 9410   1.223   4.115   6.204 -1.1146 -0.5297  1.8105
   95SAPS  C216 9411   1.243   3.919   6.291  0.4884  0.1500 -0.3750
   95SAPS  H16R 9412   1.296   3.961   6.379 -0.2153  2.2602 -0.8929
   95SAPS  H16S 9413   1.295   3.823   6.271  0.5753 -0.4588  2.4085
   95SAPS  C217 9414   1.093   3.893   6.327 -0.2754 -0.4336  0.1367
   95SAPS  H17R 9415   1.049   3.814   6.263  1.7846 -0.9309 -0.7295
   95SAPS  H17S 9416   1.029   3.983   6.317 -1.2243 -1.0779  0.2252
   95SAPS  C218 9417   1.065   3.843   6.478  0.4350 -0.8824 -0.1406
   95SAPS  H18R 9418   1.136   3.763   6.508  0.0859 -0.5131  1.8147
   95SAPS  H18S 9419   0.959   3.808   6.483  0.8933 -2.2168  3.1191
   95SAPS  C219 9420   1.091   3.954   6.579  0.0568  0.5409 -0.0316
   95SAPS  H19R 9421   1.003   4.023   6.574 -0.6727 -0.2987  0.7810
   95SAPS  H19S 9422   1.186   4.008   6.559 -0.2429  0.0570 -3.1911
   95SAPS  C220 9423   1.109   3.901   6.724 -1.2636  0.6841  0.0602
   95SAPS  H20R 9424   1.173   3.811   6.712 -0.8650  0.3865  3.5051
   95SAPS  H20S 9425   1.010   3.870   6.765 -1.0263 -0.9013 -0.4930
   95SAPS  H20T 9426   1.166   3.968   6.791  0.1989 -1.0396  0.6013
   95SAPS   C33 9427   1.237   3.559   6.186 -0.6715 -0.1458  0.0827
   95SAPS   H3X 9428   1.193   3.661   6.178  1.5434  0.9047  0.5526
   95SAPS   H3Y 9429   1.331   3.583   6.132 -1.2145  3.3754  0.4176
   95SAPS   C34 9430   1.279   3.547   6.334 -0.4633  0.2657  0.3111
   95SAPS   H4X 9431   1.190   3.524   6.398  1.3658 -2.7073  2.0741
   95SAPS   H4Y 9432   1.332   3.638   6.368  0.3039 -0.7155  1.8644
   95SAPS   C35 9433   1.381   3.435   6.361 -0.2788 -0.5496 -0.1518
   95SAPS   H5X 9434   1.369   3.351   6.289  0.8650  0.0329 -1.0636
   95SAPS   H5Y 9435   1.379   3.384   6.460  1.9392  0.8649  0.6850
   95SAPS   C36 9436   1.528   3.494   6.360  0.4999 -0.1002 -0.0129
   95SAPS   H6X 9437   1.538   3.562   6.447  0.6356  1.4160 -1.1891
   95SAPS   H6Y 9438   1.545   3.560   6.272  0.4402  2.1425  1.5825
   95SAPS   C37 9439   1.638   3.392   6.372 -0.1141  0.7543  0.0577
   95SAPS   H7X 9440   1.655   3.341   6.275 -1.0946 -1.9312  1.1869
   95SAPS   H7Y 9441   1.613   3.317   6.450  1.7172 -0.8181 -0.7969
   95SAPS   C38 9442   1.774   3.456   6.403 -0.1211 -0.3266  0.0332
   95SAPS   H8X 9443   1.773   3.516   6.496  2.0484  0.9195 -0.6808
   95SAPS   H8Y 9444   1.784   3.527   6.318 -0.9416  0.7190  0.7814
   95SAPS   C39 9445   1.887   3.355   6.390 -0.2858 -0.4064  0.0236
   95SAPS   H9X 9446   1.903   3.341   6.281  0.6817 -2.7056  0.4146
   95SAPS   H9Y 9447   1.855   3.267   6.450  2.3612 -1.2538  0.3364
   95SAPS  C310 9448   2.015   3.407   6.460  0.4512  0.1392 -0.0473
   95SAPS  H10X 9449   2.031   3.508   6.417  2.6424 -0.0332  0.2948
   95SAPS  H10Y 9450   2.103   3.342   6.440 -0.0722 -0.5204 -0.2604
   95SAPS  C311 9451   2.002   3.413   6.611  0.2918  0.2583 -0.0140
   95SAPS  H11X 9452   1.921   3.483   6.637 -1.4812 -2.1872  1.4915
   95SAPS  H11Y 9453   2.097   3.450   6.657 -0.6300  0.7163  1.5956
   95SAPS  C312 9454   1.964   3.281   6.683 -0.0380  0.0500 -0.5461
   95SAPS  H12X 9455   2.054   3.219   6.664  1.3951  2.3581 -1.6992
   95SAPS  H12Y 9456   1.885   3.222   6.631  0.0618 -2.7310  2.1738
   95SAPS  C313 9457   1.952   3.289   6.837  0.7292 -0.6525 -0.8124
   95SAPS  H13X 9458   2.030   3.361   6.870  0.8871 -0.7749 -0.9211
   95SAPS  H13Y 9459   1.973   3.192   6.886 -1.4863  0.2520  2.2453
   95SAPS  C314 9460   1.808   3.319   6.877 -0.4332  0.1221 -0.5635
   95SAPS  H14X 9461   1.742   3.255   6.815 -1.7443 -0.2416  1.1384
   95SAPS  H14Y 9462   1.790   3.428   6.861  3.4354  0.5313 -3.3776
   95SAPS  C315 9463   1.772   3.283   7.014 -0.0512 -0.0528  0.2203
   95SAPS  H15X 9464   1.800   3.177   7.033 -0.4216  0.0015  1.1110
   95SAPS  H15Y 9465   1.663   3.290   7.031  0.0617  2.6419  0.3139
   95SAPS  C316 9466   1.849   3.366   7.120 -0.4024  0.7242  0.3733
   95SAPS  H16X 9467   1.833   3.473   7.096  0.5272  0.4494 -1.7470
   95SAPS  H16Y 9468   1.959   3.348   7.116 -0.7006 -1.5453  0.9247
   95SAPS  C317 9469   1.808   3.334   7.265 -0.0296  0.1664 -0.5728
   95SAPS  H17X 9470   1.808   3.224   7.281 -0.8927  0.5926  3.1116
   95SAPS  H17Y 9471   1.705   3.368   7.285 -1.1152 -1.6513 -2.5998
   95SAPS  C318 9472   1.903   3.386   7.375  0.2036 -0.2152  0.4091
   95SAPS  H18X 9473   1.902   3.496   7.358 -0.6338 -0.5590 -2.1584
   95SAPS  H18Y 9474   2.002   3.335   7.366  0.1963 -0.1806  0.1310
   95SAPS  H18Z 9475   1.861   3.376   7.477  1.7949  2.3514  1.4300
   96SAPS     N 9476   2.017   4.890   5.506 -0.2886 -0.7112 -0.2412
   96SAPS   HN1 9477   2.100   4.851   5.455  1.2488  1.5064  0.4433
   96SAPS   HN2 9478   2.056   4.959   5.573  0.5044 -1.1684 -0.2062
   96SAPS   HN3 9479   1.964   4.820   5.562  0.8388 -0.0496  1.7268
   96SAPS   C12 9480   1.936   4.967   5.412  0.7000 -0.0910 -0.3670
   96SAPS  H12A 9481   1.995   5.039   5.357 -0.4208  0.5547 -0.7554
   96SAPS   C13 9482   1.857   4.874   5.315  0.1887 -0.6584 -0.0940
   96SAPS  O13A 9483   1.839   4.758   5.346  0.0221  0.1442  0.2648
   96SAPS  O13B 9484   1.778   4.935   5.238 -0.2542  0.3652 -0.4598
   96SAPS   C11 9485   1.835   5.041   5.503 -0.0478 -0.3688 -0.6217
   96SAPS  H11A 9486   1.789   4.976   5.581 -0.0054  0.3047 -0.0297
   96SAPS  H11B 9487   1.746   5.077   5.448 -0.7153 -0.6175  0.2757
   96SAPS     P 9488   1.941   5.164   5.719 -0.0058  0.0353 -0.0548
   96SAPS   O13 9489   1.994   5.030   5.742  0.0405 -0.0568  0.3252
   96SAPS   O14 9490   2.042   5.269   5.720 -0.5414 -0.4323  0.5364
   96SAPS   O12 9491   1.876   5.163   5.573  0.0193 -0.1926 -0.1675
   96SAPS   O11 9492   1.820   5.201   5.817 -0.2896  0.4207 -0.3764
   96SAPS    C1 9493   1.754   5.324   5.792  0.6242 -0.4785  0.4535
   96SAPS    HA 9494   1.787   5.401   5.865  0.7835 -2.2164  2.2674
   96SAPS    HB 9495   1.777   5.370   5.693 -2.0792  3.1181  1.2315
   96SAPS    C2 9496   1.599   5.308   5.810  0.4563 -0.5879  0.6409
   96SAPS    HS 9497   1.548   5.405   5.791  0.7125 -0.9385 -2.1651
   96SAPS   O21 9498   1.570   5.254   5.942  0.4039  0.7253 -0.8117
   96SAPS   C21 9499   1.586   5.340   6.041  0.7252 -0.0383  0.4464
   96SAPS   O22 9500   1.580   5.462   6.033 -0.4384  0.3123  1.1053
   96SAPS   C22 9501   1.621   5.261   6.167 -0.3964  0.6410 -0.2188
   96SAPS   H2R 9502   1.534   5.196   6.184 -0.2260  0.2824 -0.7052
   96SAPS   H2S 9503   1.709   5.197   6.145 -2.0449 -1.8584  0.0719
   96SAPS    C3 9504   1.546   5.210   5.696  0.1347  0.0489 -0.6674
   96SAPS    HX 9505   1.593   5.252   5.604 -0.1246  0.4853 -0.6021
   96SAPS    HY 9506   1.435   5.219   5.697  0.1453  0.1365  0.3975
   96SAPS   O31 9507   1.592   5.076   5.702 -0.2746 -0.6123 -0.0002
   96SAPS   C31 9508   1.518   4.991   5.770  0.5709  0.4080 -0.5140
   96SAPS   O32 9509   1.407   5.019   5.812  0.0825  0.4422  0.6020
   96SAPS   C32 9510   1.594   4.853   5.777 -0.2206  0.4067 -0.1597
   96SAPS   H2X 9511   1.652   4.836   5.684  0.6311 -3.5749  0.9194
   96SAPS   H2Y 9512   1.523   4.772   5.751 -0.2596  0.7304 -1.0800
   96SAPS   C23 9513   1.655   5.348   6.297  0.1149  0.0224 -0.2979
   96SAPS   H3R 9514   1.570   5.408   6.336 -0.5780 -1.3711  0.4160
   96SAPS   H3S 9515   1.738   5.409   6.256  0.8421 -1.9308 -1.8924
   96SAPS   C24 9516   1.722   5.256   6.404  0.0336  0.0254  0.5539
   96SAPS   H4R 9517   1.785   5.311   6.477 -0.1543 -0.2839  0.9529
   96SAPS   H4S 9518   1.792   5.193   6.345  0.4041  1.3981 -0.5339
   96SAPS   C25 9519   1.632   5.161   6.475 -0.1761 -0.1307 -0.5656
   96SAPS   H5R 9520   1.600   5.077   6.412 -1.7487 -0.3561  0.4910
   96SAPS   C26 9521   1.566   5.184   6.590  0.4942  0.4805  0.3762
   96SAPS   H6R 9522   1.498   5.106   6.628  1.6675  0.0616  1.7022
   96SAPS   C27 9523   1.586   5.308   6.668 -0.1365 -0.2622 -0.4930
   96SAPS   H7R 9524   1.603   5.395   6.602 -2.7887  1.2533  0.6486
   96SAPS   H7S 9525   1.679   5.287   6.725 -0.8762  1.4821  1.4994
   96SAPS   C28 9526   1.472   5.341   6.763  0.4860 -0.2399  1.0090
   96SAPS   H8R 9527   1.384   5.393   6.722 -0.2103 -0.6377  1.9706
   96SAPS   C29 9528   1.451   5.282   6.883  0.2910 -0.3373  0.5235
   96SAPS   H9R 9529   1.357   5.307   6.934 -0.9144 -0.9464 -1.2795
   96SAPS  C210 9530   1.548   5.187   6.949 -0.1486 -0.6619  1.0193
   96SAPS  H10R 9531   1.653   5.218   6.930  0.0760 -2.1668 -0.4597
   96SAPS  H10S 9532   1.533   5.086   6.905 -0.8721 -0.6267  1.1716
   96SAPS  C211 9533   1.519   5.168   7.098  0.1506 -0.5284  0.7360
   96SAPS  H11R 9534   1.421   5.129   7.128 -0.8102  0.5289 -0.8816
   96SAPS  C212 9535   1.602   5.189   7.209 -0.3472  1.0586  0.7194
   96SAPS  H12R 9536   1.564   5.167   7.310 -1.3860 -0.0162  0.1221
   96SAPS  C213 9537   1.750   5.217   7.196  0.2518 -0.0232 -0.0656
   96SAPS  H13R 9538   1.776   5.269   7.101 -1.0781 -0.1979 -0.5513
   96SAPS  H13S 9539   1.806   5.121   7.193 -1.3836 -1.0565  1.0398
   96SAPS  C214 9540   1.791   5.288   7.318 -0.1352  0.6330  0.1590
   96SAPS  H14R 9541   1.755   5.392   7.316 -2.0861 -0.0199 -1.9472
   96SAPS  C215 9542   1.869   5.249   7.420 -0.5817 -0.5288 -0.2122
   96SAPS  H15R 9543   1.886   5.322   7.501  2.0920 -0.1111 -1.0585
   96SAPS  C216 9544   1.943   5.119   7.443 -0.2537 -0.0100  0.5065
   96SAPS  H16R 9545   1.991   5.079   7.351  0.5141  0.1883  0.8144
   96SAPS  H16S 9546   1.859   5.051   7.469 -0.7739  0.6922  0.7007
   96SAPS  C217 9547   2.045   5.105   7.558  0.4141  0.5569 -0.2819
   96SAPS  H17R 9548   2.103   5.198   7.574  2.0188 -0.3655 -0.4687
   96SAPS  H17S 9549   2.116   5.020   7.544 -0.6555 -0.8573  2.2137
   96SAPS  C218 9550   1.978   5.090   7.696  0.4619 -1.3121  0.3292
   96SAPS  H18R 9551   1.927   4.991   7.697 -0.2416 -0.9546  0.0027
   96SAPS  H18S 9552   1.894   5.162   7.699  1.2614 -0.3852  2.4675
   96SAPS  C219 9553   2.071   5.129   7.813  0.2524 -0.0391  0.0051
   96SAPS  H19R 9554   2.086   5.239   7.817  1.2734 -0.1905  0.6643
   96SAPS  H19S 9555   2.173   5.086   7.807  0.5330 -0.3397  4.1242
   96SAPS  C220 9556   2.011   5.074   7.941  0.3866 -1.0862  0.1473
   96SAPS  H20R 9557   1.928   5.140   7.973  1.6947  0.7407 -0.0647
   96SAPS  H20S 9558   2.088   5.083   8.021  1.2454  2.1928 -0.9084
   96SAPS  H20T 9559   1.973   4.971   7.923 -3.3679  0.3739 -1.0858
   96SAPS   C33 9560   1.676   4.843   5.898  0.4478 -0.4327  0.4400
   96SAPS   H3X 9561   1.748   4.927   5.898 -0.2590  0.1904 -0.4017
   96SAPS   H3Y 9562   1.731   4.747   5.897 -3.4816 -2.9405 -0.5668
   96SAPS   C34 9563   1.607   4.820   6.033  0.8419 -0.7064 -0.0395
   96SAPS   H4X 9564   1.530   4.740   6.026 -0.3234  0.4135 -0.2000
   96SAPS   H4Y 9565   1.545   4.908   6.060  1.2816  0.2850 -2.1211
   96SAPS   C35 9566   1.710   4.784   6.142  1.1922  0.4371  0.1294
   96SAPS   H5X 9567   1.786   4.864   6.131  1.8106  0.1391  1.9193
   96SAPS   H5Y 9568   1.750   4.682   6.122  0.0477 -0.3938  1.8008
   96SAPS   C36 9569   1.639   4.786   6.277 -0.1882  0.3364 -0.1840
   96SAPS   H6X 9570   1.554   4.715   6.283  0.3170 -0.1594  2.0095
   96SAPS   H6Y 9571   1.595   4.888   6.284 -1.0690 -0.1131  1.0828
   96SAPS   C37 9572   1.740   4.747   6.380 -0.2231  0.1941 -0.7361
   96SAPS   H7X 9573   1.825   4.814   6.357  1.0325 -0.7366  0.9703
   96SAPS   H7Y 9574   1.772   4.642   6.365 -0.9126  0.0648 -1.3677
   96SAPS   C38 9575   1.709   4.769   6.528 -0.9507  0.6437 -0.2607
   96SAPS   H8X 9576   1.619   4.829   6.553 -1.5778 -0.2379 -0.3793
   96SAPS   H8Y 9577   1.788   4.837   6.567  1.7735 -0.2645 -3.7482
   96SAPS   C39 9578   1.740   4.644   6.614  0.4034 -0.6292  0.3735
   96SAPS   H9X 9579   1.828   4.588   6.577 -0.4533 -1.3523 -0.6375
   96SAPS   H9Y 9580   1.652   4.576   6.619  0.3630 -0.5329  0.9728
   96SAPS  C310 9581   1.787   4.686   6.755  0.7924  0.4107  1.1363
   96SAPS  H10X 9582   1.878   4.748   6.750  1.8012 -1.0542  0.6668
   96SAPS  H10Y 9583   1.819   4.589   6.800 -1.3541 -0.0911  1.6972
   96SAPS  C311 9584   1.668   4.749   6.841 -0.1760  0.0534  0.3651
   96SAPS  H11X 9585   1.597   4.664   6.849 -0.2501  0.2974  3.4754
   96SAPS  H11Y 9586   1.620   4.843   6.807 -1.6940 -0.1497  1.8344
   96SAPS  C312 9587   1.729   4.778   6.977 -0.1078  0.2266  0.8398
   96SAPS  H12X 9588   1.803   4.861   6.966  1.5005 -1.1385  1.0633
   96SAPS  H12Y 9589   1.768   4.682   7.014 -1.4137 -0.3606  0.7603
   96SAPS  C313 9590   1.623   4.812   7.087 -0.2358  0.2280  0.0951
   96SAPS  H13X 9591   1.546   4.732   7.079 -1.0624  0.8311  1.6146
   96SAPS  H13Y 9592   1.572   4.908   7.064 -1.4661 -0.7331 -1.4546
   96SAPS  C314 9593   1.701   4.815   7.220 -0.5567  0.2725 -0.5647
   96SAPS  H14X 9594   1.724   4.922   7.239 -2.2402  0.9945 -2.1503
   96SAPS  H14Y 9595   1.791   4.751   7.213  0.0281  0.6102  2.5531
   96SAPS  C315 9596   1.601   4.763   7.322  0.1463 -0.1251 -0.5000
   96SAPS  H15X 9597   1.545   4.676   7.282 -0.5714  0.5253 -0.9370
   96SAPS  H15Y 9598   1.534   4.851   7.332  0.0953 -0.3248  1.0960
   96SAPS  C316 9599   1.652   4.740   7.469 -0.6951 -0.1971  0.1468
   96SAPS  H16X 9600   1.723   4.814   7.511  1.3789 -1.3587 -1.1096
   96SAPS  H16Y 9601   1.713   4.647   7.467  1.8281  1.3204  1.4937
   96SAPS  C317 9602   1.549   4.724   7.582 -0.1935 -0.5880  0.4513
   96SAPS  H17X 9603   1.601   4.676   7.667  0.1325  1.7570  1.6467
   96SAPS  H17Y 9604   1.469   4.654   7.548 -0.3961 -0.7143  1.1701
   96SAPS  C318 9605   1.483   4.854   7.619 -0.1630  0.6391 -0.2489
   96SAPS  H18X 9606   1.449   4.851   7.725  0.4283 -0.2391 -0.0741
   96SAPS  H18Y 9607   1.408   4.881   7.542  0.7831 -2.0570 -2.2424
   96SAPS  H18Z 9608   1.551   4.943   7.617 -1.1679  1.4241 -1.7360
   97SAPS     N 9609   2.307   1.567   5.369  0.8295 -0.9597  0.3460
   97SAPS   HN1 9610   2.393   1.588   5.424  0.8563  2.7494 -0.8240
   97SAPS   HN2 9611   2.305   1.464   5.358 -1.5325 -0.7026 -2.9653
   97SAPS   HN3 9612   2.308   1.608   5.273 -2.2804  0.1080  0.6550
   97SAPS   C12 9613   2.191   1.609   5.450  0.6072 -0.1763  0.5345
   97SAPS  H12A 9614   2.176   1.715   5.434  0.3306 -0.4538 -1.2824
   97SAPS   C13 9615   2.046   1.554   5.412  0.3303  0.1816 -0.4563
   97SAPS  O13A 9616   2.039   1.439   5.367  0.2735  0.1727 -0.1810
   97SAPS  O13B 9617   1.945   1.610   5.457  0.3231  0.1312 -0.6604
   97SAPS   C11 9618   2.215   1.583   5.596 -0.2954  0.4644 -0.2068
   97SAPS  H11A 9619   2.238   1.474   5.598  0.4387  0.6146 -0.2816
   97SAPS  H11B 9620   2.123   1.602   5.655 -0.5208  1.0307 -0.7310
   97SAPS     P 9621   2.317   1.806   5.692  0.0243 -0.2109 -0.1401
   97SAPS   O13 9622   2.376   1.882   5.580 -0.1179 -0.7496  0.1617
   97SAPS   O14 9623   2.179   1.831   5.739 -0.1471  0.6081  0.1709
   97SAPS   O12 9624   2.323   1.651   5.654  0.0933  0.7298 -0.0203
   97SAPS   O11 9625   2.409   1.816   5.816  0.0745  0.0465  0.1929
   97SAPS    C1 9626   2.488   1.711   5.868  0.4090 -0.5216  0.1714
   97SAPS    HA 9627   2.536   1.648   5.791  1.7894  0.0907  0.4970
   97SAPS    HB 9628   2.568   1.759   5.929  1.5731 -0.9668 -0.9442
   97SAPS    C2 9629   2.409   1.616   5.962  0.2853  0.5196 -0.3049
   97SAPS    HS 9630   2.341   1.561   5.893 -0.8827  1.6663 -0.1175
   97SAPS   O21 9631   2.319   1.679   6.059 -0.9918 -0.2393  0.0806
   97SAPS   C21 9632   2.231   1.606   6.122 -0.2451  0.5511  0.2844
   97SAPS   O22 9633   2.221   1.484   6.105  0.4153 -0.9000  0.7379
   97SAPS   C22 9634   2.144   1.688   6.215 -0.6620  0.0721 -0.4508
   97SAPS   H2R 9635   2.167   1.796   6.205 -1.5612  0.4893  1.4891
   97SAPS   H2S 9636   2.039   1.678   6.180 -0.3478  0.5327 -1.5354
   97SAPS    C3 9637   2.511   1.516   6.022  0.1561  0.4099 -0.8586
   97SAPS    HX 9638   2.562   1.475   5.932  0.1814  0.7855 -1.0159
   97SAPS    HY 9639   2.458   1.430   6.070  2.6512 -0.3730  0.6850
   97SAPS   O31 9640   2.605   1.578   6.110 -0.3472 -0.6764 -0.0628
   97SAPS   C31 9641   2.573   1.586   6.234 -0.3170 -0.4299 -0.7101
   97SAPS   O32 9642   2.469   1.540   6.282  1.5164  0.5058 -0.0829
   97SAPS   C32 9643   2.672   1.674   6.319  0.5597  0.2529  0.1924
   97SAPS   H2X 9644   2.711   1.748   6.246  0.6446 -0.3860 -0.4115
   97SAPS   H2Y 9645   2.749   1.606   6.358  1.5034  1.4752  0.5269
   97SAPS   C23 9646   2.165   1.660   6.363 -0.7654  0.3228  0.3981
   97SAPS   H3R 9647   2.266   1.702   6.384 -0.2035 -0.0086 -1.4800
   97SAPS   H3S 9648   2.171   1.550   6.379  3.3847  0.4620  0.6736
   97SAPS   C24 9649   2.042   1.701   6.452  0.1975  0.2327  0.1432
   97SAPS   H4R 9650   1.950   1.651   6.415  0.5212 -0.1213 -0.2095
   97SAPS   H4S 9651   2.022   1.806   6.422 -1.7489 -0.0161  0.4654
   97SAPS   C25 9652   2.072   1.671   6.595 -0.0576 -0.2801 -0.1786
   97SAPS   H5R 9653   2.113   1.756   6.652  0.0643 -0.5182  0.0868
   97SAPS   C26 9654   2.066   1.556   6.663  0.0828  0.1816 -0.1744
   97SAPS   H6R 9655   2.091   1.543   6.769 -0.8732 -0.5612 -0.0175
   97SAPS   C27 9656   2.026   1.422   6.595 -0.2576 -0.0019 -0.8010
   97SAPS   H7R 9657   2.089   1.335   6.622 -0.3102 -0.5751 -2.4198
   97SAPS   H7S 9658   2.031   1.439   6.485  0.9160  2.6459 -0.4168
   97SAPS   C28 9659   1.890   1.379   6.637  0.0877 -0.3460 -0.6063
   97SAPS   H8R 9660   1.886   1.382   6.747 -0.4204  0.0258 -0.6328
   97SAPS   C29 9661   1.812   1.303   6.559 -0.7699 -0.2049 -0.3981
   97SAPS   H9R 9662   1.725   1.254   6.605  0.3845 -1.8746  0.1059
   97SAPS  C210 9663   1.837   1.278   6.404  0.1797 -0.2303 -0.4024
   97SAPS  H10R 9664   1.875   1.177   6.382 -2.8817 -1.1105 -2.3599
   97SAPS  H10S 9665   1.913   1.336   6.347 -2.1049 -2.2530 -6.2261
   97SAPS  C211 9666   1.707   1.284   6.322  0.7358  0.8966 -0.7639
   97SAPS  H11R 9667   1.675   1.388   6.312 -0.8267  0.5311  0.0479
   97SAPS  C212 9668   1.624   1.173   6.298  0.1631 -0.5411 -1.4856
   97SAPS  H12R 9669   1.523   1.201   6.265 -0.0232 -0.6689 -1.0373
   97SAPS  C213 9670   1.640   1.026   6.328  0.5997 -0.6273  0.5872
   97SAPS  H13R 9671   1.544   1.001   6.377 -1.4355  0.3559 -2.5439
   97SAPS  H13S 9672   1.725   1.000   6.394 -0.7493 -0.2905  2.5422
   97SAPS  C214 9673   1.668   0.935   6.208 -0.8069 -0.2308 -0.1210
   97SAPS  H14R 9674   1.765   0.954   6.158  1.0621  0.5415  3.4996
   97SAPS  C215 9675   1.603   0.818   6.183  0.4394 -0.0564 -0.3948
   97SAPS  H15R 9676   1.616   0.760   6.091  0.8452 -1.1003  0.2925
   97SAPS  C216 9677   1.489   0.762   6.263 -0.4345  0.2151 -0.0020
   97SAPS  H16R 9678   1.405   0.736   6.196 -1.5839  0.6592  1.2112
   97SAPS  H16S 9679   1.443   0.822   6.345 -1.1467 -0.1809 -0.1045
   97SAPS  C217 9680   1.529   0.630   6.334  0.2077 -0.2845 -0.4266
   97SAPS  H17R 9681   1.457   0.598   6.413 -0.8786 -1.0532 -1.6623
   97SAPS  H17S 9682   1.627   0.638   6.383  0.4290  0.3382 -0.9588
   97SAPS  C218 9683   1.540   0.516   6.232  0.6171 -0.2552  0.3238
   97SAPS  H18R 9684   1.587   0.568   6.145  1.5444  2.5452  2.3450
   97SAPS  H18S 9685   1.437   0.487   6.203  0.9482  1.0565 -2.4640
   97SAPS  C219 9686   1.628   0.401   6.280 -0.1058  0.3433  0.4086
   97SAPS  H19R 9687   1.595   0.368   6.381  1.2246  0.2622  0.8372
   97SAPS  H19S 9688   1.730   0.442   6.294  0.2328  0.6961 -2.5894
   97SAPS  C220 9689   1.648   0.291   6.180 -0.1067 -0.5341  0.2602
   97SAPS  H20R 9690   1.717   0.211   6.217 -0.5869 -0.6771  0.8638
   97SAPS  H20S 9691   1.686   0.327   6.082  0.4242 -1.9598 -0.0841
   97SAPS  H20T 9692   1.552   0.242   6.153  0.4807 -0.8831 -1.3229
   97SAPS   C33 9693   2.606   1.749   6.439 -0.3163  0.3073  0.1060
   97SAPS   H3X 9694   2.517   1.795   6.391  0.4381  0.4920 -1.1840
   97SAPS   H3Y 9695   2.672   1.832   6.474 -0.7434  0.3941  0.7342
   97SAPS   C34 9696   2.590   1.652   6.556 -0.1237 -0.0694 -0.3133
   97SAPS   H4X 9697   2.691   1.621   6.590  0.1536 -1.6805 -2.4263
   97SAPS   H4Y 9698   2.533   1.564   6.519 -0.2557  0.1188 -0.5642
   97SAPS   C35 9699   2.519   1.717   6.676 -0.1785  0.2554 -0.5102
   97SAPS   H5X 9700   2.425   1.769   6.648 -0.9780 -1.2076 -0.6365
   97SAPS   H5Y 9701   2.582   1.794   6.724  0.7391 -0.8951  0.2005
   97SAPS   C36 9702   2.496   1.609   6.787 -0.5197  0.3418  0.0777
   97SAPS   H6X 9703   2.591   1.581   6.836  1.0303 -0.9056 -3.3002
   97SAPS   H6Y 9704   2.447   1.524   6.736 -0.5120  2.2617 -3.4546
   97SAPS   C37 9705   2.401   1.662   6.891  0.2584 -0.2525 -0.7066
   97SAPS   H7X 9706   2.320   1.707   6.829  0.0393 -0.6802 -0.7364
   97SAPS   H7Y 9707   2.448   1.743   6.951 -0.2157 -1.6316  1.6814
   97SAPS   C38 9708   2.338   1.558   6.981 -0.4571  0.4817 -0.2683
   97SAPS   H8X 9709   2.413   1.482   7.012 -3.0794 -1.4557  1.8106
   97SAPS   H8Y 9710   2.269   1.502   6.915  0.3623  0.9261 -1.5400
   97SAPS   C39 9711   2.249   1.608   7.096 -0.0384 -0.3149  0.5688
   97SAPS   H9X 9712   2.194   1.694   7.051  0.8950 -1.0344 -2.1586
   97SAPS   H9Y 9713   2.320   1.649   7.172 -0.6458  3.7791 -0.7977
   97SAPS  C310 9714   2.134   1.521   7.147  0.3765  0.2271 -0.0574
   97SAPS  H10X 9715   2.074   1.563   7.230 -0.2862  0.1625 -0.4985
   97SAPS  H10Y 9716   2.190   1.434   7.187 -0.3370 -0.4412 -0.4815
   97SAPS  C311 9717   2.029   1.478   7.039  0.5554 -0.2530 -0.7901
   97SAPS  H11X 9718   2.079   1.410   6.967 -0.5052 -1.1913 -0.6892
   97SAPS  H11Y 9719   2.000   1.570   6.985  0.3660  0.3294  0.2621
   97SAPS  C312 9720   1.904   1.406   7.107 -0.3735  0.9056  0.1839
   97SAPS  H12X 9721   1.839   1.484   7.153  0.9305  0.8980  2.1712
   97SAPS  H12Y 9722   1.950   1.346   7.188  0.9267 -0.1804 -1.2871
   97SAPS  C313 9723   1.820   1.337   6.999  0.6987  0.7375 -0.1994
   97SAPS  H13X 9724   1.878   1.259   6.945 -0.0175  0.6234 -0.8287
   97SAPS  H13Y 9725   1.779   1.413   6.928 -1.8985  0.3704  0.8013
   97SAPS  C314 9726   1.689   1.266   7.058  0.3170  0.8485 -0.1917
   97SAPS  H14X 9727   1.636   1.356   7.098  2.3192  2.0249 -0.0601
   97SAPS  H14Y 9728   1.716   1.199   7.142 -0.3345  0.9407  0.0972
   97SAPS  C315 9729   1.592   1.198   6.962 -0.9450  0.4333  0.1683
   97SAPS  H15X 9730   1.598   1.240   6.859 -0.5020 -0.3005 -0.1120
   97SAPS  H15Y 9731   1.485   1.213   6.989 -0.7855 -0.3483  1.2960
   97SAPS  C316 9732   1.620   1.044   6.958  0.1693 -0.1379 -0.1618
   97SAPS  H16X 9733   1.617   1.000   7.060  0.0747 -1.0130 -0.5326
   97SAPS  H16Y 9734   1.720   1.048   6.909  0.2410  2.0974  0.0780
   97SAPS  C317 9735   1.510   0.982   6.869  0.7390 -0.3647  1.0528
   97SAPS  H17X 9736   1.485   1.044   6.780 -1.1000 -1.3278  0.8321
   97SAPS  H17Y 9737   1.418   0.965   6.929  0.8620 -2.7020  0.6972
   97SAPS  C318 9738   1.553   0.847   6.810  0.1056  0.0034 -0.2571
   97SAPS  H18X 9739   1.629   0.852   6.729  1.9192  1.4592  1.4438
   97SAPS  H18Y 9740   1.473   0.795   6.754 -1.6939  1.5589  0.7358
   97SAPS  H18Z 9741   1.587   0.773   6.886 -0.7726  0.8422  0.9961
   98SAPS     N 9742   0.713   2.879   5.217  0.2502 -0.5294 -0.2632
   98SAPS   HN1 9743   0.670   2.789   5.247 -1.0070  0.5026  1.2192
   98SAPS   HN2 9744   0.773   2.863   5.134 -2.0852 -0.3909 -2.0912
   98SAPS   HN3 9745   0.769   2.908   5.300 -1.1145 -1.4840  1.0603
   98SAPS   C12 9746   0.625   2.998   5.175 -1.0415  0.3346  0.3794
   98SAPS  H12A 9747   0.667   3.077   5.234  0.5728 -2.5601  3.3725
   98SAPS   C13 9748   0.636   3.039   5.026 -0.3429  0.2069  0.0123
   98SAPS  O13A 9749   0.714   2.972   4.954  0.2663  0.3662  0.1935
   98SAPS  O13B 9750   0.555   3.123   4.977  0.5833  0.0602 -0.3261
   98SAPS   C11 9751   0.482   2.976   5.227  0.6863  0.0476 -0.4159
   98SAPS  H11A 9752   0.447   2.895   5.159  0.2542  0.6368 -0.9004
   98SAPS  H11B 9753   0.420   3.067   5.215  0.2412 -0.1439  0.4051
   98SAPS     P 9754   0.380   2.968   5.476 -0.2392 -0.0511  0.2689
   98SAPS   O13 9755   0.332   3.111   5.470 -0.1385 -0.2366 -0.2125
   98SAPS   O14 9756   0.267   2.866   5.479  0.0590 -0.8131  0.0078
   98SAPS   O12 9757   0.477   2.929   5.361  1.0407  0.5103  0.3711
   98SAPS   O11 9758   0.466   2.946   5.605  0.4848  1.0098 -0.0418
   98SAPS    C1 9759   0.538   2.816   5.617 -0.1406  0.0093 -0.0740
   98SAPS    HA 9760   0.472   2.727   5.625  1.3535 -0.9917  2.7521
   98SAPS    HB 9761   0.590   2.795   5.521 -4.6254 -2.1821 -2.3424
   98SAPS    C2 9762   0.634   2.816   5.737 -0.4779 -0.0226  0.5834
   98SAPS    HS 9763   0.669   2.711   5.743 -2.3990 -0.7202  0.3771
   98SAPS   O21 9764   0.566   2.848   5.856  0.0209  0.2511 -0.5296
   98SAPS   C21 9765   0.497   2.745   5.906  0.1580  0.2881  0.2510
   98SAPS   O22 9766   0.510   2.629   5.874  0.1561 -0.0711 -0.1043
   98SAPS   C22 9767   0.380   2.805   5.997 -0.5192 -0.4120  0.4582
   98SAPS   H2R 9768   0.424   2.846   6.091  1.3867 -1.3263  0.0083
   98SAPS   H2S 9769   0.331   2.890   5.945 -1.2485 -0.4127  1.1208
   98SAPS    C3 9770   0.755   2.912   5.712  0.5064  0.1231 -0.7290
   98SAPS    HX 9771   0.719   3.016   5.694 -1.9287 -0.7265 -1.1137
   98SAPS    HY 9772   0.800   2.874   5.618  0.3019  1.1672 -1.2570
   98SAPS   O31 9773   0.850   2.896   5.811 -0.1786 -0.3661 -0.0523
   98SAPS   C31 9774   0.860   3.001   5.905 -1.0372  0.1431 -0.5801
   98SAPS   O32 9775   0.778   3.091   5.913 -0.0880 -0.1419  0.1235
   98SAPS   C32 9776   0.976   2.977   6.007 -0.0223 -0.3564  0.2047
   98SAPS   H2X 9777   1.056   3.049   5.979  0.7608 -1.6315 -1.0263
   98SAPS   H2Y 9778   1.013   2.872   5.997  0.1108 -0.2900 -0.0062
   98SAPS   C23 9779   0.275   2.700   6.027 -0.3627  0.2766 -0.0781
   98SAPS   H3R 9780   0.316   2.607   6.073 -2.5294 -1.2335 -1.0204
   98SAPS   H3S 9781   0.220   2.662   5.938  0.1682 -2.6753  0.7375
   98SAPS   C24 9782   0.170   2.751   6.123 -0.4471 -0.1179 -0.0176
   98SAPS   H4R 9783   0.154   2.861   6.123 -1.8696 -0.2996  0.6233
   98SAPS   H4S 9784   0.206   2.724   6.225  1.3430  0.6276 -0.4243
   98SAPS   C25 9785   0.026   2.702   6.093  0.0423  0.3673 -0.0132
   98SAPS   H5R 9786   0.008   2.689   5.986  1.9839 -0.4819 -0.2758
   98SAPS   C26 9787  -0.069   2.685   6.184 -0.5650  0.0578 -0.3287
   98SAPS   H6R 9788  -0.168   2.650   6.150 -0.9411  1.8281 -1.2279
   98SAPS   C27 9789  -0.068   2.692   6.332  0.2698  0.1800 -1.0505
   98SAPS   H7R 9790   0.037   2.681   6.366  0.2895  2.7810 -0.0268
   98SAPS   H7S 9791  -0.128   2.607   6.371 -0.9002  1.8231  0.9795
   98SAPS   C28 9792  -0.099   2.826   6.393  0.4569 -1.1636  0.2205
   98SAPS   H8R 9793  -0.093   2.905   6.317 -1.0357 -1.3060 -0.0739
   98SAPS   C29 9794  -0.115   2.867   6.524  0.4398 -0.1443  0.4744
   98SAPS   H9R 9795  -0.119   2.976   6.539 -0.6629  0.1788 -1.7942
   98SAPS  C210 9796  -0.112   2.771   6.644  0.2717 -0.6175 -0.2536
   98SAPS  H10R 9797  -0.151   2.668   6.626  0.4104 -0.9613  1.2847
   98SAPS  H10S 9798  -0.170   2.806   6.732 -1.2023 -1.7845 -0.7316
   98SAPS  C211 9799   0.034   2.742   6.675 -0.7637  0.4899 -0.1819
   98SAPS  H11R 9800   0.076   2.650   6.634  1.7186  2.0652 -1.3704
   98SAPS  C212 9801   0.110   2.825   6.757 -0.2216  0.2905  0.1354
   98SAPS  H12R 9802   0.214   2.794   6.772  0.8454  2.7047 -1.5629
   98SAPS  C213 9803   0.065   2.956   6.822  0.1697 -0.4045 -0.1591
   98SAPS  H13R 9804  -0.012   2.947   6.902 -1.2514  0.1533 -1.4087
   98SAPS  H13S 9805  -0.003   3.003   6.748  0.7079  1.9859  0.7875
   98SAPS  C214 9806   0.166   3.050   6.875 -0.2884  0.7152  0.9276
   98SAPS  H14R 9807   0.269   3.012   6.883  0.1165  1.8108  1.0268
   98SAPS  C215 9808   0.149   3.174   6.904  0.3051  0.0349 -0.0536
   98SAPS  H15R 9809   0.234   3.238   6.933 -0.3897  2.0484 -2.1984
   98SAPS  C216 9810   0.024   3.253   6.916 -0.6706  0.1865 -0.1741
   98SAPS  H16R 9811  -0.062   3.191   6.950 -1.3413  1.2006  0.0073
   98SAPS  H16S 9812  -0.009   3.292   6.817  1.0312  0.5696 -0.6176
   98SAPS  C217 9813   0.024   3.373   7.009  0.7550  0.6637  0.1459
   98SAPS  H17R 9814   0.011   3.348   7.116 -0.0395  0.2654 -0.0353
   98SAPS  H17S 9815  -0.062   3.439   6.987  0.1591  0.4003  1.6153
   98SAPS  C218 9816   0.145   3.471   7.011  0.5584  0.3305  0.4492
   98SAPS  H18R 9817   0.164   3.499   6.905 -1.0145 -1.4406 -0.3399
   98SAPS  H18S 9818   0.235   3.421   7.053 -0.2194 -1.2032  0.3594
   98SAPS  C219 9819   0.131   3.607   7.085  0.5734 -0.3213 -0.3777
   98SAPS  H19R 9820   0.030   3.653   7.080  0.8704  0.5148  0.6802
   98SAPS  H19S 9821   0.190   3.689   7.039 -2.1217  1.2102 -1.3684
   98SAPS  C220 9822   0.193   3.595   7.228  0.8253 -0.1771 -0.1895
   98SAPS  H20R 9823   0.155   3.504   7.279 -0.2341  0.2457 -0.2054
   98SAPS  H20S 9824   0.182   3.687   7.290 -1.9825 -0.0529 -0.7456
   98SAPS  H20T 9825   0.302   3.575   7.220  0.9459  0.0564  0.6869
   98SAPS   C33 9826   0.916   3.003   6.143  0.6158  0.3667  0.1275
   98SAPS   H3X 9827   0.841   2.930   6.180  0.5152  1.3937  2.0794
   98SAPS   H3Y 9828   0.848   3.091   6.142  2.5871  2.0066  1.4581
   98SAPS   C34 9829   1.030   3.012   6.252 -0.2013 -0.4029 -0.2614
   98SAPS   H4X 9830   1.105   3.089   6.222 -1.0576 -0.3018 -2.2561
   98SAPS   H4Y 9831   1.080   2.913   6.248  0.5295 -0.0322 -0.5062
   98SAPS   C35 9832   0.973   3.039   6.395  0.2671  0.2566  0.1510
   98SAPS   H5X 9833   0.911   2.950   6.422  1.4519  0.1789  2.9958
   98SAPS   H5Y 9834   0.929   3.141   6.395 -0.6089 -0.0417 -2.4382
   98SAPS   C36 9835   1.080   3.038   6.501  0.3603 -0.3924 -0.4158
   98SAPS   H6X 9836   1.142   3.130   6.496 -1.7487  1.1343  0.1118
   98SAPS   H6Y 9837   1.159   2.962   6.485 -0.7477 -1.3734 -1.3081
   98SAPS   C37 9838   1.029   3.038   6.655 -0.4197 -0.1024 -0.0663
   98SAPS   H7X 9839   1.120   3.029   6.717  1.1249 -2.0543 -2.4484
   98SAPS   H7Y 9840   0.978   2.945   6.689 -0.2897  0.1328  0.7937
   98SAPS   C38 9841   0.944   3.164   6.698  0.1710 -0.1238 -0.8644
   98SAPS   H8X 9842   0.915   3.159   6.805 -1.9407  1.3110 -1.3203
   98SAPS   H8Y 9843   0.845   3.173   6.649 -0.0110 -0.9250 -0.6551
   98SAPS   C39 9844   1.037   3.286   6.682 -0.3254 -0.3307 -0.0532
   98SAPS   H9X 9845   0.960   3.364   6.665 -1.8585 -1.5670  0.9580
   98SAPS   H9Y 9846   1.105   3.288   6.593 -0.8821  1.1213 -0.4855
   98SAPS  C310 9847   1.120   3.319   6.812 -0.1300  0.0940 -0.5109
   98SAPS  H10X 9848   1.208   3.382   6.785 -0.0738  1.1121  1.8137
   98SAPS  H10Y 9849   1.157   3.221   6.849 -1.9774 -0.3808  0.1760
   98SAPS  C311 9850   1.046   3.403   6.913  0.7214 -0.2251 -1.2682
   98SAPS  H11X 9851   1.088   3.392   7.015 -1.7747 -0.3618 -0.1951
   98SAPS  H11Y 9852   0.941   3.367   6.915  0.6845 -0.0810 -0.3706
   98SAPS  C312 9853   1.034   3.553   6.876  0.7910 -0.6012  0.3137
   98SAPS  H12X 9854   0.989   3.552   6.775  2.4646 -1.0019 -0.4628
   98SAPS  H12Y 9855   1.129   3.609   6.893 -1.7548  4.3924 -0.0340
   98SAPS  C313 9856   0.922   3.618   6.965 -0.0104 -0.2951 -0.5802
   98SAPS  H13X 9857   0.824   3.566   6.957 -0.0110 -0.2467 -0.9089
   98SAPS  H13Y 9858   0.886   3.713   6.919 -2.1285  0.0158  1.5053
   98SAPS  C314 9859   0.974   3.653   7.103 -0.5825 -0.0553  0.3719
   98SAPS  H14X 9860   1.057   3.727   7.096 -0.5516 -0.0939  0.3270
   98SAPS  H14Y 9861   1.004   3.556   7.148  1.2259  0.5169  0.4885
   98SAPS  C315 9862   0.855   3.711   7.174  0.1401 -0.5207 -0.3038
   98SAPS  H15X 9863   0.775   3.637   7.196  0.1379 -0.1728  0.9230
   98SAPS  H15Y 9864   0.818   3.796   7.112  0.8742 -0.0336 -0.0873
   98SAPS  C316 9865   0.889   3.782   7.307  0.3530 -0.2143  0.0877
   98SAPS  H16X 9866   0.793   3.831   7.333  0.6980 -0.2375  1.5177
   98SAPS  H16Y 9867   0.962   3.862   7.284 -1.2960  1.7067  1.2977
   98SAPS  C317 9868   0.944   3.684   7.413  0.7372  0.5032  0.2267
   98SAPS  H17X 9869   1.052   3.664   7.397  1.3999  0.4010  3.9119
   98SAPS  H17Y 9870   0.898   3.586   7.386  0.3066 -0.3179  3.5294
   98SAPS  C318 9871   0.917   3.730   7.558  0.1700 -0.2395 -0.1051
   98SAPS  H18X 9872   0.815   3.692   7.576  1.3112 -3.1630  0.6823
   98SAPS  H18Y 9873   0.899   3.840   7.567 -0.6101 -0.3640 -0.0598
   98SAPS  H18Z 9874   0.988   3.687   7.632 -0.2390  0.2045  0.5606
   99SAPS     N 9875   5.657   6.922   5.520  0.0238 -0.5237 -0.1826
   99SAPS   HN1 9876   5.565   6.873   5.525  0.4114 -1.1882  1.0059
   99SAPS   HN2 9877   5.736   6.855   5.529  0.0730 -0.2849  1.5742
   99SAPS   HN3 9878   5.655   6.995   5.595 -3.7296 -0.7296  0.0933
   99SAPS   C12 9879   5.660   7.011   5.395  0.3678  0.1337  0.3724
   99SAPS  H12A 9880   5.678   6.947   5.309 -0.6178  0.7576 -0.3174
   99SAPS   C13 9881   5.524   7.094   5.375 -0.2696  0.8043  0.4795
   99SAPS  O13A 9882   5.424   7.069   5.448 -0.0768  0.6288  0.5384
   99SAPS  O13B 9883   5.507   7.149   5.263 -0.0828 -0.3365 -0.4337
   99SAPS   C11 9884   5.782   7.107   5.402 -0.3718  0.1580 -0.2948
   99SAPS  H11A 9885   5.781   7.167   5.495 -1.1798 -2.0192  1.1668
   99SAPS  H11B 9886   5.785   7.179   5.317 -4.1516 -0.0044 -0.7206
   99SAPS     P 9887   6.035   7.091   5.431  0.0488 -0.0216  0.2477
   99SAPS   O13 9888   6.147   6.992   5.408  0.3699 -0.6456 -0.0073
   99SAPS   O14 9889   6.047   7.225   5.358  0.5985  0.5126  0.0521
   99SAPS   O12 9890   5.893   7.024   5.397  0.0507 -0.2398  0.1838
   99SAPS   O11 9891   6.017   7.134   5.583 -0.2611  0.1731  0.0286
   99SAPS    C1 9892   6.138   7.165   5.649 -0.0811 -0.4515 -0.5660
   99SAPS    HA 9893   6.206   7.229   5.589 -1.1532  0.1850 -1.1283
   99SAPS    HB 9894   6.116   7.240   5.728  3.4818 -1.8369  2.0506
   99SAPS    C2 9895   6.219   7.044   5.702  0.0264  0.8735 -0.8083
   99SAPS    HS 9896   6.274   7.002   5.615  0.2093 -1.1076  0.2300
   99SAPS   O21 9897   6.132   6.949   5.777 -0.5793  0.5955 -0.2799
   99SAPS   C21 9898   6.191   6.833   5.796 -0.0043 -0.9227 -0.9511
   99SAPS   O22 9899   6.302   6.803   5.758  0.3401  0.2591  0.3289
   99SAPS   C22 9900   6.097   6.736   5.865  0.2482  0.5654  0.2883
   99SAPS   H2R 9901   6.020   6.794   5.921 -0.2755  1.4174 -1.2543
   99SAPS   H2S 9902   6.047   6.679   5.783  0.6961  2.7644 -1.6346
   99SAPS    C3 9903   6.332   7.097   5.798  0.6940 -0.3334  0.1267
   99SAPS    HX 9904   6.387   7.178   5.745 -0.6132  0.4420 -0.0791
   99SAPS    HY 9905   6.390   7.006   5.827 -0.8359 -0.5950  2.6034
   99SAPS   O31 9906   6.277   7.157   5.916 -0.4256  0.0178  0.5641
   99SAPS   C31 9907   6.377   7.182   6.012  0.2837 -0.0901  0.1738
   99SAPS   O32 9908   6.485   7.130   6.005 -0.2141 -0.2077 -0.5904
   99SAPS   C32 9909   6.310   7.263   6.127 -0.1116 -0.3684 -0.4565
   99SAPS   H2X 9910   6.210   7.290   6.087  0.0844 -0.3325 -0.9328
   99SAPS   H2Y 9911   6.370   7.356   6.127  0.7052 -0.8813 -1.2498
   99SAPS   C23 9912   6.178   6.638   5.955  0.0570  0.0500 -0.1163
   99SAPS   H3R 9913   6.271   6.610   5.901 -0.2647  0.9087 -1.1540
   99SAPS   H3S 9914   6.124   6.543   5.973  1.5349 -1.2498 -2.0457
   99SAPS   C24 9915   6.212   6.696   6.092  0.1781  0.4479  0.0688
   99SAPS   H4R 9916   6.119   6.689   6.152 -0.2268 -3.4580 -0.7310
   99SAPS   H4S 9917   6.226   6.805   6.075  1.5209  0.3163  0.2504
   99SAPS   C25 9918   6.329   6.645   6.168  0.0624  0.5986 -0.3320
   99SAPS   H5R 9919   6.419   6.623   6.108 -1.3002  0.4891 -2.4343
   99SAPS   C26 9920   6.324   6.606   6.291 -0.4778  0.2882 -0.3446
   99SAPS   H6R 9921   6.423   6.579   6.330 -1.4566 -0.6419  1.6292
   99SAPS   C27 9922   6.213   6.597   6.390  0.7812 -0.4099 -0.8559
   99SAPS   H7R 9923   6.119   6.611   6.332 -0.3772  0.3380  1.0863
   99SAPS   H7S 9924   6.213   6.690   6.451  0.7533 -1.1338  0.2730
   99SAPS   C28 9925   6.209   6.480   6.480  0.7003 -0.1255 -0.1796
   99SAPS   H8R 9926   6.224   6.382   6.434 -0.4347 -0.7828  0.7875
   99SAPS   C29 9927   6.200   6.482   6.612  0.5123 -0.2217 -0.4383
   99SAPS   H9R 9928   6.196   6.381   6.656 -1.9085 -0.3437 -0.7953
   99SAPS  C210 9929   6.165   6.602   6.694 -0.1901 -0.0681  0.3858
   99SAPS  H10R 9930   6.055   6.620   6.696  0.1496  2.5626 -0.2084
   99SAPS  H10S 9931   6.204   6.696   6.649  0.9223  0.1195  1.7035
   99SAPS  C211 9932   6.204   6.592   6.838 -0.8043  0.3730 -0.4287
   99SAPS  H11R 9933   6.306   6.628   6.860  0.7366 -2.7964 -1.7590
   99SAPS  C212 9934   6.135   6.541   6.943  0.2383 -0.5280 -0.5562
   99SAPS  H12R 9935   6.189   6.525   7.038  1.0127  3.5564 -0.1232
   99SAPS  C213 9936   5.993   6.506   6.927 -0.2458  0.4117  0.2051
   99SAPS  H13R 9937   5.971   6.437   6.843 -1.4909  2.5590 -1.3141
   99SAPS  H13S 9938   5.930   6.594   6.903 -2.3945 -0.2108  3.0143
   99SAPS  C214 9939   5.940   6.455   7.057  0.2921 -0.4049  0.0022
   99SAPS  H14R 9940   5.911   6.349   7.063 -0.9734 -0.1357 -0.9741
   99SAPS  C215 9941   5.903   6.535   7.160 -0.0421 -0.2758 -1.2834
   99SAPS  H15R 9942   5.882   6.482   7.254  3.4355 -1.2937 -0.9177
   99SAPS  C216 9943   5.922   6.684   7.169  0.1571 -0.0996 -0.5622
   99SAPS  H16R 9944   5.850   6.729   7.097 -0.6225  0.6445  0.6555
   99SAPS  H16S 9945   6.022   6.716   7.133 -0.3583  0.5657 -1.4533
   99SAPS  C217 9946   5.897   6.747   7.310 -0.9537 -0.4278  0.2339
   99SAPS  H17R 9947   5.820   6.688   7.364 -3.3413  0.8343 -1.5866
   99SAPS  H17S 9948   5.846   6.845   7.297 -0.3083 -0.2620 -1.2984
   99SAPS  C218 9949   6.023   6.757   7.393  0.0923 -0.2647  0.4939
   99SAPS  H18R 9950   6.082   6.846   7.361 -1.4838  1.1990  1.4611
   99SAPS  H18S 9951   6.068   6.656   7.381  0.2026 -0.3094  1.2661
   99SAPS  C219 9952   5.991   6.787   7.538 -0.4427  0.1394 -0.4292
   99SAPS  H19R 9953   5.905   6.719   7.557 -0.5970  0.8713  1.8609
   99SAPS  H19S 9954   5.946   6.888   7.549  1.1233  0.8367 -0.1846
   99SAPS  C220 9955   6.101   6.758   7.646  0.4133 -0.1593  0.2961
   99SAPS  H20R 9956   6.105   6.647   7.649  2.8219 -0.1227 -0.1435
   99SAPS  H20S 9957   6.067   6.810   7.738  0.0400  3.3537 -1.6300
   99SAPS  H20T 9958   6.200   6.789   7.607 -0.1063  0.7912 -0.3080
   99SAPS   C33 9959   6.304   7.187   6.257 -0.2457  0.6785 -0.6999
   99SAPS   H3X 9960   6.293   7.256   6.343  0.5887 -0.5914  0.4672
   99SAPS   H3Y 9961   6.392   7.126   6.287 -0.8508  0.6377  1.1209
   99SAPS   C34 9962   6.188   7.085   6.261  0.1311 -0.2246 -0.0459
   99SAPS   H4X 9963   6.180   7.012   6.178 -2.7045  0.2997 -0.3282
   99SAPS   H4Y 9964   6.096   7.146   6.252 -2.0381 -3.2850 -0.0702
   99SAPS   C35 9965   6.180   6.991   6.389 -0.3023 -0.2615 -0.1894
   99SAPS   H5X 9966   6.270   6.930   6.411  0.5025  0.6771 -0.7837
   99SAPS   H5Y 9967   6.093   6.924   6.373 -0.0474 -0.7338  0.4071
   99SAPS   C36 9968   6.136   7.065   6.521 -0.3137  0.2033  0.6046
   99SAPS   H6X 9969   6.040   7.118   6.501  0.3134  1.5139  0.9007
   99SAPS   H6Y 9970   6.211   7.146   6.535 -2.2933  2.2947 -0.0818
   99SAPS   C37 9971   6.114   6.972   6.635 -0.9605 -0.8526 -0.4842
   99SAPS   H7X 9972   6.212   6.922   6.652 -0.2692 -0.0164 -1.8862
   99SAPS   H7Y 9973   6.055   6.881   6.610  1.0616 -2.5816  0.6781
   99SAPS   C38 9974   6.065   7.049   6.762 -0.0743  0.1621 -0.4660
   99SAPS   H8X 9975   5.956   7.068   6.748 -0.0242  0.1271 -0.9015
   99SAPS   H8Y 9976   6.115   7.146   6.777  1.1935 -0.7657  1.7831
   99SAPS   C39 9977   6.076   6.953   6.880 -0.1165  1.0761  0.5573
   99SAPS   H9X 9978   6.184   6.931   6.893 -0.2037  0.9123  1.0598
   99SAPS   H9Y 9979   6.038   6.852   6.854  0.6717  0.7606  0.6298
   99SAPS  C310 9980   6.008   6.997   7.013 -0.3074 -0.1537  0.7662
   99SAPS  H10X 9981   6.023   6.912   7.083  1.3545  0.1554  0.8355
   99SAPS  H10Y 9982   5.897   6.998   7.014 -0.3283 -0.1801 -0.2105
   99SAPS  C311 9983   6.052   7.133   7.055  0.7971  0.4189  0.6774
   99SAPS  H11X 9984   5.983   7.207   7.010  3.5635  1.5773 -2.0494
   99SAPS  H11Y 9985   6.155   7.158   7.020  0.3088 -1.0651 -2.1262
   99SAPS  C312 9986   6.079   7.142   7.202  0.9073  0.0691 -0.0961
   99SAPS  H12X 9987   6.140   7.055   7.233  2.0542  0.6579 -0.6228
   99SAPS  H12Y 9988   5.986   7.139   7.264  1.1604  0.7301  0.3295
   99SAPS  C313 9989   6.152   7.269   7.250  0.0178 -0.3463 -0.6440
   99SAPS  H13X 9990   6.105   7.364   7.215 -1.0086 -0.4999  0.2829
   99SAPS  H13Y 9991   6.254   7.263   7.206 -0.0045  0.0104 -0.7496
   99SAPS  C314 9992   6.180   7.261   7.400  0.0408  0.6748 -0.1495
   99SAPS  H14X 9993   6.257   7.187   7.431  0.0974  0.8628  0.1728
   99SAPS  H14Y 9994   6.095   7.234   7.467  1.9086 -0.5094  1.8812
   99SAPS  C315 9995   6.233   7.389   7.465  0.2206  1.4131  0.3707
   99SAPS  H15X 9996   6.149   7.458   7.490  0.7226  2.0010  0.4537
   99SAPS  H15Y 9997   6.300   7.452   7.403  0.9222  0.8101  0.5105
   99SAPS  C316 9998   6.319   7.372   7.595  0.0906 -0.2455 -0.8365
   99SAPS  H16X 9999   6.411   7.311   7.576  0.3747  0.2191 -0.9627
   99SAPS  H16Y10000   6.259   7.324   7.676  2.6771 -0.7586  0.9207
   99SAPS  C31710001   6.372   7.504   7.653 -0.4674  0.0136  0.3475
   99SAPS  H17X10002   6.304   7.590   7.636  2.4586  1.9648 -2.9341
   99SAPS  H17Y10003   6.468   7.532   7.602 -0.4003 -0.5690  0.1488
   99SAPS  C31810004   6.401   7.508   7.800  0.7272  0.4626 -0.0434
   99SAPS  H18X10005   6.466   7.420   7.822 -0.6706 -0.5208  0.3339
   99SAPS  H18Y10006   6.307   7.507   7.859  1.1647  2.3762  0.7604
   99SAPS  H18Z10007   6.454   7.601   7.828  1.6004  0.3182 -1.1162
  100SAPS     N10008   1.288   0.295   5.605 -0.1950 -0.7843 -1.0357
  100SAPS   HN110009   1.338   0.365   5.547 -1.8287 -0.3190 -1.9511
  100SAPS   HN210010   1.227   0.344   5.674 -0.1006 -0.0133 -1.4917
  100SAPS   HN310011   1.362   0.239   5.652  0.9534  1.1550 -0.4217
  100SAPS   C1210012   1.215   0.214   5.512  0.1824  0.1529  0.3843
  100SAPS  H12A10013   1.145   0.279   5.462  0.0824  0.0689  0.4172
  100SAPS   C1310014   1.303   0.127   5.415  0.4343  0.0629  0.4546
  100SAPS  O13A10015   1.418   0.092   5.438 -0.1911  0.6648 -0.0428
  100SAPS  O13B10016   1.245   0.075   5.312  0.5544 -0.0671 -0.1504
  100SAPS   C1110017   1.124   0.127   5.598  0.0984  0.0252 -0.0913
  100SAPS  H11A10018   1.066   0.069   5.524  0.3266  0.3983 -0.5718
  100SAPS  H11B10019   1.041   0.188   5.641 -0.7902  0.1028 -1.8161
  100SAPS     P10020   1.115  -0.057   5.795  0.3099  0.3928  0.4710
  100SAPS   O1310021   0.980  -0.073   5.738  0.1742  0.2851 -0.0403
  100SAPS   O1410022   1.202  -0.177   5.808 -0.6974 -0.3394 -0.3872
  100SAPS   O1210023   1.185   0.047   5.702  0.1257 -0.7294  0.3163
  100SAPS   O1110024   1.101   0.012   5.932 -0.0425 -0.1079  0.3275
  100SAPS    C110025   1.173   0.130   5.980 -1.1523 -0.4218  0.3101
  100SAPS    HA10026   1.233   0.189   5.907  0.6815 -0.4432  1.7046
  100SAPS    HB10027   1.089   0.198   6.004 -0.3489  0.5613  0.4201
  100SAPS    C210028   1.249   0.103   6.111 -0.3663  0.0270 -0.0710
  100SAPS    HS10029   1.321   0.186   6.130  0.3865 -0.3954 -1.0180
  100SAPS   O2110030   1.319  -0.025   6.109  0.2298 -0.2881 -0.3134
  100SAPS   C2110031   1.422  -0.028   6.030 -0.3171  0.1631 -1.0610
  100SAPS   O2210032   1.469   0.073   5.981 -0.1848  0.7886 -0.1808
  100SAPS   C2210033   1.464  -0.171   6.015 -0.0631  0.6401  0.0745
  100SAPS   H2R10034   1.380  -0.232   6.057  1.2957 -0.3043  1.5453
  100SAPS   H2S10035   1.459  -0.198   5.907 -0.5582 -1.1134  0.4958
  100SAPS    C310036   1.150   0.091   6.235 -0.4492 -0.7054 -0.3451
  100SAPS    HX10037   1.115  -0.014   6.232 -2.7727 -0.1357  2.7045
  100SAPS    HY10038   1.059   0.153   6.224  0.5585  1.1354  1.0422
  100SAPS   O3110039   1.220   0.123   6.355  0.2720  0.3639 -0.4509
  100SAPS   C3110040   1.199   0.241   6.402 -0.1816 -0.2748 -0.6018
  100SAPS   O3210041   1.111   0.313   6.363 -0.4675 -0.2875 -0.5692
  100SAPS   C3210042   1.290   0.271   6.521  0.1081  0.0357 -0.8469
  100SAPS   H2X10043   1.396   0.248   6.496  0.4959 -0.0201  0.7316
  100SAPS   H2Y10044   1.254   0.190   6.589 -1.0817 -0.6276 -2.2046
  100SAPS   C2310045   1.601  -0.219   6.075  0.1498  0.0216 -0.7553
  100SAPS   H3R10046   1.680  -0.156   6.030  1.2393  0.7813  1.9951
  100SAPS   H3S10047   1.618  -0.322   6.036  0.8994  0.1470 -0.7704
  100SAPS   C2410048   1.622  -0.226   6.227  0.2835 -0.0540  0.4433
  100SAPS   H4R10049   1.732  -0.234   6.246  0.3625  1.6948  0.8278
  100SAPS   H4S10050   1.596  -0.331   6.253  1.5116 -0.6558 -0.6469
  100SAPS   C2510051   1.566  -0.116   6.317 -0.0795 -0.5797 -0.0981
  100SAPS   H5R10052   1.458  -0.105   6.300 -0.4212 -1.5216  1.2557
  100SAPS   C2610053   1.644  -0.047   6.411  0.4712 -0.2641 -0.4882
  100SAPS   H6R10054   1.597   0.037   6.464 -0.9854 -1.7954  0.7695
  100SAPS   C2710055   1.786  -0.064   6.436 -0.4727  0.0566  0.1949
  100SAPS   H7R10056   1.840  -0.074   6.339  1.8572  0.3529  1.3763
  100SAPS   H7S10057   1.791  -0.158   6.494  0.4774  1.4065  2.4187
  100SAPS   C2810058   1.858   0.040   6.523 -0.3278  0.8019  0.2281
  100SAPS   H8R10059   1.923   0.114   6.474  0.1487  0.1843 -0.0951
  100SAPS   C2910060   1.847   0.048   6.658  0.3105  0.0507  0.4578
  100SAPS   H9R10061   1.900   0.127   6.712  1.2901  0.2889 -0.7958
  100SAPS  C21010062   1.770  -0.042   6.748 -0.4947  0.3798  0.3745
  100SAPS  H10R10063   1.686  -0.087   6.692  0.3979 -0.5015 -0.2951
  100SAPS  H10S10064   1.717   0.026   6.818 -0.6576  1.5877 -0.8589
  100SAPS  C21110065   1.853  -0.139   6.824 -0.1430  0.6065 -0.7859
  100SAPS  H11R10066   1.941  -0.170   6.765 -1.1129 -0.7898 -1.5845
  100SAPS  C21210067   1.826  -0.187   6.949  0.0298  0.3404 -0.0526
  100SAPS  H12R10068   1.899  -0.259   6.986  0.9599  1.3404  0.0976
  100SAPS  C21310069   1.700  -0.166   7.031  0.3760  0.2828 -0.1110
  100SAPS  H13R10070   1.634  -0.090   6.985 -2.1493 -0.5614  1.8580
  100SAPS  H13S10071   1.724  -0.120   7.129 -0.0470  2.3326 -0.9287
  100SAPS  C21410072   1.623  -0.294   7.055 -0.3722 -0.2289 -0.3145
  100SAPS  H14R10073   1.692  -0.377   7.072  1.7245  1.1574 -1.5297
  100SAPS  C21510074   1.493  -0.304   7.062  0.9588 -0.5828  0.8377
  100SAPS  H15R10075   1.449  -0.401   7.088 -1.0821 -0.1837 -0.8489
  100SAPS  C21610076   1.394  -0.189   7.037  0.2869 -0.8773 -0.4056
  100SAPS  H16R10077   1.441  -0.097   6.995 -1.6817  0.4616  0.1833
  100SAPS  H16S10078   1.347  -0.150   7.130  0.1028 -0.4830 -0.6601
  100SAPS  C21710079   1.289  -0.245   6.940  0.3606  0.0711  0.8826
  100SAPS  H17R10080   1.232  -0.325   6.993 -1.9785  0.0594 -1.4787
  100SAPS  H17S10081   1.337  -0.289   6.850  1.3471  3.6961 -0.5384
  100SAPS  C21810082   1.182  -0.144   6.901  0.2820  0.0430  0.1678
  100SAPS  H18R10083   1.153  -0.086   6.991  0.3883 -0.9926  0.8824
  100SAPS  H18S10084   1.089  -0.191   6.862  0.1125  1.1732 -0.8625
  100SAPS  C21910085   1.218  -0.046   6.788 -0.7568  0.2386  0.5668
  100SAPS  H19R10086   1.317  -0.001   6.810 -0.7856  1.4183 -1.4666
  100SAPS  H19S10087   1.141   0.034   6.777 -0.6305  0.5093  1.5855
  100SAPS  C22010088   1.233  -0.116   6.655 -0.2030  0.3550 -0.3680
  100SAPS  H20R10089   1.330  -0.170   6.659 -0.4465 -0.0333  2.3107
  100SAPS  H20S10090   1.245  -0.047   6.568  1.9887  1.7339  0.9254
  100SAPS  H20T10091   1.140  -0.175   6.639 -0.3076  0.5568 -0.5102
  100SAPS   C3310092   1.290   0.423   6.576 -0.2805  0.7486 -0.6607
  100SAPS   H3X10093   1.202   0.433   6.642  0.7395  1.3063  0.6680
  100SAPS   H3Y10094   1.270   0.481   6.483  1.1903 -2.7537 -3.3855
  100SAPS   C3410095   1.410   0.451   6.660  0.1771  0.2787  0.7417
  100SAPS   H4X10096   1.389   0.551   6.704  1.1082  1.0015 -0.3893
  100SAPS   H4Y10097   1.496   0.453   6.590  1.4879 -2.2950  2.1394
  100SAPS   C3510098   1.439   0.338   6.760  0.0957 -0.2118 -0.0245
  100SAPS   H5X10099   1.439   0.235   6.717 -2.7438 -1.1795  1.9345
  100SAPS   H5Y10100   1.352   0.340   6.830 -0.1765  1.1842 -0.3679
  100SAPS   C3610101   1.564   0.367   6.838 -0.1784  0.5038  0.0675
  100SAPS   H6X10102   1.555   0.467   6.885  1.6597  0.4082  0.6958
  100SAPS   H6Y10103   1.649   0.382   6.769 -1.1772  1.7586 -0.9299
  100SAPS   C3710104   1.593   0.264   6.943  0.5220  0.6367 -0.0077
  100SAPS   H7X10105   1.605   0.168   6.889 -0.6004 -0.0064  0.8382
  100SAPS   H7Y10106   1.508   0.242   7.011  1.0878 -0.6460  0.3168
  100SAPS   C3810107   1.725   0.296   7.021  0.2937  0.2319  0.1851
  100SAPS   H8X10108   1.713   0.376   7.098  3.2331 -1.0856  2.2140
  100SAPS   H8Y10109   1.794   0.338   6.945  0.4288  0.3466  0.3695
  100SAPS   C3910110   1.794   0.177   7.082 -0.0946 -0.3333  0.1269
  100SAPS   H9X10111   1.789   0.094   7.008 -0.4068  1.6239 -2.2006
  100SAPS   H9Y10112   1.730   0.149   7.168  0.2499 -0.0988  0.4624
  100SAPS  C31010113   1.935   0.202   7.122 -0.1816 -0.0988 -0.5709
  100SAPS  H10X10114   1.991   0.242   7.035  0.2008  0.8989  0.1100
  100SAPS  H10Y10115   1.970   0.099   7.142 -0.5946  0.3105  2.9009
  100SAPS  C31110116   1.961   0.286   7.245  0.2216 -0.7001 -0.5421
  100SAPS  H11X10117   1.921   0.389   7.234 -1.9675 -1.5255 -0.6363
  100SAPS  H11Y10118   2.069   0.299   7.271 -0.0893 -2.1231  1.7954
  100SAPS  C31210119   1.890   0.240   7.375  0.6933 -0.1649 -0.6093
  100SAPS  H12X10120   1.780   0.233   7.366  0.6128  1.1239 -0.7808
  100SAPS  H12Y10121   1.898   0.318   7.455 -0.8954 -0.6489  0.0577
  100SAPS  C31310122   1.941   0.103   7.429 -0.6432  0.1528  0.2865
  100SAPS  H13X10123   2.050   0.118   7.413 -0.8682  2.6251  0.6413
  100SAPS  H13Y10124   1.905   0.024   7.360  0.4207 -0.8486  0.8472
  100SAPS  C31410125   1.897   0.073   7.568  0.0688  1.2055 -0.1456
  100SAPS  H14X10126   1.787   0.078   7.580  0.2614  1.1150  2.1175
  100SAPS  H14Y10127   1.937   0.153   7.634 -3.6413  2.2650  1.0302
  100SAPS  C31510128   1.947  -0.069   7.614  0.6572  0.1436 -0.1159
  100SAPS  H15X10129   1.911  -0.091   7.716  3.8270 -1.8107  0.7298
  100SAPS  H15Y10130   2.057  -0.057   7.621  0.6825 -0.7329  1.1679
  100SAPS  C31610131   1.922  -0.186   7.517 -0.3270 -0.2291 -0.1183
  100SAPS  H16X10132   1.959  -0.285   7.552 -2.1903 -0.8247  0.3281
  100SAPS  H16Y10133   1.972  -0.168   7.420 -0.1040 -1.6724 -0.2853
  100SAPS  C31710134   1.778  -0.194   7.467  0.2294 -0.8063 -0.3421
  100SAPS  H17X10135   1.753  -0.113   7.396  1.7028  0.9418  1.0506
  100SAPS  H17Y10136   1.705  -0.191   7.551  0.5026  0.7453 -0.1412
  100SAPS  C31810137   1.739  -0.329   7.400  0.4291 -0.4685  0.2006
  100SAPS  H18X10138   1.807  -0.343   7.314  0.3571 -1.2367  0.2603
  100SAPS  H18Y10139   1.634  -0.320   7.364 -0.8032 -3.8674  2.4410
  100SAPS  H18Z10140   1.743  -0.419   7.465 -1.9695 -0.8490 -0.0608
  101OSM      N10141   3.324   3.513  10.163  0.2006 -0.3957  0.1335
  101OSM    C1510142   3.197   3.598  10.188 -0.2401  0.1118  0.5722
  101OSM   H15A10143   3.116   3.537  10.153  0.2907 -0.3141  0.0619
  101OSM   H15B10144   3.204   3.683  10.122 -0.9301  0.5629  1.0560
  101OSM   H15C10145   3.182   3.636  10.288 -1.1336 -0.7968  0.7974
  101OSM    C1410146   3.442   3.586  10.217  0.4641  0.3959 -0.4150
  101OSM   H14A10147   3.523   3.545  10.160 -0.5065 -0.6106 -1.1142
  101OSM   H14B10148   3.448   3.576  10.324 -0.8387 -2.4644 -0.5285
  101OSM   H14C10149   3.439   3.692  10.198  0.2017  0.4077 -0.3221
  101OSM    C1310150   3.306   3.389  10.237  0.1585  0.5192 -0.0296
  101OSM   H13A10151   3.204   3.357  10.218  0.7768 -1.0894 -0.7838
  101OSM   H13B10152   3.315   3.417  10.341  1.0791 -1.1476  0.3740
  101OSM   H13C10153   3.384   3.320  10.210 -0.8234 -0.1480 -1.3272
  101OSM    C1210154   3.340   3.495  10.018  0.0287 -0.2928  0.6168
  101OSM   H12A10155   3.338   3.593   9.972 -1.4335 -0.8060 -0.4818
  101OSM   H12B10156   3.251   3.448   9.980  0.2244  0.4064 -0.8108
  101OSM    C1110157   3.473   3.417   9.966  0.1923  0.4432 -0.4969
  101OSM   H11A10158   3.558   3.488   9.972  1.7139 -1.3629  0.0956
  101OSM   H11B10159   3.467   3.405   9.856 -1.4980 -1.4726 -0.2591
  101OSM      P10160   3.658   3.262  10.070  0.0616 -0.2012  0.4063
  101OSM    O1310161   3.731   3.386  10.105 -0.2518  0.4044 -0.5522
  101OSM    O1410162   3.663   3.155  10.172  0.5207  0.0087 -0.0844
  101OSM    O1110163   3.707   3.220   9.932  0.3331 -0.1056 -0.1425
  101OSM    O1210164   3.502   3.293  10.035  0.5711 -0.2266  0.1792
  101OSM    C1S10165   3.647   3.102   9.878  0.2131  0.1965 -0.0341
  101OSM    H1S10166   3.541   3.116   9.850  0.1762 -0.4835 -0.2439
  101OSM    H1T10167   3.659   3.013   9.944 -0.8730  0.5334  0.6377
  101OSM     NF10168   3.690   2.929   9.693 -0.1548 -0.3787  0.3158
  101OSM    HNF10169   3.738   2.848   9.726 -0.4166  0.2486  2.3569
  101OSM    C2S10170   3.738   3.048   9.753  0.2323 -0.4348 -0.8837
  101OSM    H2S10171   3.731   3.130   9.679  0.1490 -1.3809 -1.9674
  101OSM    C3S10172   3.887   3.026   9.796 -0.4676 -0.4134  0.4133
  101OSM    H3S10173   3.887   2.946   9.873 -0.2410 -0.9574 -0.1483
  101OSM     O310174   3.949   3.136   9.862  0.1324 -0.2472  0.4802
  101OSM    HO310175   3.872   3.183   9.894  0.2835  0.2878  0.0666
  101OSM    C4S10176   3.966   2.978   9.681 -0.4863 -0.1757 -0.2038
  101OSM    H4S10177   3.976   2.869   9.672  1.0178 -0.3454  2.4890
  101OSM    C5S10178   4.030   3.061   9.591 -0.1683  0.0330  0.4939
  101OSM    H5S10179   4.028   3.168   9.616 -3.2016  0.7018 -1.9976
  101OSM    C6S10180   4.107   3.030   9.467  0.1430  0.1501  0.1286
  101OSM    H6S10181   4.117   2.920   9.472 -0.0690  0.1675  1.3894
  101OSM    H6T10182   4.213   3.064   9.467  0.4561 -0.6099  2.5574
  101OSM    C7S10183   4.031   3.060   9.342 -0.2052 -0.1580 -0.0748
  101OSM    H7S10184   4.014   3.169   9.331  1.8140  0.1518 -0.4116
  101OSM    H7T10185   3.934   3.007   9.331 -0.5442  0.9333 -4.2243
  101OSM    C8S10186   4.107   3.018   9.214 -0.0827  0.1981 -0.2866
  101OSM    H8S10187   4.104   2.907   9.215  1.6468  0.1253  0.2340
  101OSM    H8T10188   4.214   3.045   9.227  0.0453 -0.0430 -0.8027
  101OSM    C9S10189   4.054   3.069   9.080 -0.4416  0.6345 -0.3403
  101OSM    H9S10190   4.061   3.180   9.087 -1.9432  0.8814 -1.9038
  101OSM    H9T10191   3.945   3.048   9.082 -0.1990 -0.6455  0.0994
  101OSM   C10S10192   4.119   3.012   8.955 -0.0182 -0.3289 -0.2435
  101OSM   H10S10193   4.097   2.905   8.937 -1.3031  0.0887 -1.2826
  101OSM   H10T10194   4.229   3.026   8.968 -0.0799  2.0892 -1.7257
  101OSM   C11S10195   4.076   3.091   8.828 -0.0943 -0.6144 -0.6734
  101OSM   H11S10196   4.122   3.192   8.830  0.1100 -0.5462 -3.8648
  101OSM   H11T10197   3.966   3.104   8.836  0.1254  1.4063 -0.4383
  101OSM   C12S10198   4.125   3.026   8.702  0.8957 -0.0359  0.2018
  101OSM   H12S10199   4.105   2.918   8.690  1.6634  0.0171 -2.0576
  101OSM   H12T10200   4.235   3.029   8.688  0.8248 -1.7607 -1.0755
  101OSM   C13S10201   4.062   3.095   8.578 -0.8024 -0.1361  0.3769
  101OSM   H13S10202   4.071   3.206   8.588  0.4998 -0.0788 -1.0846
  101OSM   H13T10203   3.956   3.063   8.582 -0.6958 -0.4473  0.8428
  101OSM   C14S10204   4.145   3.055   8.458  0.7441 -0.0252 -0.7605
  101OSM   H14S10205   4.140   2.945   8.446 -2.3127 -0.2242  1.2629
  101OSM   H14T10206   4.249   3.093   8.473  0.1076  3.4406 -3.6305
  101OSM   C15S10207   4.103   3.113   8.322 -0.5812 -0.1706 -0.5224
  101OSM   H15S10208   4.061   3.213   8.344  0.6666  0.7275 -2.0329
  101OSM   H15T10209   4.024   3.050   8.278  0.1681 -1.0041 -0.7117
  101OSM   C16S10210   4.217   3.130   8.219  0.5801  0.2049  0.0947
  101OSM   H16S10211   4.298   3.198   8.255  1.5320 -0.1789 -1.2528
  101OSM   H16T10212   4.163   3.166   8.129  1.1596  2.2074  0.4863
  101OSM   C17S10213   4.295   3.004   8.190  0.5826  0.6712  0.4743
  101OSM   H17S10214   4.224   2.931   8.146 -1.2795  2.1235  0.9503
  101OSM   H17T10215   4.338   2.956   8.280  1.0107 -0.4165 -0.2945
  101OSM   C18S10216   4.403   3.018   8.079  0.0443 -0.3947 -0.1378
  101OSM   H18S10217   4.484   3.067   8.136 -1.0657 -0.0049  1.1660
  101OSM   H18T10218   4.366   3.088   8.000  0.8408 -0.1264 -0.2782
  101OSM   H18U10219   4.428   2.922   8.029  0.2818  0.3825 -1.5878
  101OSM    C1F10220   3.566   2.925   9.631  0.0340 -0.5036  0.4978
  101OSM     OF10221   3.488   3.023   9.624  0.1553 -0.0117 -0.1825
  101OSM    C2F10222   3.523   2.792   9.580  0.0759 -0.2318  0.1646
  101OSM    H2F10223   3.482   2.739   9.669  1.5592  0.3743  1.2326
  101OSM    H2G10224   3.609   2.730   9.546  0.1208 -0.9285  1.4861
  101OSM    C3F10225   3.418   2.806   9.466 -0.4703 -0.2290 -0.4653
  101OSM    H3F10226   3.330   2.867   9.495 -0.0171 -0.2067  0.9224
  101OSM    H3G10227   3.380   2.704   9.443 -1.2742 -0.1559  0.4607
  101OSM    C4F10228   3.466   2.877   9.338 -0.2982 -0.0887  0.2812
  101OSM    H4F10229   3.500   2.981   9.353  3.8652 -1.2895  0.3241
  101OSM    H4G10230   3.390   2.876   9.257  0.8269 -0.6399 -0.8032
  101OSM    C5F10231   3.585   2.801   9.274 -0.5775  1.2469  0.6287
  101OSM    H5F10232   3.548   2.696   9.272  0.4275  0.8877 -1.1076
  101OSM    H5G10233   3.669   2.800   9.347 -0.6527 -0.6717  0.7481
  101OSM    C6F10234   3.635   2.852   9.138  1.6787  0.5078 -0.0080
  101OSM    H6F10235   3.663   2.959   9.141  0.0647  0.9932 -0.6918
  101OSM    H6G10236   3.539   2.838   9.083  2.9154 -1.4694 -1.8388
  101OSM    C7F10237   3.755   2.780   9.065 -0.1111 -0.3964 -0.0289
  101OSM    H7F10238   3.748   2.672   9.093 -0.7966 -0.1161  0.9219
  101OSM    H7G10239   3.846   2.820   9.112 -0.7335 -1.4328  2.1855
  101OSM    C8F10240   3.750   2.773   8.906  0.1686  0.3240  0.2863
  101OSM    H8F10241   3.748   2.877   8.865  0.3884 -0.2283 -1.1824
  101OSM    H8G10242   3.654   2.724   8.878  0.8082  0.1123 -1.7122
  101OSM    C9F10243   3.870   2.692   8.859  0.1707 -0.0273  0.5563
  101OSM    H9F10244   3.967   2.745   8.851  0.4479 -0.6796 -0.7819
  101OSM   C10F10245   3.861   2.569   8.810 -0.5559  0.2335  0.5460
  101OSM   H10F10246   3.952   2.508   8.803 -1.1110 -0.6177  0.6271
  101OSM   C11F10247   3.741   2.477   8.801  0.1201 -0.0912  0.4824
  101OSM   H11F10248   3.650   2.537   8.821 -0.1275  0.1355 -1.1883
  101OSM   H11G10249   3.744   2.398   8.878 -0.8494  0.4433  1.0919
  101OSM   C12F10250   3.742   2.419   8.662  0.5218  0.6496  0.2202
  101OSM   H12F10251   3.756   2.495   8.582  1.0893  1.0059  0.6546
  101OSM   H12G10252   3.648   2.362   8.648  0.4315  0.4591  1.5308
  101OSM   C13F10253   3.858   2.315   8.639  1.0284 -0.3133 -0.2392
  101OSM   H13F10254   3.862   2.229   8.709 -2.1348 -1.2849 -1.0941
  101OSM   H13G10255   3.959   2.361   8.646  0.0971  1.6956  1.3099
  101OSM   C14F10256   3.850   2.267   8.491  0.1197  0.1353  0.2992
  101OSM   H14F10257   3.909   2.332   8.423 -0.8246  0.2818 -0.4031
  101OSM   H14G10258   3.747   2.274   8.451 -0.0595  2.3010  1.0122
  101OSM   C15F10259   3.896   2.124   8.480 -0.5536  0.3552 -0.4151
  101OSM   H15F10260   3.821   2.063   8.535 -0.6829  1.8279  1.1467
  101OSM   H15G10261   3.992   2.113   8.535 -0.7133 -0.3092 -0.2576
  101OSM   C16F10262   3.899   2.070   8.340 -0.7443  0.7757 -1.1805
  101OSM   H16F10263   3.800   2.075   8.290 -2.0213  2.7742  1.3237
  101OSM   H16G10264   3.915   1.960   8.346 -1.9721  0.5313 -2.0182
  101OSM   C17F10265   4.014   2.123   8.246  0.1479  0.2322 -0.1660
  101OSM   H17F10266   4.001   2.233   8.240  0.5888  0.2137 -2.2283
  101OSM   H17G10267   3.994   2.081   8.145 -2.6646 -0.7041  0.6980
  101OSM   C18F10268   4.156   2.090   8.286  0.6890  0.3232 -0.2021
  101OSM   H18F10269   4.225   2.119   8.205  0.9183 -1.1004 -0.5491
  101OSM   H18G10270   4.179   1.983   8.307  2.8744  1.0746  1.5941
  101OSM   H18H10271   4.180   2.130   8.387  0.6808  0.3077 -0.1934
  102OSM      N10272   2.548   2.241  10.051  0.2184 -0.2083  0.0305
  102OSM    C1510273   2.482   2.108  10.037 -0.6887 -0.0002  0.4312
  102OSM   H15A10274   2.384   2.114  10.083 -0.2215 -0.4594  1.5342
  102OSM   H15B10275   2.531   2.027  10.090 -1.8041 -1.2316 -0.3459
  102OSM   H15C10276   2.485   2.080   9.933  1.4809  0.5816  0.3102
  102OSM    C1410277   2.538   2.297  10.186  0.1983  0.0156 -0.5064
  102OSM   H14A10278   2.438   2.310  10.225 -0.0830  0.6203 -1.3975
  102OSM   H14B10279   2.580   2.396  10.187 -0.6249  0.3744  1.0737
  102OSM   H14C10280   2.586   2.237  10.262  0.5955  1.4127  0.3704
  102OSM    C1310281   2.697   2.211  10.028 -0.1374 -0.0374  0.3722
  102OSM   H13A10282   2.735   2.283   9.956  1.6371  0.0236  1.3277
  102OSM   H13B10283   2.702   2.113   9.983  0.2542  0.2584 -0.2394
  102OSM   H13C10284   2.750   2.221  10.121  2.1747 -2.4023 -0.5452
  102OSM    C1210285   2.494   2.341   9.943 -0.1697 -0.1791  0.0492
  102OSM   H12A10286   2.391   2.364   9.967  0.3436  1.0334  1.2825
  102OSM   H12B10287   2.492   2.289   9.849  0.4089 -0.9305  0.4349
  102OSM    C1110288   2.573   2.468   9.925  0.0030 -0.0347 -0.5283
  102OSM   H11A10289   2.616   2.515  10.016  1.6363 -1.0710 -0.7259
  102OSM   H11B10290   2.515   2.553   9.882  1.3669  0.8342 -0.7265
  102OSM      P10291   2.697   2.393   9.689 -0.1929  0.0474  0.3577
  102OSM    O1310292   2.833   2.421   9.645  0.1954  0.2618  0.1932
  102OSM    O1410293   2.660   2.252   9.685  0.2092  0.6915 -0.3665
  102OSM    O1110294   2.588   2.474   9.604  0.2124  0.4006  0.0872
  102OSM    O1210295   2.683   2.438   9.840  0.0368  0.2502  0.3181
  102OSM    C1S10296   2.611   2.600   9.541 -0.2815  0.9080 -0.4578
  102OSM    H1S10297   2.682   2.661   9.600 -2.4296  1.5784  1.5673
  102OSM    H1T10298   2.514   2.654   9.543 -0.9853 -0.2868  2.8612
  102OSM     NF10299   2.703   2.717   9.343  0.0166 -0.1888 -0.4734
  102OSM    HNF10300   2.667   2.759   9.260  1.0189 -0.9224 -1.3099
  102OSM    C2S10301   2.656   2.586   9.387 -0.3958  0.3319 -0.2948
  102OSM    H2S10302   2.742   2.516   9.386 -1.2620 -0.7660  0.2313
  102OSM    C3S10303   2.545   2.517   9.312  0.3648  0.5133  0.9169
  102OSM    H3S10304   2.456   2.585   9.311  0.5782  0.8454  2.2366
  102OSM     O310305   2.504   2.389   9.356  0.4768  0.0839  0.6794
  102OSM    HO310306   2.549   2.391   9.441 -0.2517  1.5997  1.0593
  102OSM    C4S10307   2.593   2.503   9.165 -0.1598 -0.8760 -0.5391
  102OSM    H4S10308   2.548   2.579   9.099 -0.1449 -0.1666  0.2507
  102OSM    C5S10309   2.682   2.419   9.112 -0.1795  0.4550  0.8731
  102OSM    H5S10310   2.742   2.356   9.179  2.4730  1.0781 -0.7910
  102OSM    C6S10311   2.719   2.422   8.965 -0.7566  0.1274  0.0176
  102OSM    H6S10312   2.649   2.353   8.912 -0.2685 -0.8915  0.6835
  102OSM    H6T10313   2.823   2.390   8.942 -0.7435  0.9612 -1.2359
  102OSM    C7S10314   2.706   2.555   8.885  0.2585  0.0105  0.0242
  102OSM    H7S10315   2.744   2.643   8.941 -1.3757  0.9514 -0.2636
  102OSM    H7T10316   2.600   2.587   8.875 -0.6442 -2.3099  1.3688
  102OSM    C8S10317   2.780   2.551   8.754 -0.0287 -0.1628 -0.3234
  102OSM    H8S10318   2.757   2.459   8.697  1.9572 -0.5930 -0.5268
  102OSM    H8T10319   2.890   2.541   8.768  0.2859  0.3455 -2.1232
  102OSM    C9S10320   2.765   2.675   8.667  0.2034  0.4413 -0.8065
  102OSM    H9S10321   2.767   2.758   8.742 -0.6396 -0.8642  0.7168
  102OSM    H9T10322   2.662   2.666   8.625 -1.0320 -2.2807  2.3573
  102OSM   C10S10323   2.875   2.690   8.566 -0.4649  0.3007  0.8365
  102OSM   H10S10324   2.889   2.588   8.522 -2.2306  0.7303 -0.8944
  102OSM   H10T10325   2.970   2.707   8.620 -0.0497 -0.7031  0.4455
  102OSM   C11S10326   2.835   2.783   8.452  0.1403 -0.3569  0.4940
  102OSM   H11S10327   2.798   2.880   8.492 -0.9885 -0.4040 -0.3755
  102OSM   H11T10328   2.742   2.743   8.406  0.5291 -0.9669  0.2345
  102OSM   C12S10329   2.931   2.797   8.330  0.1474 -0.1626  0.4091
  102OSM   H12S10330   2.948   2.699   8.281 -0.7541 -0.1972  0.1599
  102OSM   H12T10331   3.031   2.833   8.365 -0.2137  0.1786  1.1270
  102OSM   C13S10332   2.885   2.906   8.233  0.0615 -0.3429  0.2342
  102OSM   H13S10333   2.900   3.005   8.282  0.7805 -0.2267 -0.1988
  102OSM   H13T10334   2.775   2.906   8.222 -0.1617 -1.4707  2.1492
  102OSM   C14S10335   2.969   2.899   8.104  0.0760  0.1829 -0.4424
  102OSM   H14S10336   2.969   2.792   8.075 -0.7721 -0.1247  0.6062
  102OSM   H14T10337   3.070   2.944   8.118  0.1541  0.0953 -0.7336
  102OSM   C15S10338   2.894   2.992   8.001 -0.1278 -0.0293 -0.2469
  102OSM   H15S10339   2.791   2.953   7.990  0.4467 -2.2276  1.4420
  102OSM   H15T10340   2.934   2.978   7.897 -0.5645  2.0138 -0.7244
  102OSM   C16S10341   2.886   3.145   8.038 -0.0597  0.2659 -0.3096
  102OSM   H16S10342   2.993   3.175   8.042  0.2294 -0.8042  0.3254
  102OSM   H16T10343   2.829   3.154   8.133  0.8657 -1.2168  0.4185
  102OSM   C17S10344   2.822   3.234   7.928 -0.4761 -0.4320 -0.7823
  102OSM   H17S10345   2.888   3.235   7.839 -1.4542  1.5754 -1.5435
  102OSM   H17T10346   2.828   3.341   7.961 -0.8851 -0.0428 -1.9434
  102OSM   C18S10347   2.677   3.211   7.889  0.6172 -0.8644  0.1490
  102OSM   H18S10348   2.661   3.109   7.848  1.7849 -1.8814  2.0935
  102OSM   H18T10349   2.636   3.295   7.828 -2.5706 -2.5310 -0.2059
  102OSM   H18U10350   2.613   3.209   7.980  0.4638 -1.0616  0.0385
  102OSM    C1F10351   2.809   2.777   9.394  0.5655  0.3294 -0.0562
  102OSM     OF10352   2.888   2.705   9.456  0.1314 -0.0501 -0.3217
  102OSM    C2F10353   2.849   2.923   9.368 -0.3936  0.3530 -0.2261
  102OSM    H2F10354   2.953   2.920   9.406 -0.7075 -1.6531  0.6082
  102OSM    H2G10355   2.785   2.986   9.433 -1.7344 -0.5353 -0.6367
  102OSM    C3F10356   2.835   2.972   9.225  0.5159 -0.1711 -0.1787
  102OSM    H3F10357   2.724   2.976   9.216  0.5385  0.1037 -0.3320
  102OSM    H3G10358   2.863   2.898   9.147 -1.9451 -0.6856 -0.6612
  102OSM    C4F10359   2.913   3.100   9.206  0.1697 -0.0045  0.1804
  102OSM    H4F10360   3.021   3.081   9.187  0.8407  3.4631 -0.0859
  102OSM    H4G10361   2.907   3.155   9.302 -0.7256  2.0188 -0.9881
  102OSM    C5F10362   2.865   3.186   9.091  0.5042 -0.5187 -0.5217
  102OSM    H5F10363   2.928   3.277   9.075 -0.2252 -0.2539 -2.0715
  102OSM    H5G10364   2.759   3.219   9.102  0.7356  0.1898 -0.3428
  102OSM    C6F10365   2.863   3.118   8.949 -0.0643  0.0849  0.7953
  102OSM    H6F10366   2.807   3.190   8.886 -1.3050 -0.0776  1.6731
  102OSM    H6G10367   2.804   3.024   8.954 -0.7281  0.4890  0.6006
  102OSM    C7F10368   2.986   3.077   8.879 -0.4767  0.4453  0.1518
  102OSM    H7F10369   3.042   3.011   8.948 -2.5917 -1.9564 -0.2757
  102OSM    H7G10370   3.051   3.166   8.865  0.5876 -0.1790  0.9630
  102OSM    C8F10371   2.968   3.019   8.736 -0.4391  0.2803 -0.7011
  102OSM    H8F10372   2.894   2.937   8.741  0.1056 -0.2274 -0.9014
  102OSM    H8G10373   3.068   2.979   8.707  0.3475  2.0779 -0.6388
  102OSM    C9F10374   2.917   3.121   8.638  0.7864  0.9155  1.0114
  102OSM    H9F10375   2.821   3.169   8.664  0.5794  2.1650 -1.7382
  102OSM   C10F10376   2.976   3.160   8.525 -0.1289 -0.1698 -0.1410
  102OSM   H10F10377   2.927   3.233   8.459  1.6317  0.8072 -0.4344
  102OSM   C11F10378   3.109   3.111   8.469  0.0811  0.3535 -0.7655
  102OSM   H11F10379   3.101   3.028   8.396  1.6576  0.4179 -1.0279
  102OSM   H11G10380   3.173   3.079   8.553 -0.5258 -0.3453 -0.5574
  102OSM   C12F10381   3.200   3.216   8.402  0.0402  0.1375 -0.3649
  102OSM   H12F10382   3.240   3.282   8.481  0.9987 -1.5409  0.5969
  102OSM   H12G10383   3.133   3.267   8.328  1.5021  2.4360 -0.2052
  102OSM   C13F10384   3.320   3.152   8.328  0.1635  0.1016 -0.1708
  102OSM   H13F10385   3.283   3.084   8.248 -0.5921  1.1726 -0.7585
  102OSM   H13G10386   3.369   3.094   8.409 -0.6932  0.7844  0.8879
  102OSM   C14F10387   3.413   3.258   8.259  0.3229 -0.2890 -0.0122
  102OSM   H14F10388   3.453   3.329   8.334  0.6257  0.7271 -1.0944
  102OSM   H14G10389   3.345   3.312   8.189 -1.0220  0.0176  1.4895
  102OSM   C15F10390   3.516   3.188   8.176 -0.4352 -0.3287  0.0774
  102OSM   H15F10391   3.469   3.130   8.094  0.8285  1.2645 -1.8680
  102OSM   H15G10392   3.572   3.116   8.241  0.2283  0.1809  0.0760
  102OSM   C16F10393   3.622   3.283   8.112  0.7086 -0.1592 -0.2490
  102OSM   H16F10394   3.645   3.364   8.184  0.8928 -0.3080 -0.1408
  102OSM   H16G10395   3.568   3.333   8.029 -2.3390  1.0736  2.2817
  102OSM   C17F10396   3.759   3.220   8.072 -0.1610 -0.0454 -0.0435
  102OSM   H17F10397   3.811   3.186   8.164  1.1204 -1.8404 -1.3801
  102OSM   H17G10398   3.821   3.293   8.016  0.0730 -0.5744 -0.4838
  102OSM   C18F10399   3.739   3.106   7.970 -0.8686  0.7214  0.4245
  102OSM   H18F10400   3.671   3.022   7.995  1.5746 -0.8064  2.4733
  102OSM   H18G10401   3.834   3.050   7.957 -2.0528 -1.5244  0.9455
  102OSM   H18H10402   3.716   3.140   7.866  1.5002  2.9948  0.5215
  103OSM      N10403   2.624   5.165   9.853  0.5824  0.0352 -0.2575
  103OSM    C1510404   2.563   5.024   9.849 -0.2387  0.6240 -0.0971
  103OSM   H15A10405   2.524   5.011   9.749  1.3060  0.9253 -0.7558
  103OSM   H15B10406   2.489   5.014   9.927  0.0641  0.6036  0.1878
  103OSM   H15C10407   2.636   4.948   9.872 -0.5195  0.0813 -0.9411
  103OSM    C1410408   2.521   5.263   9.837  0.2890 -0.7415 -0.1122
  103OSM   H14A10409   2.561   5.363   9.826 -2.0967  0.6035  2.3153
  103OSM   H14B10410   2.458   5.261   9.924  0.4070  0.4687  0.0273
  103OSM   H14C10411   2.458   5.243   9.752 -0.5058  0.0014  0.2946
  103OSM    C1310412   2.693   5.169   9.980 -0.7641  0.0458 -0.3585
  103OSM   H13A10413   2.775   5.238   9.982 -0.8659  0.1619 -0.1399
  103OSM   H13B10414   2.744   5.077  10.003 -0.1823  0.5703  0.4716
  103OSM   H13C10415   2.633   5.190  10.067  2.4536 -0.1013  2.0248
  103OSM    C1210416   2.731   5.175   9.743  0.1889  0.6798  0.0321
  103OSM   H12A10417   2.799   5.091   9.746  2.5700  2.4381 -1.0364
  103OSM   H12B10418   2.793   5.262   9.757  0.2327  0.8338 -1.0063
  103OSM    C1110419   2.684   5.176   9.600 -0.0801 -0.0804  0.0005
  103OSM   H11A10420   2.771   5.184   9.532  0.8165 -1.1648  0.9828
  103OSM   H11B10421   2.623   5.268   9.586 -1.1964 -0.7352  0.3815
  103OSM      P10422   2.666   4.940   9.487 -0.2692 -0.1628 -0.2261
  103OSM    O1310423   2.804   4.944   9.535  0.8537  0.3581  0.4167
  103OSM    O1410424   2.576   4.824   9.520 -0.4869 -0.1628  0.0683
  103OSM    O1110425   2.656   4.966   9.332  0.0875 -0.2436  0.0218
  103OSM    O1210426   2.596   5.065   9.560  0.1583 -0.6455  0.1406
  103OSM    C1S10427   2.530   5.008   9.272 -0.0314  0.9875  0.6471
  103OSM    H1S10428   2.445   4.982   9.338 -0.5561 -1.2838 -0.8240
  103OSM    H1T10429   2.510   4.949   9.180  2.7007  0.2925  0.3952
  103OSM     NF10430   2.399   5.192   9.164 -0.1760  0.0547 -0.4628
  103OSM    HNF10431   2.408   5.252   9.085 -2.0611  0.3681 -0.4778
  103OSM    C2S10432   2.527   5.152   9.219 -0.4006  0.0401  0.8952
  103OSM    H2S10433   2.541   5.223   9.303  2.4437  0.1022  0.4462
  103OSM    C3S10434   2.649   5.181   9.122  0.2901 -0.3886  0.4541
  103OSM    H3S10435   2.658   5.109   9.038  2.0354  0.4889 -0.1593
  103OSM     O310436   2.770   5.167   9.193 -0.3821  0.3161  0.0825
  103OSM    HO310437   2.749   5.105   9.264  0.9949 -2.0010 -1.4206
  103OSM    C4S10438   2.645   5.322   9.068 -0.0391 -0.0414 -0.8946
  103OSM    H4S10439   2.669   5.394   9.148  1.3720 -2.1903  0.7162
  103OSM    C5S10440   2.643   5.349   8.938  0.5352 -0.1363  0.3913
  103OSM    H5S10441   2.635   5.265   8.867  1.3331 -0.8004  1.0630
  103OSM    C6S10442   2.665   5.489   8.891 -0.6356  0.4034 -0.2137
  103OSM    H6S10443   2.681   5.551   8.982  0.5343 -0.4552  0.1975
  103OSM    H6T10444   2.572   5.525   8.843 -1.2128  0.8503  1.1857
  103OSM    C7S10445   2.786   5.491   8.799 -0.1648  0.3615  0.2353
  103OSM    H7S10446   2.880   5.445   8.836  1.0976  1.5447 -1.3958
  103OSM    H7T10447   2.810   5.594   8.766 -0.9805 -0.0718 -1.8360
  103OSM    C8S10448   2.755   5.409   8.666 -0.1220 -0.6067 -0.0413
  103OSM    H8S10449   2.738   5.302   8.690  0.7545 -0.8068 -0.2617
  103OSM    H8T10450   2.849   5.392   8.609  1.2093 -1.0690  2.1621
  103OSM    C9S10451   2.643   5.460   8.581  0.3643 -0.3697 -0.2067
  103OSM    H9S10452   2.650   5.569   8.563 -0.3405 -0.6414 -2.4794
  103OSM    H9T10453   2.542   5.440   8.623 -0.5917 -1.6315 -2.8375
  103OSM   C10S10454   2.637   5.402   8.436  0.1486 -0.6876 -0.2192
  103OSM   H10S10455   2.539   5.420   8.387  0.1306 -0.6884 -0.1821
  103OSM   H10T10456   2.654   5.292   8.440  1.3600 -0.5143 -0.1268
  103OSM   C11S10457   2.735   5.467   8.338  0.0593  0.0874 -0.5474
  103OSM   H11S10458   2.841   5.467   8.371 -0.2078  4.5465  1.0010
  103OSM   H11T10459   2.714   5.576   8.323  1.6485  0.8985  2.4170
  103OSM   C12S10460   2.715   5.391   8.203  0.0136 -0.4361  0.1824
  103OSM   H12S10461   2.755   5.468   8.134 -1.6947  0.0862 -0.2500
  103OSM   H12T10462   2.610   5.372   8.174  0.1178  0.2876 -0.7163
  103OSM   C13S10463   2.803   5.260   8.189 -0.5163 -0.8830  0.1035
  103OSM   H13S10464   2.753   5.179   8.246 -0.0924 -0.9875  0.3326
  103OSM   H13T10465   2.907   5.278   8.225 -0.3411 -1.5797 -0.0409
  103OSM   C14S10466   2.818   5.211   8.044 -0.8173  0.7184  0.0717
  103OSM   H14S10467   2.733   5.198   7.974  0.0137 -1.5753 -0.6332
  103OSM   H14T10468   2.869   5.114   8.063  1.2171  1.4337 -1.3742
  103OSM   C15S10469   2.916   5.302   7.971 -0.4814 -0.5298 -0.3121
  103OSM   H15S10470   2.983   5.352   8.044  0.3756 -1.9307 -0.1034
  103OSM   H15T10471   2.856   5.386   7.931 -2.9301 -1.1240  1.8516
  103OSM   C16S10472   3.012   5.232   7.876  0.2267 -0.4333  0.0771
  103OSM   H16S10473   2.952   5.188   7.793 -3.1565  1.4773  1.2800
  103OSM   H16T10474   3.057   5.153   7.939 -0.6187  0.8412  2.3881
  103OSM   C17S10475   3.128   5.319   7.819 -0.5105  1.1121  0.5406
  103OSM   H17S10476   3.183   5.358   7.907 -1.1858  0.6247  1.2036
  103OSM   H17T10477   3.082   5.410   7.775 -0.8070  0.8651  0.3312
  103OSM   C18S10478   3.205   5.245   7.713  0.0180  0.4975  0.3952
  103OSM   H18S10479   3.298   5.303   7.697  0.7694 -0.8317 -0.2580
  103OSM   H18T10480   3.143   5.248   7.621  1.7600 -1.1731 -0.9141
  103OSM   H18U10481   3.231   5.139   7.738 -0.0500  0.3843 -0.0052
  103OSM    C1F10482   2.279   5.160   9.209  0.0907 -0.5525 -1.6543
  103OSM     OF10483   2.257   5.126   9.324  0.1157 -0.2103 -0.0026
  103OSM    C2F10484   2.166   5.176   9.122  1.1420  0.5257  0.5360
  103OSM    H2F10485   2.099   5.249   9.171  2.6089  1.1491  1.7085
  103OSM    H2G10486   2.108   5.082   9.108  1.0058  0.7076 -0.2022
  103OSM    C3F10487   2.211   5.244   8.987 -0.3459 -0.8730  0.0048
  103OSM    H3F10488   2.276   5.333   9.001 -1.1731  0.5459 -3.9851
  103OSM    H3G10489   2.124   5.292   8.936  0.2553  2.1453  1.5738
  103OSM    C4F10490   2.267   5.142   8.877  0.3949  0.0543 -0.1769
  103OSM    H4F10491   2.215   5.045   8.890 -1.0435  0.6538 -1.1748
  103OSM    H4G10492   2.378   5.132   8.882  0.6725  1.7478 -1.7608
  103OSM    C5F10493   2.227   5.187   8.734 -0.7903 -0.0722  0.5337
  103OSM    H5F10494   2.239   5.297   8.728  1.4474 -0.2859  0.0965
  103OSM    H5G10495   2.123   5.161   8.704 -0.1940  0.4647 -2.3281
  103OSM    C6F10496   2.324   5.134   8.624 -0.4475 -0.0955  0.0702
  103OSM    H6F10497   2.320   5.026   8.649 -1.7636 -0.3473 -1.1207
  103OSM    H6G10498   2.429   5.167   8.637 -0.2695 -0.0865 -1.2565
  103OSM    C7F10499   2.272   5.144   8.481  0.2366 -0.7601 -0.0447
  103OSM    H7F10500   2.282   5.252   8.456 -1.1917 -0.5676  0.1430
  103OSM    H7G10501   2.162   5.126   8.479 -0.0385  0.6946  0.9679
  103OSM    C8F10502   2.333   5.042   8.396 -0.3061  0.1428 -0.3704
  103OSM    H8F10503   2.293   4.949   8.441 -0.0355  1.6930  3.3744
  103OSM    H8G10504   2.442   5.045   8.414 -0.4015  5.3079  0.9523
  103OSM    C9F10505   2.276   5.060   8.262 -0.5365  1.0148 -0.1174
  103OSM    H9F10506   2.166   5.051   8.261 -0.6487  2.1632 -1.8458
  103OSM   C10F10507   2.345   5.075   8.148  0.0756  0.3127 -0.0568
  103OSM   H10F10508   2.299   5.085   8.049  1.5030 -1.9220 -1.0382
  103OSM   C11F10509   2.494   5.081   8.138 -0.7918  0.7473  0.3751
  103OSM   H11F10510   2.538   5.131   8.227 -1.2929  1.8315  0.0158
  103OSM   H11G10511   2.526   5.135   8.047 -2.3082  0.2884 -0.4675
  103OSM   C12F10512   2.548   4.939   8.124  0.3077 -0.1429  0.1665
  103OSM   H12F10513   2.506   4.867   8.196  0.3517 -2.6896 -2.1757
  103OSM   H12G10514   2.655   4.926   8.150  0.0246 -1.8589  0.5709
  103OSM   C13F10515   2.521   4.876   7.985  0.6000  0.4933 -0.7279
  103OSM   H13F10516   2.521   4.765   7.993  0.0622  0.4737 -0.9707
  103OSM   H13G10517   2.424   4.918   7.952  0.9812  2.5527  0.5896
  103OSM   C14F10518   2.631   4.910   7.879  0.4745 -0.2408 -0.4605
  103OSM   H14F10519   2.644   5.018   7.854  2.7484 -0.2771  0.3467
  103OSM   H14G10520   2.603   4.862   7.783 -1.6237 -0.4895  0.2180
  103OSM   C15F10521   2.770   4.855   7.922 -0.5370 -0.5372  0.2077
  103OSM   H15F10522   2.753   4.752   7.959  1.9747 -0.5270  1.6655
  103OSM   H15G10523   2.804   4.915   8.010 -2.2962  2.5110 -1.0312
  103OSM   C16F10524   2.880   4.873   7.811  0.2943 -0.6519 -0.3595
  103OSM   H16F10525   2.895   4.983   7.807 -4.0696  0.1042 -0.5049
  103OSM   H16G10526   2.841   4.834   7.714 -0.7349  2.6074 -1.3700
  103OSM   C17F10527   3.012   4.808   7.856 -0.6495 -0.0165 -0.3445
  103OSM   H17F10528   3.090   4.840   7.783  0.1997 -0.0991  0.5133
  103OSM   H17G10529   2.992   4.699   7.842 -1.4253  0.4850 -4.2809
  103OSM   C18F10530   3.068   4.831   7.997 -0.7409  0.0741  0.3837
  103OSM   H18F10531   3.178   4.818   8.005 -0.6272  0.3184 -0.5590
  103OSM   H18G10532   3.027   4.743   8.051  0.0426 -1.3195 -1.1994
  103OSM   H18H10533   3.045   4.924   8.053  0.7585  0.3199  0.6284
  104OSM      N10534   1.499   4.246  10.038  0.0922 -0.1249  1.3551
  104OSM    C1510535   1.387   4.144  10.007  0.3912  0.1609 -0.3622
  104OSM   H15A10536   1.418   4.066   9.939  1.5668 -1.3497  1.8097
  104OSM   H15B10537   1.306   4.198   9.960 -0.9976 -0.4576  1.2494
  104OSM   H15C10538   1.351   4.095  10.096  3.1334 -1.5418 -0.0743
  104OSM    C1410539   1.437   4.362  10.110 -0.7171 -0.1398  0.0583
  104OSM   H14A10540   1.370   4.330  10.188 -0.6325  1.5440  0.8733
  104OSM   H14B10541   1.380   4.429  10.046 -0.8776  0.1849  0.5317
  104OSM   H14C10542   1.503   4.432  10.159 -1.6497 -0.0024  1.1713
  104OSM    C1310543   1.600   4.169  10.131  0.0187 -0.7181  0.4985
  104OSM   H13A10544   1.656   4.248  10.180  0.8369 -0.6766 -0.4866
  104OSM   H13B10545   1.671   4.118  10.068  1.0960  1.1738  0.1249
  104OSM   H13C10546   1.557   4.101  10.203 -3.8386  1.6603  0.7335
  104OSM    C1210547   1.567   4.303   9.909 -0.1906  0.2891 -0.4531
  104OSM   H12A10548   1.646   4.372   9.934 -2.4747  2.4360  1.2903
  104OSM   H12B10549   1.485   4.352   9.859 -1.7258 -0.9622  0.7479
  104OSM    C1110550   1.629   4.189   9.821 -0.2557  0.5766  0.1269
  104OSM   H11A10551   1.666   4.237   9.728  1.8263 -0.5227  0.3215
  104OSM   H11B10552   1.552   4.110   9.805  0.0055 -0.0024  1.4992
  104OSM      P10553   1.792   3.981   9.862  0.1105  0.1861  0.3095
  104OSM    O1310554   1.932   3.969   9.910  0.1386  0.2906 -0.5875
  104OSM    O1410555   1.689   3.885   9.915  0.2652 -0.0362  0.1518
  104OSM    O1110556   1.795   3.957   9.709  0.1606 -0.0045  0.0418
  104OSM    O1210557   1.738   4.127   9.887 -0.3176 -0.0808 -0.4191
  104OSM    C1S10558   1.874   4.050   9.628  0.2273  0.4325  0.4398
  104OSM    H1S10559   1.980   4.036   9.659  0.2203  0.8584  0.6719
  104OSM    H1T10560   1.837   4.153   9.649  1.1723  0.9419 -0.3268
  104OSM     NF10561   1.975   4.120   9.419  0.0628  0.1543 -0.2374
  104OSM    HNF10562   1.951   4.205   9.372  0.3791 -0.6727 -1.9940
  104OSM    C2S10563   1.872   4.030   9.474  0.7541  0.5063 -0.5083
  104OSM    H2S10564   1.901   3.928   9.440 -1.7765  0.4541 -2.7827
  104OSM    C3S10565   1.730   4.057   9.415 -0.3620  0.4461  0.2506
  104OSM    H3S10566   1.710   4.166   9.420 -0.1843  0.4654  0.6334
  104OSM     O310567   1.622   3.993   9.483  0.8445  0.5902  0.2364
  104OSM    HO310568   1.650   3.938   9.556 -2.0511 -0.2078  0.8610
  104OSM    C4S10569   1.725   4.027   9.270 -0.9446  0.4472  0.0362
  104OSM    H4S10570   1.754   4.117   9.213 -0.5985  1.5202  1.8385
  104OSM    C5S10571   1.705   3.918   9.205 -0.0516  0.4173 -0.3891
  104OSM    H5S10572   1.683   3.825   9.260 -0.7529  0.3290 -0.8015
  104OSM    C6S10573   1.711   3.908   9.056 -0.3204 -0.2772  0.4627
  104OSM    H6S10574   1.756   3.999   9.012  0.7027 -0.6272  0.7508
  104OSM    H6T10575   1.617   3.895   8.998 -0.9919 -1.0134  1.6690
  104OSM    C7S10576   1.809   3.795   9.005  0.3298 -0.5171 -0.3304
  104OSM    H7S10577   1.785   3.695   9.046  1.2338 -0.0736  1.4141
  104OSM    H7T10578   1.907   3.826   9.049  0.0560 -2.0263  1.4913
  104OSM    C8S10579   1.843   3.788   8.861  0.7377 -0.2540 -0.3111
  104OSM    H8S10580   1.903   3.697   8.843 -2.4439 -2.1163 -2.4165
  104OSM    H8T10581   1.902   3.874   8.822  2.1101 -0.7564  0.5946
  104OSM    C9S10582   1.722   3.778   8.763  0.7376  0.3600 -0.5896
  104OSM    H9S10583   1.649   3.860   8.773  1.2435  0.9743 -1.7578
  104OSM    H9T10584   1.656   3.694   8.796  0.8490  0.3827 -0.3063
  104OSM   C10S10585   1.761   3.756   8.620 -0.2293 -0.2745  0.1012
  104OSM   H10S10586   1.827   3.669   8.605 -2.8158 -2.6833  1.7154
  104OSM   H10T10587   1.813   3.847   8.584 -0.0987 -0.6872 -0.7794
  104OSM   C11S10588   1.651   3.731   8.522 -0.0524  0.4922 -0.1050
  104OSM   H11S10589   1.614   3.833   8.497  1.6739  0.3963 -3.7560
  104OSM   H11T10590   1.567   3.665   8.553  0.1027  1.0730  1.6612
  104OSM   C12S10591   1.712   3.679   8.387 -0.1604 -0.6869 -0.8295
  104OSM   H12S10592   1.765   3.586   8.416  0.4393  0.0387  0.5311
  104OSM   H12T10593   1.793   3.745   8.349  1.3659 -0.7051  2.0547
  104OSM   C13S10594   1.608   3.639   8.277  0.6970  0.9924  0.1661
  104OSM   H13S10595   1.559   3.725   8.227 -1.5042 -1.3117 -1.9883
  104OSM   H13T10596   1.518   3.582   8.310  1.7972 -0.2760  1.0858
  104OSM   C14S10597   1.675   3.562   8.158 -0.6006 -0.4730  0.5053
  104OSM   H14S10598   1.596   3.547   8.081  0.1262 -1.8081 -0.0139
  104OSM   H14T10599   1.715   3.463   8.187  1.7234  1.0163  2.8482
  104OSM   C15S10600   1.783   3.647   8.091  0.0424 -0.2793  0.3004
  104OSM   H15S10601   1.869   3.647   8.161  0.8794 -1.5221 -0.6976
  104OSM   H15T10602   1.736   3.747   8.075  1.6326  0.1966 -1.7669
  104OSM   C16S10603   1.827   3.599   7.956 -0.2258  0.5039 -0.2563
  104OSM   H16S10604   1.894   3.676   7.911  0.9465 -0.4165 -0.1226
  104OSM   H16T10605   1.740   3.585   7.889  0.4548 -0.1648 -1.0261
  104OSM   C17S10606   1.919   3.485   7.960  0.3087  0.4759  0.6663
  104OSM   H17S10607   1.874   3.386   7.981  1.2030  0.1452  1.0740
  104OSM   H17T10608   2.000   3.506   8.032  0.6177 -1.1187  0.8260
  104OSM   C18S10609   1.978   3.463   7.817  0.2983  0.2642 -0.6840
  104OSM   H18S10610   2.052   3.381   7.816  2.7502  2.3120 -0.0192
  104OSM   H18T10611   2.028   3.557   7.785 -0.5350  0.7630 -0.5404
  104OSM   H18U10612   1.900   3.449   7.740  0.5589  2.7042 -1.4880
  104OSM    C1F10613   2.104   4.100   9.437  0.0629 -0.4477  0.3825
  104OSM     OF10614   2.144   4.007   9.504 -0.3860 -0.3461 -0.6167
  104OSM    C2F10615   2.198   4.199   9.382 -0.0430 -0.2721  0.4503
  104OSM    H2F10616   2.280   4.223   9.453  1.0114 -1.3335 -0.3666
  104OSM    H2G10617   2.142   4.291   9.354  0.5608 -0.2559 -0.7396
  104OSM    C3F10618   2.257   4.159   9.243 -0.3399 -0.0440 -0.2043
  104OSM    H3F10619   2.300   4.056   9.246  0.1685  0.1754  0.0273
  104OSM    H3G10620   2.335   4.233   9.217  0.3977 -0.3955  0.9148
  104OSM    C4F10621   2.154   4.162   9.128  0.1525  0.5481  0.3575
  104OSM    H4F10622   2.106   4.262   9.118  0.5536  0.8616  1.4966
  104OSM    H4G10623   2.068   4.096   9.153 -2.0256  3.6278  1.6261
  104OSM    C5F10624   2.205   4.118   8.987 -0.7820  0.2448  0.6208
  104OSM    H5F10625   2.227   4.009   8.996  0.1722  0.4564  1.1122
  104OSM    H5G10626   2.297   4.166   8.948 -0.5474  0.3470  1.2774
  104OSM    C6F10627   2.090   4.109   8.889 -0.0257  0.3154  0.2308
  104OSM    H6F10628   2.078   4.217   8.864  1.9420  1.0279  1.9613
  104OSM    H6G10629   1.994   4.083   8.937 -1.3416  1.9527 -1.3867
  104OSM    C7F10630   2.134   4.025   8.764  1.2881 -0.8792  0.2440
  104OSM    H7F10631   2.121   3.917   8.787  0.2757 -1.0506 -1.0553
  104OSM    H7G10632   2.237   4.059   8.737  1.1546  0.6551  1.4743
  104OSM    C8F10633   2.054   4.057   8.634 -0.7292 -0.3672 -0.4968
  104OSM    H8F10634   1.953   4.014   8.654  0.7229 -4.1769 -0.7324
  104OSM    H8G10635   2.096   3.992   8.555  1.5661 -2.3692  2.1926
  104OSM    C9F10636   2.051   4.202   8.597 -1.0325 -0.3625 -0.3916
  104OSM    H9F10637   1.989   4.273   8.654  0.4809 -0.1424  1.0850
  104OSM   C10F10638   2.116   4.261   8.494 -0.3252 -0.0359 -0.6529
  104OSM   H10F10639   2.103   4.370   8.483 -2.8414  0.1014  2.1548
  104OSM   C11F10640   2.201   4.188   8.397  0.6374 -0.2104  0.4313
  104OSM   H11F10641   2.148   4.095   8.369 -0.8413  1.3220 -2.3219
  104OSM   H11G10642   2.300   4.159   8.440  2.8698 -1.7894 -4.9312
  104OSM   C12F10643   2.229   4.275   8.274  1.2270 -0.4469  0.3312
  104OSM   H12F10644   2.273   4.369   8.314 -0.7186 -0.3248  2.4763
  104OSM   H12G10645   2.125   4.292   8.238  0.9319  0.0169  1.3520
  104OSM   C13F10646   2.317   4.206   8.169 -0.5641 -0.0865  0.5265
  104OSM   H13F10647   2.262   4.112   8.149  2.2272 -1.7484  0.0757
  104OSM   H13G10648   2.420   4.175   8.197 -0.2557 -2.2353 -2.5814
  104OSM   C14F10649   2.334   4.285   8.038  0.0565  0.2628  0.8486
  104OSM   H14F10650   2.421   4.350   8.059 -0.3003  1.0221  0.0419
  104OSM   H14G10651   2.244   4.347   8.017 -1.0468 -1.7390 -0.7595
  104OSM   C15F10652   2.356   4.197   7.909 -0.0090 -0.4551 -0.5017
  104OSM   H15F10653   2.350   4.260   7.818 -2.1740 -0.7519 -0.6256
  104OSM   H15G10654   2.266   4.133   7.896  1.3630 -2.5234 -0.3439
  104OSM   C16F10655   2.491   4.118   7.895 -0.5936 -0.2735 -0.3287
  104OSM   H16F10656   2.500   4.039   7.973  0.1636 -0.0207 -0.1451
  104OSM   H16G10657   2.576   4.189   7.901  1.0324 -2.0210 -1.4135
  104OSM   C17F10658   2.495   4.045   7.756 -0.2312  0.0674 -0.4342
  104OSM   H17F10659   2.480   4.115   7.670 -0.0620  1.0264  0.3086
  104OSM   H17G10660   2.413   3.971   7.744  0.6117 -0.8456 -0.6488
  104OSM   C18F10661   2.630   3.985   7.726 -0.5408  0.3070 -0.3081
  104OSM   H18F10662   2.638   3.929   7.630  0.4393 -0.3433  0.1421
  104OSM   H18G10663   2.653   3.914   7.809  0.3670  0.0377 -0.7761
  104OSM   H18H10664   2.710   4.060   7.709  1.7361 -2.5151 -3.2928
  105OSM      N10665   1.962   3.629  10.136  0.0619 -0.8340 -0.3049
  105OSM    C1510666   1.898   3.665  10.266 -0.9561  0.5891 -0.1444
  105OSM   H15A10667   1.824   3.591  10.290 -0.5927 -0.1798 -1.3103
  105OSM   H15B10668   1.852   3.761  10.247 -0.1115  1.1703  0.6415
  105OSM   H15C10669   1.973   3.679  10.342 -0.6618  3.2246 -0.8362
  105OSM    C1410670   2.049   3.746  10.079  0.0796 -0.4043 -0.0844
  105OSM   H14A10671   2.111   3.713   9.997  1.6475 -3.1707  2.0285
  105OSM   H14B10672   2.119   3.794  10.145  1.7923  0.9052 -2.7001
  105OSM   H14C10673   1.988   3.823  10.033 -1.3800 -2.3857 -1.7168
  105OSM    C1310674   2.048   3.508  10.157  0.9746  0.1944  0.1347
  105OSM   H13A10675   2.094   3.474  10.066 -0.7571 -2.8874  0.2911
  105OSM   H13B10676   1.986   3.426  10.191  0.1990  0.7143 -0.0041
  105OSM   H13C10677   2.124   3.535  10.229  1.4510  0.3352 -0.4185
  105OSM    C1210678   1.860   3.596  10.033 -1.0912  0.6842  0.5591
  105OSM   H12A10679   1.920   3.554   9.953 -0.7256  1.7992  0.2272
  105OSM   H12B10680   1.817   3.688   9.994 -0.4336  1.0718  0.7315
  105OSM    C1110681   1.741   3.512  10.068 -0.0691 -0.4469 -0.1306
  105OSM   H11A10682   1.681   3.533   9.977 -2.2137  2.5271  1.7801
  105OSM   H11B10683   1.687   3.546  10.159 -1.3306 -3.5538  0.4085
  105OSM      P10684   1.696   3.262  10.028  0.1475  0.0534  0.3695
  105OSM    O1310685   1.785   3.141  10.027 -0.1918 -0.8060 -0.5160
  105OSM    O1410686   1.559   3.246  10.087  0.3227  0.3260 -0.8100
  105OSM    O1110687   1.678   3.335   9.886  0.0279  0.4898 -0.1647
  105OSM    O1210688   1.780   3.379  10.100 -0.0610  0.1222  0.0509
  105OSM    C1S10689   1.732   3.288   9.763  0.1042  0.3255 -0.5339
  105OSM    H1S10690   1.767   3.184   9.774  1.9780  1.0530  0.9065
  105OSM    H1T10691   1.824   3.343   9.733 -0.3247  2.3278  1.5483
  105OSM     NF10692   1.670   3.212   9.538 -0.1954  0.1368  0.0881
  105OSM    HNF10693   1.728   3.241   9.462  0.2219 -2.3684 -0.6380
  105OSM    C2S10694   1.637   3.305   9.644 -0.5951 -0.1466 -0.9159
  105OSM    H2S10695   1.541   3.270   9.688  0.1117 -1.6060 -0.4932
  105OSM    C3S10696   1.620   3.452   9.609 -0.0722 -0.3734  0.2087
  105OSM    H3S10697   1.719   3.485   9.571 -0.4866  0.6142 -0.0286
  105OSM     O310698   1.603   3.543   9.718 -0.0982  0.0477 -0.0497
  105OSM    HO310699   1.624   3.492   9.796 -0.9426 -0.8902 -0.4173
  105OSM    C4S10700   1.513   3.473   9.502 -0.2691  0.2103 -0.2062
  105OSM    H4S10701   1.411   3.481   9.540 -0.1928 -0.6142  0.1967
  105OSM    C5S10702   1.536   3.489   9.369 -0.8227  0.8912 -0.4667
  105OSM    H5S10703   1.641   3.494   9.335  0.7893 -1.8753  3.3934
  105OSM    C6S10704   1.434   3.510   9.264  0.6485  0.1233 -0.0306
  105OSM    H6S10705   1.452   3.587   9.186  2.0294 -0.1307  0.0175
  105OSM    H6T10706   1.338   3.534   9.314 -1.2013 -3.2260 -1.6145
  105OSM    C7S10707   1.401   3.369   9.198 -0.1067 -0.6894 -0.2793
  105OSM    H7S10708   1.315   3.370   9.128 -0.6532  1.1306  0.3776
  105OSM    H7T10709   1.386   3.291   9.276 -0.1892 -0.9342 -0.5378
  105OSM    C8S10710   1.527   3.320   9.113  0.2917 -0.0369 -0.0342
  105OSM    H8S10711   1.512   3.219   9.070  1.3499 -0.0600 -0.3794
  105OSM    H8T10712   1.610   3.316   9.186  1.4054 -0.4511 -1.2903
  105OSM    C9S10713   1.556   3.411   8.993  0.0988 -0.2729 -0.3961
  105OSM    H9S10714   1.600   3.504   9.034  2.0149 -2.4742  3.0830
  105OSM    H9T10715   1.461   3.422   8.937  0.6076  0.8506 -1.0635
  105OSM   C10S10716   1.673   3.357   8.901 -0.3667 -0.0120  0.1074
  105OSM   H10S10717   1.721   3.271   8.953 -0.2078  0.5300  0.8790
  105OSM   H10T10718   1.747   3.439   8.888 -0.9380  0.0938 -3.1466
  105OSM   C11S10719   1.638   3.323   8.748 -0.1591 -0.9797 -0.4019
  105OSM   H11S10720   1.576   3.407   8.711  0.1303 -1.4138 -1.9454
  105OSM   H11T10721   1.570   3.235   8.742  1.5589 -2.4622  0.6548
  105OSM   C12S10722   1.755   3.305   8.648 -0.0397  0.2179  0.4264
  105OSM   H12S10723   1.840   3.246   8.689  0.1901  0.5020  0.3616
  105OSM   H12T10724   1.794   3.408   8.636 -1.0817  0.6281  0.4878
  105OSM   C13S10725   1.723   3.266   8.503  0.3436 -0.5148  0.1428
  105OSM   H13S10726   1.807   3.287   8.433 -0.7016  0.4474 -0.8690
  105OSM   H13T10727   1.652   3.347   8.476  0.9060  0.2243  0.8592
  105OSM   C14S10728   1.646   3.128   8.485  0.0611 -0.3660 -0.1980
  105OSM   H14S10729   1.579   3.114   8.573  1.2423  2.4590  1.2882
  105OSM   H14T10730   1.717   3.042   8.491 -0.4164 -0.7560 -0.0548
  105OSM   C15S10731   1.565   3.131   8.355 -0.0879 -0.1861  0.7246
  105OSM   H15S10732   1.513   3.229   8.355 -2.1086 -1.2192  0.3546
  105OSM   H15T10733   1.487   3.053   8.359 -0.6009  0.3486  1.1976
  105OSM   C16S10734   1.650   3.116   8.230 -0.2865 -0.1888 -0.1021
  105OSM   H16S10735   1.717   3.030   8.210 -1.1425 -0.7633 -0.5028
  105OSM   H16T10736   1.724   3.199   8.233  0.6507 -1.0061  0.0392
  105OSM   C17S10737   1.572   3.108   8.096 -0.4817 -0.2953  0.2858
  105OSM   H17S10738   1.500   3.192   8.104  0.0236  0.4781 -2.3549
  105OSM   H17T10739   1.518   3.011   8.086  1.2606 -1.1128 -1.8964
  105OSM   C18S10740   1.676   3.108   7.981 -0.3377  0.1817  0.0142
  105OSM   H18S10741   1.631   3.141   7.885  0.4749  2.0370  0.2103
  105OSM   H18T10742   1.730   3.012   7.975  0.3005  0.6143 -2.8683
  105OSM   H18U10743   1.749   3.192   7.984  0.3755 -0.3458 -1.4369
  105OSM    C1F10744   1.655   3.081   9.547 -0.1224  0.1684 -0.1977
  105OSM     OF10745   1.618   3.028   9.647 -0.1677  0.2059 -0.2634
  105OSM    C2F10746   1.680   2.998   9.423 -0.4238 -0.0548 -0.3522
  105OSM    H2F10747   1.707   2.897   9.460  2.8492  0.5538 -0.7571
  105OSM    H2G10748   1.767   3.040   9.368  0.7358  0.1704  1.5472
  105OSM    C3F10749   1.547   2.995   9.341 -0.1247 -0.6924  0.3604
  105OSM    H3F10750   1.514   3.099   9.322  2.0104  0.0923  0.6638
  105OSM    H3G10751   1.461   2.952   9.397 -0.4682  1.3416  1.5056
  105OSM    C4F10752   1.576   2.923   9.204  0.0834  0.8436 -0.6152
  105OSM    H4F10753   1.623   2.824   9.215  1.2690  1.6106  2.1494
  105OSM    H4G10754   1.654   2.979   9.148  1.2025  1.2396  1.2571
  105OSM    C5F10755   1.446   2.907   9.127 -0.1129 -0.1525 -0.0308
  105OSM    H5F10756   1.409   3.010   9.112  1.1218  0.6580  2.0018
  105OSM    H5G10757   1.371   2.851   9.186 -1.1121 -1.6535 -2.5655
  105OSM    C6F10758   1.459   2.818   9.000  0.5228 -0.9517  0.1936
  105OSM    H6F10759   1.532   2.735   9.012  1.9269  0.5052  2.6771
  105OSM    H6G10760   1.488   2.890   8.921 -1.1136  0.6409  0.9485
  105OSM    C7F10761   1.325   2.772   8.939 -0.2297  0.1325 -0.5305
  105OSM    H7F10762   1.258   2.860   8.938 -1.5387 -0.8296 -0.8727
  105OSM    H7G10763   1.287   2.686   8.999  1.0417  0.3763  0.6848
  105OSM    C8F10764   1.326   2.722   8.785 -0.1966  0.8292  0.2171
  105OSM    H8F10765   1.337   2.814   8.724 -0.7868  0.5115 -0.3728
  105OSM    H8G10766   1.224   2.687   8.762 -0.3161  2.1037 -1.4113
  105OSM    C9F10767   1.434   2.614   8.749  0.0284 -0.0995 -0.3001
  105OSM    H9F10768   1.425   2.515   8.796  1.2295 -0.5539 -0.9663
  105OSM   C10F10769   1.540   2.626   8.661  0.7620  0.1022 -0.4172
  105OSM   H10F10770   1.604   2.537   8.653  1.5093  0.5151  0.7680
  105OSM   C11F10771   1.575   2.738   8.569  0.3768  0.1549 -0.1326
  105OSM   H11F10772   1.676   2.772   8.602 -0.0260 -0.3177  1.7039
  105OSM   H11G10773   1.506   2.823   8.586 -0.5676 -0.5393 -0.3768
  105OSM   C12F10774   1.582   2.684   8.427  0.1963 -0.0338 -0.0030
  105OSM   H12F10775   1.645   2.595   8.407 -0.7651 -1.2849  2.1705
  105OSM   H12G10776   1.624   2.773   8.375  1.5671 -0.0232  1.0460
  105OSM   C13F10777   1.451   2.652   8.375 -0.6795  0.5777 -0.2096
  105OSM   H13F10778   1.398   2.750   8.371 -0.5056  0.6465 -2.4709
  105OSM   H13G10779   1.398   2.575   8.435  0.1212 -0.1071 -0.3666
  105OSM   C14F10780   1.443   2.609   8.223  0.0588 -0.3509 -0.2192
  105OSM   H14F10781   1.343   2.579   8.186 -0.7281 -1.4131  2.5280
  105OSM   H14G10782   1.507   2.520   8.205  1.6193  1.0564 -2.0974
  105OSM   C15F10783   1.485   2.724   8.130 -0.7500  0.2655  0.8113
  105OSM   H15F10784   1.595   2.739   8.140 -0.5721  0.0768 -0.5751
  105OSM   H15G10785   1.434   2.821   8.151 -0.4328  0.1675  2.0752
  105OSM   C16F10786   1.463   2.679   7.987 -0.5509 -0.6228  0.1253
  105OSM   H16F10787   1.361   2.704   7.951 -0.8202 -0.4065  1.0094
  105OSM   H16G10788   1.470   2.569   7.976 -3.8811 -0.8533 -0.7332
  105OSM   C17F10789   1.568   2.731   7.880  0.3548 -0.2421  0.2606
  105OSM   H17F10790   1.668   2.691   7.905  1.0427 -0.2673 -2.2475
  105OSM   H17G10791   1.576   2.841   7.889  1.8897  0.0096 -2.8503
  105OSM   C18F10792   1.544   2.691   7.737 -0.0319 -0.1807 -1.0647
  105OSM   H18F10793   1.631   2.730   7.680  0.1574  1.8760  0.5367
  105OSM   H18G10794   1.464   2.758   7.698  0.0352 -0.2389 -1.3029
  105OSM   H18H10795   1.520   2.582   7.727 -1.0143 -0.3539  2.0507
  106OSM      N10796   3.081   1.937   9.786 -0.5627 -0.4414 -0.3230
  106OSM    C1510797   2.986   1.893   9.895  0.1618 -0.0806  0.3135
  106OSM   H15A10798   2.889   1.860   9.859  0.2256  0.2089 -0.1299
  106OSM   H15B10799   2.970   1.969   9.970  0.9218 -0.1309  0.5353
  106OSM   H15C10800   3.039   1.815   9.947  2.6240  1.2656 -0.0289
  106OSM    C1410801   3.028   2.064   9.730 -0.8795  0.5302 -0.1470
  106OSM   H14A10802   3.024   2.148   9.799 -0.8908  1.3284 -1.1036
  106OSM   H14B10803   2.931   2.053   9.684 -0.5567  1.7972 -1.1977
  106OSM   H14C10804   3.086   2.099   9.646 -0.8657 -1.6519 -1.1079
  106OSM    C1310805   3.212   1.967   9.860 -0.6392 -0.4376 -0.6346
  106OSM   H13A10806   3.291   2.008   9.799  0.2922 -2.5044 -0.8979
  106OSM   H13B10807   3.247   1.870   9.891 -2.4106 -1.0488 -0.4162
  106OSM   H13C10808   3.198   2.030   9.947  0.5407 -1.0209 -0.0048
  106OSM    C1210809   3.115   1.822   9.683 -0.3468 -0.0216 -0.4355
  106OSM   H12A10810   3.180   1.862   9.606  0.9497 -3.1124 -1.1186
  106OSM   H12B10811   3.021   1.780   9.650  0.4849 -1.3305 -1.2415
  106OSM    C1110812   3.188   1.697   9.731  0.3286  0.0869  0.0350
  106OSM   H11A10813   3.285   1.731   9.772 -0.1860 -0.0816  1.4308
  106OSM   H11B10814   3.212   1.636   9.641  2.4662  2.1127 -0.8795
  106OSM      P10815   2.995   1.529   9.773  0.0547 -0.1467 -0.1269
  106OSM    O1310816   3.062   1.410   9.714  0.2876  0.2487  0.8064
  106OSM    O1410817   2.902   1.492   9.878 -0.3991  0.0006  0.0129
  106OSM    O1110818   2.916   1.609   9.657  0.6332  0.2816  0.4257
  106OSM    O1210819   3.112   1.623   9.823  0.0468  0.0552  0.1036
  106OSM    C1S10820   2.776   1.580   9.655 -0.4566 -0.6872 -0.3106
  106OSM    H1S10821   2.732   1.653   9.726 -1.7216 -0.0298 -1.7064
  106OSM    H1T10822   2.755   1.478   9.694  0.3189 -1.0859 -0.9171
  106OSM     NF10823   2.565   1.605   9.519  0.1061  0.3791 -0.2658
  106OSM    HNF10824   2.513   1.523   9.498 -1.3859  0.8872  1.1950
  106OSM    C2S10825   2.711   1.595   9.515  0.7058  0.2620 -0.0335
  106OSM    H2S10826   2.736   1.693   9.470 -1.0562  1.2067  0.9145
  106OSM    C3S10827   2.769   1.479   9.429  0.3888 -0.0103 -0.5580
  106OSM    H3S10828   2.733   1.385   9.476 -1.2285  0.9077  0.1318
  106OSM     O310829   2.908   1.439   9.431  0.5353  0.1805  0.7310
  106OSM    HO310830   2.948   1.470   9.513 -0.6917 -1.5197  2.0716
  106OSM    C4S10831   2.727   1.492   9.288  0.1001  0.1248 -0.1650
  106OSM    H4S10832   2.644   1.422   9.271  0.7826 -0.8673  0.4742
  106OSM    C5S10833   2.781   1.565   9.188 -0.6493  0.9599  0.7518
  106OSM    H5S10834   2.871   1.626   9.204 -1.4826  2.6558 -0.5726
  106OSM    C6S10835   2.728   1.570   9.051  0.3564 -0.2103 -0.0896
  106OSM    H6S10836   2.681   1.668   9.029  0.9780  0.3299  0.9134
  106OSM    H6T10837   2.650   1.491   9.049 -0.1395  0.2847 -0.5332
  106OSM    C7S10838   2.823   1.550   8.932 -0.4574  0.3363 -0.2674
  106OSM    H7S10839   2.886   1.458   8.942 -1.0498 -0.3580 -2.3275
  106OSM    H7T10840   2.881   1.644   8.935  0.5967 -0.0276 -3.8160
  106OSM    C8S10841   2.753   1.530   8.794  0.2905  0.2299 -0.5991
  106OSM    H8S10842   2.661   1.591   8.781 -0.5100 -0.6093  0.8461
  106OSM    H8T10843   2.709   1.428   8.798 -1.0007  0.7267 -1.5739
  106OSM    C9S10844   2.852   1.543   8.680  0.9631 -0.2397  0.0999
  106OSM    H9S10845   2.940   1.479   8.701 -0.3514 -1.9773  0.5488
  106OSM    H9T10846   2.898   1.644   8.677  0.7457 -0.1597 -2.2606
  106OSM   C10S10847   2.805   1.500   8.539 -0.4220 -0.1198 -0.4937
  106OSM   H10S10848   2.721   1.566   8.507 -0.0785  0.2715 -0.5917
  106OSM   H10T10849   2.765   1.396   8.540  0.3923 -0.4636 -1.7990
  106OSM   C11S10850   2.923   1.517   8.441  0.4167  0.3313  0.0880
  106OSM   H11S10851   2.995   1.436   8.464 -1.5274 -1.6812 -0.6313
  106OSM   H11T10852   2.980   1.612   8.447  0.1635  0.4997 -0.1390
  106OSM   C12S10853   2.874   1.503   8.298  0.2045  0.2643  0.0777
  106OSM   H12S10854   2.784   1.567   8.285  0.3605  0.6979  0.9880
  106OSM   H12T10855   2.846   1.399   8.272  0.0966 -0.3201  2.2951
  106OSM   C13S10856   2.973   1.559   8.191  0.1187 -0.7808  0.8220
  106OSM   H13S10857   3.060   1.489   8.190 -0.1630 -1.1461  1.2877
  106OSM   H13T10858   3.006   1.662   8.217  2.7994 -0.7359 -2.2057
  106OSM   C14S10859   2.895   1.565   8.061  0.7087 -0.9092  0.6543
  106OSM   H14S10860   2.805   1.629   8.079  0.1525 -1.5736  0.2725
  106OSM   H14T10861   2.860   1.469   8.019 -1.2305 -0.6251  1.5006
  106OSM   C15S10862   2.978   1.637   7.958 -0.2493  0.4145  0.4302
  106OSM   H15S10863   3.064   1.576   7.922 -0.6331 -0.2054  0.5472
  106OSM   H15T10864   3.022   1.731   7.997 -2.0273  2.4632 -2.1535
  106OSM   C16S10865   2.897   1.658   7.832  0.0507 -0.3918 -0.3487
  106OSM   H16S10866   2.821   1.739   7.841  0.5723  0.2310 -1.3464
  106OSM   H16T10867   2.862   1.559   7.798 -0.6662  0.5972 -2.7021
  106OSM   C17S10868   2.979   1.705   7.712  0.3606  0.5317  0.5015
  106OSM   H17S10869   3.060   1.630   7.702  1.8442  1.7783  2.4766
  106OSM   H17T10870   3.025   1.801   7.743 -0.2065  1.0874 -0.3417
  106OSM   C18S10871   2.908   1.730   7.573 -0.3644  0.3237  0.6768
  106OSM   H18S10872   2.980   1.714   7.490  0.0545 -0.6354  1.2127
  106OSM   H18T10873   2.864   1.832   7.569  0.0802  0.4837 -2.5398
  106OSM   H18U10874   2.831   1.650   7.569 -1.5434  1.4376  0.2287
  106OSM    C1F10875   2.501   1.710   9.570 -0.0191 -0.3027  0.6063
  106OSM     OF10876   2.560   1.814   9.567 -0.0677 -0.8061 -0.3532
  106OSM    C2F10877   2.358   1.696   9.609 -0.4188  0.6356 -0.0840
  106OSM    H2F10878   2.306   1.784   9.653  0.8915  0.2584  2.3608
  106OSM    H2G10879   2.370   1.630   9.697 -1.8070 -0.0175 -0.3538
  106OSM    C3F10880   2.264   1.614   9.515 -0.6338  0.1595  0.4196
  106OSM    H3F10881   2.162   1.611   9.558 -1.1949 -0.1633 -0.9032
  106OSM    H3G10882   2.301   1.510   9.510 -1.9643 -0.2667 -1.3029
  106OSM    C4F10883   2.254   1.685   9.378  0.5534 -0.2778 -0.3488
  106OSM    H4F10884   2.316   1.777   9.369 -0.3947  0.2510 -1.9147
  106OSM    H4G10885   2.147   1.712   9.369  0.6031  0.4717  1.1260
  106OSM    C5F10886   2.296   1.588   9.268  0.1615 -0.4609  0.1335
  106OSM    H5F10887   2.232   1.498   9.262 -0.8666  0.0808  2.1396
  106OSM    H5G10888   2.401   1.560   9.294 -0.1124  0.0366  1.8642
  106OSM    C6F10889   2.311   1.655   9.129 -0.3630  0.4462 -0.3856
  106OSM    H6F10890   2.210   1.680   9.090 -1.1023 -1.8263 -0.0787
  106OSM    H6G10891   2.357   1.578   9.063  0.2955 -1.0319  1.6712
  106OSM    C7F10892   2.395   1.777   9.139 -0.0189  1.1080 -0.0484
  106OSM    H7F10893   2.490   1.763   9.196  0.1974  0.7294 -0.4979
  106OSM    H7G10894   2.338   1.858   9.190 -0.3597  0.2915  0.9081
  106OSM    C8F10895   2.430   1.830   8.997 -0.1510 -0.2950 -0.2621
  106OSM    H8F10896   2.432   1.740   8.933  1.0324 -0.2510 -0.3182
  106OSM    H8G10897   2.534   1.869   9.007  0.4659 -1.7919 -0.5961
  106OSM    C9F10898   2.330   1.937   8.949  0.0112  1.0350  0.5414
  106OSM    H9F10899   2.320   2.024   9.015 -1.0179 -0.3454  2.3160
  106OSM   C10F10900   2.240   1.939   8.851  0.8601  0.1989 -0.0151
  106OSM   H10F10901   2.185   2.033   8.840 -0.3014 -0.2283  1.6735
  106OSM   C11F10902   2.209   1.831   8.758 -0.1152  0.5211  0.0331
  106OSM   H11F10903   2.102   1.803   8.762  0.2085 -0.7047  2.6874
  106OSM   H11G10904   2.257   1.740   8.801  0.2997  0.4684 -0.5258
  106OSM   C12F10905   2.236   1.873   8.615  0.0805  0.0118 -0.5031
  106OSM   H12F10906   2.201   1.973   8.581  0.5813  0.4343  0.2019
  106OSM   H12G10907   2.175   1.804   8.553 -1.5948  0.1794  0.9030
  106OSM   C13F10908   2.384   1.870   8.571  0.3952 -0.4437 -0.2550
  106OSM   H13F10909   2.424   1.766   8.576  2.3406  0.3026  0.5931
  106OSM   H13G10910   2.447   1.941   8.628 -1.6586  1.0554  0.2482
  106OSM   C14F10911   2.396   1.919   8.422  0.0843  0.0693 -0.5719
  106OSM   H14F10912   2.350   2.019   8.405  2.7723  1.5962  0.4177
  106OSM   H14G10913   2.350   1.846   8.352 -1.4651  1.0632 -0.6385
  106OSM   C15F10914   2.548   1.929   8.389  0.2641 -0.5140  0.0774
  106OSM   H15F10915   2.592   1.836   8.429  0.6196 -0.2316  0.3488
  106OSM   H15G10916   2.578   2.018   8.449 -0.3887  0.5738 -1.1542
  106OSM   C16F10917   2.576   1.961   8.239  0.2623  0.1103  0.4216
  106OSM   H16F10918   2.562   2.067   8.211 -0.1718 -0.6857 -2.6874
  106OSM   H16G10919   2.526   1.903   8.158  0.9227 -0.0770  0.1428
  106OSM   C17F10920   2.727   1.925   8.204 -0.0782  0.2354 -0.2129
  106OSM   H17F10921   2.740   1.816   8.193  1.9248  0.5030 -0.8709
  106OSM   H17G10922   2.793   1.971   8.281  1.6780 -0.7271 -1.0946
  106OSM   C18F10923   2.771   1.966   8.065  0.7646  0.3400  0.3787
  106OSM   H18F10924   2.747   2.073   8.045 -0.6063 -0.1244 -0.6209
  106OSM   H18G10925   2.711   1.912   7.989  0.3986  3.5133 -1.8172
  106OSM   H18H10926   2.880   1.952   8.047  1.0162  0.6876  1.5632
  107OSM      N10927   3.427   5.373  10.146 -0.2182  0.1935  0.3853
  107OSM    C1510928   3.508   5.503  10.134  0.6128 -0.2201 -0.4453
  107OSM   H15A10929   3.441   5.586  10.113  0.2138 -0.5980 -0.6775
  107OSM   H15B10930   3.569   5.499  10.046 -1.4796 -0.2551 -1.9576
  107OSM   H15C10931   3.567   5.528  10.222 -1.1571 -0.5328  0.8961
  107OSM    C1410932   3.520   5.259  10.154 -0.3540  0.4053 -0.1149
  107OSM   H14A10933   3.584   5.241  10.069  0.3540 -1.2816  0.7353
  107OSM   H14B10934   3.467   5.165  10.167 -1.2684  0.7887 -0.8968
  107OSM   H14C10935   3.575   5.254  10.246 -0.0394 -0.2758 -0.3326
  107OSM    C1310936   3.336   5.388  10.262 -0.0513  0.4280  0.2909
  107OSM   H13A10937   3.269   5.305  10.279 -0.2868  0.7390  0.9062
  107OSM   H13B10938   3.266   5.470  10.256 -1.1386 -0.5658 -2.1772
  107OSM   H13C10939   3.396   5.399  10.350  0.5501  1.5023 -0.2424
  107OSM    C1210940   3.342   5.362  10.017 -0.1235  0.5878  0.3558
  107OSM   H12A10941   3.281   5.273  10.016 -0.7663  0.8374  3.7691
  107OSM   H12B10942   3.410   5.376   9.934  1.5587  3.7265  2.0565
  107OSM    C1110943   3.224   5.463   9.997 -0.4245 -0.2416 -0.2446
  107OSM   H11A10944   3.134   5.451  10.060  0.2791  0.4053  0.9126
  107OSM   H11B10945   3.190   5.445   9.892 -0.6626  1.2182 -0.4353
  107OSM      P10946   3.319   5.670   9.864  0.5937 -0.2658 -0.3909
  107OSM    O1310947   3.200   5.735   9.810  0.4748 -0.2603 -0.2182
  107OSM    O1410948   3.430   5.756   9.909 -0.0338 -0.3284  0.2624
  107OSM    O1110949   3.382   5.554   9.771 -0.5268 -0.5827 -0.2107
  107OSM    O1210950   3.270   5.593  10.000  0.3355 -0.0879 -0.3770
  107OSM    C1S10951   3.328   5.519   9.641 -0.3496  0.5546 -1.0168
  107OSM    H1S10952   3.221   5.550   9.635 -1.2180 -1.7929  0.6182
  107OSM    H1T10953   3.326   5.408   9.630 -0.4673  0.4000  0.4063
  107OSM     NF10954   3.328   5.539   9.395  0.0254  0.8435 -0.4270
  107OSM    HNF10955   3.344   5.457   9.341 -0.7759 -0.5115  1.2837
  107OSM    C2S10956   3.407   5.557   9.513 -0.4926  0.0081  0.3366
  107OSM    H2S10957   3.419   5.666   9.531  1.9784 -0.3117  1.0239
  107OSM    C3S10958   3.544   5.492   9.509  0.1605  0.4166  0.0224
  107OSM    H3S10959   3.543   5.383   9.485 -0.2227 -0.1510  2.3160
  107OSM     O310960   3.611   5.464   9.633 -0.3662  0.1825  0.2358
  107OSM    HO310961   3.543   5.486   9.697 -0.7910  1.9814 -0.7632
  107OSM    C4S10962   3.628   5.560   9.410  0.0053  0.1542  0.2993
  107OSM    H4S10963   3.652   5.506   9.317  0.8275  2.9333 -1.2271
  107OSM    C5S10964   3.692   5.677   9.428  0.4258  0.3991  0.5823
  107OSM    H5S10965   3.673   5.725   9.526  2.5341 -0.1466  1.3144
  107OSM    C6S10966   3.786   5.744   9.336 -0.5399 -0.0862  0.6176
  107OSM    H6S10967   3.889   5.728   9.373  0.1808 -0.8429 -1.5630
  107OSM    H6T10968   3.763   5.852   9.345 -0.2897  0.1123 -0.8643
  107OSM    C7S10969   3.788   5.719   9.184  0.3701  0.6712  0.2167
  107OSM    H7S10970   3.806   5.610   9.172 -1.9086  0.2617  0.0008
  107OSM    H7T10971   3.882   5.768   9.152  0.1532  0.0527 -1.4851
  107OSM    C8S10972   3.681   5.781   9.101 -0.4215 -0.2157  0.1997
  107OSM    H8S10973   3.691   5.889   9.124  1.0817 -0.3127  0.1283
  107OSM    H8T10974   3.585   5.729   9.121  0.3272 -1.1347  1.5318
  107OSM    C9S10975   3.716   5.773   8.951 -0.2341  0.8244  0.5898
  107OSM    H9S10976   3.823   5.799   8.939  0.6854 -2.9057 -0.6161
  107OSM    H9T10977   3.661   5.843   8.884 -1.8833 -0.7101  0.2520
  107OSM   C10S10978   3.701   5.625   8.898  0.5543 -0.6374  0.2340
  107OSM   H10S10979   3.598   5.591   8.921  0.0557  1.4873  1.4337
  107OSM   H10T10980   3.780   5.563   8.946  1.8217  1.8734  1.6144
  107OSM   C11S10981   3.700   5.617   8.744 -0.1706 -0.5193  0.2215
  107OSM   H11S10982   3.780   5.675   8.692 -0.9593 -1.9385 -2.7656
  107OSM   H11T10983   3.610   5.679   8.727  0.9333  0.6003 -1.9860
  107OSM   C12S10984   3.669   5.479   8.677 -0.4437 -1.0964  0.4541
  107OSM   H12S10985   3.583   5.443   8.737 -0.5989 -0.3007  0.7260
  107OSM   H12T10986   3.761   5.418   8.690 -0.3366 -0.6977  1.7407
  107OSM   C13S10987   3.632   5.483   8.529 -0.5339 -0.0377  0.0967
  107OSM   H13S10988   3.730   5.484   8.477  1.4838 -1.6425  3.5406
  107OSM   H13T10989   3.576   5.577   8.509  0.8282  0.6031 -0.9268
  107OSM   C14S10990   3.561   5.359   8.477 -0.4176 -0.1798  0.3976
  107OSM   H14S10991   3.474   5.338   8.542  0.4408  0.2664  1.7248
  107OSM   H14T10992   3.625   5.269   8.488  2.1672  1.4417 -0.1934
  107OSM   C15S10993   3.510   5.362   8.330 -0.7463  0.5336  0.4674
  107OSM   H15S10994   3.605   5.369   8.272  1.8662 -0.4986  4.2692
  107OSM   H15T10995   3.450   5.455   8.323 -0.4974  0.6130 -0.9418
  107OSM   C16S10996   3.439   5.233   8.285 -0.7566  0.2172 -0.8878
  107OSM   H16S10997   3.507   5.145   8.280  1.4186  1.7337  0.6102
  107OSM   H16T10998   3.390   5.253   8.187 -1.6120 -2.1810 -1.0160
  107OSM   C17S10999   3.318   5.185   8.367  0.0714 -0.1983 -0.4469
  107OSM   H17S11000   3.284   5.270   8.430 -1.4516 -0.1667 -1.2520
  107OSM   H17T11001   3.357   5.105   8.434 -0.5627 -1.5617 -1.6550
  107OSM   C18S11002   3.192   5.134   8.292 -0.0273  0.3946 -0.1089
  107OSM   H18S11003   3.196   5.025   8.272  1.2556 -0.4470  3.8094
  107OSM   H18T11004   3.179   5.189   8.197 -2.2807 -0.3931 -0.3100
  107OSM   H18U11005   3.102   5.168   8.348  0.6457  0.5597  0.8963
  107OSM    C1F11006   3.217   5.598   9.363  0.1810 -0.0661  0.1523
  107OSM     OF11007   3.166   5.688   9.432  0.0001  0.4419  0.2275
  107OSM    C2F11008   3.161   5.541   9.231 -0.4284 -0.2512  0.3438
  107OSM    H2F11009   3.088   5.459   9.248 -0.3878 -0.4465 -0.4082
  107OSM    H2G11010   3.239   5.498   9.165  1.3854 -1.6722  3.2277
  107OSM    C3F11011   3.072   5.641   9.153  0.6046 -0.0576 -0.6640
  107OSM    H3F11012   3.126   5.739   9.154  0.5817 -0.0428  0.7432
  107OSM    H3G11013   2.977   5.661   9.207 -0.1238  0.5184 -2.1100
  107OSM    C4F11014   3.034   5.611   9.003 -0.2994 -0.9522  0.1891
  107OSM    H4F11015   2.962   5.689   8.970 -1.7608 -2.2879  0.0687
  107OSM    H4G11016   2.992   5.509   8.987 -0.1124 -0.9716 -0.1762
  107OSM    C5F11017   3.158   5.619   8.912 -0.5091 -0.1846  0.0699
  107OSM    H5F11018   3.220   5.531   8.940 -2.0223 -1.0552  0.8631
  107OSM    H5G11019   3.225   5.701   8.945 -1.0092 -0.2518  1.3320
  107OSM    C6F11020   3.121   5.610   8.763  0.1336  0.2460  0.7170
  107OSM    H6F11021   3.029   5.669   8.742 -1.8443 -1.6428  3.2768
  107OSM    H6G11022   3.093   5.504   8.744 -0.7274  0.6848 -0.5865
  107OSM    C7F11023   3.227   5.657   8.659 -0.3064 -0.2304 -0.3275
  107OSM    H7F11024   3.327   5.638   8.702 -0.8181 -3.8904 -0.3648
  107OSM    H7G11025   3.222   5.766   8.643  1.1912 -0.2135 -0.8587
  107OSM    C8F11026   3.222   5.588   8.523  0.2599 -0.2870  0.6095
  107OSM    H8F11027   3.226   5.480   8.546 -0.1880 -0.5381 -0.4251
  107OSM    H8G11028   3.309   5.614   8.459  0.1623 -1.4414 -0.0193
  107OSM    C9F11029   3.093   5.617   8.453  0.6758  0.0486  0.3999
  107OSM    H9F11030   3.008   5.571   8.506  0.0762  0.0315 -0.5303
  107OSM   C10F11031   3.060   5.676   8.341 -0.0723  0.1835  0.6326
  107OSM   H10F11032   2.956   5.700   8.314  0.1574  0.6730  0.1488
  107OSM   C11F11033   3.169   5.746   8.253 -0.0964  0.5100  0.7912
  107OSM   H11F11034   3.271   5.719   8.287  0.9854 -0.5467 -2.7623
  107OSM   H11G11035   3.142   5.853   8.256 -4.1325 -0.2535 -1.3303
  107OSM   C12F11036   3.167   5.690   8.108 -0.5102 -0.1425  0.3468
  107OSM   H12F11037   3.200   5.584   8.113  2.8448  0.7676  0.1562
  107OSM   H12G11038   3.257   5.739   8.065  0.0152 -2.3008 -1.1560
  107OSM   C13F11039   3.045   5.715   8.008  0.0067  0.5047 -0.0918
  107OSM   H13F11040   2.949   5.698   8.061  0.9089 -0.8175  1.2303
  107OSM   H13G11041   3.046   5.638   7.927 -0.4949 -0.6287  0.9427
  107OSM   C14F11042   3.031   5.858   7.952  0.2560  0.6744 -0.1662
  107OSM   H14F11043   3.052   5.928   8.036 -1.5805  1.8513 -0.6346
  107OSM   H14G11044   2.932   5.876   7.905  1.4569  0.5935 -2.9228
  107OSM   C15F11045   3.142   5.891   7.845  0.4752 -0.2562 -0.0936
  107OSM   H15F11046   3.142   5.798   7.784 -1.4716  0.0084 -0.5687
  107OSM   H15G11047   3.239   5.910   7.895  0.0480 -0.0247  0.6626
  107OSM   C16F11048   3.103   6.011   7.757  0.3516 -0.0756 -0.4974
  107OSM   H16F11049   3.109   6.093   7.831  1.1146 -0.6554  0.1024
  107OSM   H16G11050   2.997   6.006   7.726 -0.2577  2.8878  0.8035
  107OSM   C17F11051   3.194   6.027   7.635  0.0931 -0.1926 -0.6156
  107OSM   H17F11052   3.194   5.937   7.569 -0.1421  0.7322 -1.8968
  107OSM   H17G11053   3.300   6.042   7.665 -0.2215  2.8881 -0.7551
  107OSM   C18F11054   3.153   6.143   7.547 -0.4603 -0.5341 -0.1452
  107OSM   H18F11055   3.225   6.154   7.464 -1.0567  2.3330 -0.3887
  107OSM   H18G11056   3.150   6.242   7.599 -0.7973 -0.7705  0.2962
  107OSM   H18H11057   3.058   6.116   7.496 -0.2284 -2.3298  0.3038
  108OSM      N11058   0.955   2.706   9.962  0.3977  0.5521  0.3849
  108OSM    C1511059   0.914   2.564   9.935  0.3567  0.0571 -0.4699
  108OSM   H15A11060   0.881   2.551   9.832  1.6111 -1.6528 -0.6957
  108OSM   H15B11061   0.831   2.525   9.992 -0.1313  1.0193 -0.4835
  108OSM   H15C11062   1.003   2.508   9.956  1.3421  2.1530  1.3497
  108OSM    C1411063   1.026   2.764   9.840  0.3601  0.4656 -0.3672
  108OSM   H14A11064   1.104   2.699   9.802  0.4893  1.2956 -1.5719
  108OSM   H14B11065   1.066   2.863   9.858 -0.7148  0.7227  0.7271
  108OSM   H14C11066   0.950   2.782   9.766 -0.9725  0.0075  0.8470
  108OSM    C1311067   0.840   2.789   9.994 -0.6020  0.4273  0.8972
  108OSM   H13A11068   0.805   2.768  10.094  0.4149  0.2400  1.2292
  108OSM   H13B11069   0.758   2.785   9.924  1.4411  4.2843 -2.1034
  108OSM   H13C11070   0.866   2.894   9.992 -0.0784  0.3118 -1.3024
  108OSM    C1211071   1.044   2.719  10.078 -1.0170 -0.0370 -0.9801
  108OSM   H12A11072   0.988   2.703  10.169 -0.7062  0.3140 -0.7268
  108OSM   H12B11073   1.073   2.823  10.081 -1.2922  0.0484 -1.1992
  108OSM    C1111074   1.170   2.622  10.089 -1.2723  0.0520 -0.1290
  108OSM   H11A11075   1.144   2.514  10.091  4.1407 -1.5251  0.1804
  108OSM   H11B11076   1.216   2.620  10.190 -0.4090  0.3730 -0.5051
  108OSM      P11077   1.372   2.743  10.005 -0.3466  0.0036  0.1409
  108OSM    O1311078   1.311   2.875  10.029 -0.6045 -0.2014 -0.1632
  108OSM    O1411079   1.475   2.698  10.104 -0.0814  0.2496  0.3251
  108OSM    O1111080   1.430   2.745   9.858  0.1035  0.0391 -0.0769
  108OSM    O1211081   1.262   2.629   9.991 -0.6999  0.4232  0.3804
  108OSM    C1S11082   1.341   2.743   9.749  0.0136  0.2171 -0.4767
  108OSM    H1S11083   1.285   2.838   9.741  1.0988  0.8377 -0.8574
  108OSM    H1T11084   1.260   2.667   9.757  0.8616 -0.6322  0.3047
  108OSM     NF11085   1.310   2.722   9.505  0.7241 -0.4094 -0.3264
  108OSM    HNF11086   1.295   2.643   9.446 -2.0696 -0.0735 -0.2095
  108OSM    C2S11087   1.411   2.722   9.609 -0.3968  0.5294  0.0865
  108OSM    H2S11088   1.484   2.802   9.584 -0.2489  1.0299  1.9594
  108OSM    C3S11089   1.509   2.595   9.613  1.3179  0.3951 -1.2978
  108OSM    H3S11090   1.439   2.513   9.639  0.0137  1.3527 -1.6832
  108OSM     O311091   1.606   2.598   9.717 -0.4243  0.2992  0.2900
  108OSM    HO311092   1.589   2.676   9.770 -0.0660  0.3050  0.3969
  108OSM    C4S11093   1.567   2.573   9.482  0.5437 -0.0506 -0.4545
  108OSM    H4S11094   1.651   2.642   9.467  2.0075 -1.2224  1.7742
  108OSM    C5S11095   1.539   2.467   9.401 -0.1356  0.5585  0.0866
  108OSM    H5S11096   1.460   2.399   9.437  1.1724 -1.0729 -0.0206
  108OSM    C6S11097   1.594   2.454   9.261 -1.1284  0.5140  0.7948
  108OSM    H6S11098   1.680   2.515   9.227  0.2198 -1.9256 -0.4285
  108OSM    H6T11099   1.517   2.479   9.184 -0.4390  1.2740  0.3416
  108OSM    C7S11100   1.639   2.314   9.213 -0.6947  0.1254 -0.2664
  108OSM    H7S11101   1.554   2.244   9.198 -0.9994  0.3912  0.2162
  108OSM    H7T11102   1.711   2.265   9.282 -1.4109  0.4811  0.7570
  108OSM    C8S11103   1.717   2.328   9.079 -0.2207  0.6421  0.7367
  108OSM    H8S11104   1.802   2.399   9.085 -1.0791  1.6090  1.8157
  108OSM    H8T11105   1.647   2.366   9.001 -0.3772  1.1313  1.1120
  108OSM    C9S11106   1.748   2.189   9.001  0.0537 -0.2512  0.5963
  108OSM    H9S11107   1.650   2.138   8.986 -1.1111  1.8565  0.6739
  108OSM    H9T11108   1.813   2.122   9.061  0.7557  1.4681  1.8374
  108OSM   C10S11109   1.818   2.215   8.865  0.0200  0.2898  0.5066
  108OSM   H10S11110   1.921   2.246   8.894  0.2624 -0.7825  0.8584
  108OSM   H10T11111   1.766   2.291   8.802 -1.1318 -1.4336 -0.7178
  108OSM   C11S11112   1.823   2.089   8.774  0.0690  0.0602  0.1408
  108OSM   H11S11113   1.719   2.069   8.738  0.2061 -0.1775 -0.1315
  108OSM   H11T11114   1.855   1.998   8.829 -1.0831  0.7579  2.0668
  108OSM   C12S11115   1.920   2.099   8.645  0.4982  0.3086 -0.2375
  108OSM   H12S11116   1.931   2.001   8.593  3.4314  0.2290  0.3339
  108OSM   H12T11117   2.022   2.129   8.678  0.6312 -0.5861  0.1919
  108OSM   C13S11118   1.864   2.193   8.546 -0.1148  0.0231 -0.2257
  108OSM   H13S11119   1.938   2.206   8.464  1.5677 -0.3965  1.1681
  108OSM   H13T11120   1.851   2.295   8.588  0.1697 -0.8653  2.1828
  108OSM   C14S11121   1.728   2.138   8.490 -0.5171  0.1346  0.8223
  108OSM   H14S11122   1.647   2.148   8.566 -0.3317 -1.2890  1.2430
  108OSM   H14T11123   1.748   2.031   8.464  0.7994  1.3204 -4.0641
  108OSM   C15S11124   1.689   2.208   8.359 -0.1586  0.1940 -0.4486
  108OSM   H15S11125   1.785   2.230   8.306 -0.5463 -0.1824 -1.3268
  108OSM   H15T11126   1.651   2.304   8.400  1.0431  0.4113  0.2014
  108OSM   C16S11127   1.580   2.139   8.277  0.5085  0.1326 -0.0958
  108OSM   H16S11128   1.479   2.143   8.324 -0.2651  0.1580 -1.7165
  108OSM   H16T11129   1.606   2.033   8.254  1.4783  0.2173  0.5371
  108OSM   C17S11130   1.559   2.216   8.142 -0.1360 -0.3435  0.1879
  108OSM   H17S11131   1.563   2.326   8.155  5.6295  0.1170 -2.4601
  108OSM   H17T11132   1.462   2.183   8.100  0.1417 -0.9350 -0.0005
  108OSM   C18S11133   1.669   2.184   8.040  0.4070  0.7663  0.0805
  108OSM   H18S11134   1.647   2.242   7.948 -0.1027 -0.3685 -0.5407
  108OSM   H18T11135   1.669   2.076   8.012 -1.7378  1.3441 -2.6402
  108OSM   H18U11136   1.772   2.206   8.075  1.5112 -0.4012 -2.1929
  108OSM    C1F11137   1.229   2.825   9.483 -0.5938  0.1035 -0.5012
  108OSM     OF11138   1.261   2.934   9.527 -0.2908  0.0181 -0.1285
  108OSM    C2F11139   1.118   2.803   9.395 -1.0367  0.0905 -0.6029
  108OSM    H2F11140   1.058   2.716   9.429 -1.5642  0.7493  0.1978
  108OSM    H2G11141   1.155   2.773   9.294 -2.8244  0.3213 -1.3673
  108OSM    C3F11142   1.024   2.923   9.373 -0.4638  0.6421 -0.5921
  108OSM    H3F11143   1.072   3.020   9.349  1.1841  0.0455  0.1679
  108OSM    H3G11144   0.958   2.941   9.461  0.5426 -1.9158  0.8017
  108OSM    C4F11145   0.927   2.895   9.252  0.5431  0.5163 -0.4177
  108OSM    H4F11146   0.859   2.983   9.245  0.6790  0.6111 -0.5719
  108OSM    H4G11147   0.866   2.804   9.269 -0.1022  0.7207 -1.5427
  108OSM    C5F11148   1.004   2.868   9.124 -0.1587  0.4088 -0.7296
  108OSM    H5F11149   1.041   2.765   9.141  1.2473  0.8171 -1.2007
  108OSM    H5G11150   1.100   2.920   9.104  0.4058 -0.0096  0.7411
  108OSM    C6F11151   0.911   2.865   9.003 -0.2816  0.6851  0.2161
  108OSM    H6F11152   0.871   2.966   8.981  0.4716  0.6055 -1.6717
  108OSM    H6G11153   0.823   2.802   9.026 -1.3105  1.9724 -0.0825
  108OSM    C7F11154   0.982   2.810   8.873 -0.6465 -0.9747 -0.9203
  108OSM    H7F11155   1.043   2.721   8.900  0.0000 -0.3209 -0.1742
  108OSM    H7G11156   1.053   2.884   8.829  0.0962 -0.5334  0.9169
  108OSM    C8F11157   0.890   2.786   8.756  0.5341 -0.5369  0.8103
  108OSM    H8F11158   0.856   2.885   8.720 -0.2412 -1.8703 -2.5551
  108OSM    H8G11159   0.798   2.728   8.782 -0.4267 -0.1778 -1.5162
  108OSM    C9F11160   0.952   2.702   8.646  0.9210 -0.7112 -1.2353
  108OSM    H9F11161   0.951   2.593   8.665  0.9394 -1.0375 -3.0022
  108OSM   C10F11162   1.011   2.753   8.537 -0.4018  0.2594  0.0679
  108OSM   H10F11163   1.053   2.676   8.470 -1.3878 -1.1874  1.0304
  108OSM   C11F11164   1.030   2.885   8.483 -0.0450 -0.6017 -0.0845
  108OSM   H11F11165   1.137   2.916   8.489  0.1531 -1.4753  2.0067
  108OSM   H11G11166   0.972   2.966   8.533  1.3761 -0.4088  1.3501
  108OSM   C12F11167   1.002   2.876   8.332  0.3364 -0.6830  1.1827
  108OSM   H12F11168   0.898   2.845   8.309  0.5919  0.2205 -1.5433
  108OSM   H12G11169   1.069   2.813   8.271  2.0336  1.1730  1.0465
  108OSM   C13F11170   1.011   3.017   8.265  0.1285 -0.4921  0.5533
  108OSM   H13F11171   1.113   3.060   8.277 -0.0552 -0.1659  0.9572
  108OSM   H13G11172   0.950   3.082   8.331  3.3115  0.1809  3.1007
  108OSM   C14F11173   0.947   3.025   8.127 -0.5297 -0.0790 -0.1798
  108OSM   H14F11174   0.918   3.129   8.098  0.1854  0.0910 -0.3219
  108OSM   H14G11175   0.849   2.974   8.138  0.2213 -1.4533  0.3421
  108OSM   C15F11176   1.011   2.953   8.010 -0.2497 -0.2124  0.3634
  108OSM   H15F11177   0.969   2.987   7.913  1.0399  1.3096  0.3103
  108OSM   H15G11178   1.002   2.843   8.028  0.4821 -0.1520  1.1616
  108OSM   C16F11179   1.166   2.980   8.006 -0.2094 -0.2913  0.3114
  108OSM   H16F11180   1.213   2.906   8.074 -0.1270 -1.0687 -0.5690
  108OSM   H16G11181   1.178   3.086   8.037 -1.5378  0.3090 -1.0588
  108OSM   C17F11182   1.229   2.958   7.875  0.3210  0.5092  0.2070
  108OSM   H17F11183   1.338   2.934   7.883  0.2150  0.3992  1.4632
  108OSM   H17G11184   1.215   3.051   7.817 -2.2477 -0.6453 -1.1605
  108OSM   C18F11185   1.169   2.842   7.784  0.5209 -0.3031  0.1594
  108OSM   H18F11186   1.236   2.813   7.700  2.1725 -1.8925  1.9101
  108OSM   H18G11187   1.077   2.882   7.736  1.0851  1.6770  0.6463
  108OSM   H18H11188   1.146   2.753   7.847  1.7909 -1.3841 -0.8141
  109OSM      N11189   0.907   4.280  10.143 -0.3685 -0.1477 -0.7586
  109OSM    C1511190   1.038   4.352  10.179 -0.2418  0.2136 -0.2842
  109OSM   H15A11191   1.058   4.346  10.285  2.9707 -2.2133 -0.8740
  109OSM   H15B11192   1.021   4.456  10.155 -0.0488  0.3162  0.0202
  109OSM   H15C11193   1.116   4.311  10.117 -1.4075 -2.2674 -0.2597
  109OSM    C1411194   0.919   4.138  10.196  0.5769 -0.4085  0.4293
  109OSM   H14A11195   1.018   4.101  10.171  1.2354  0.7607  1.1746
  109OSM   H14B11196   0.845   4.067  10.164  0.3151 -1.3769  2.8962
  109OSM   H14C11197   0.908   4.135  10.304  1.6029 -1.3743  0.5312
  109OSM    C1311198   0.787   4.347  10.205 -0.0335  0.0718 -0.0956
  109OSM   H13A11199   0.751   4.424  10.139 -0.9713 -0.5097 -0.2833
  109OSM   H13B11200   0.814   4.394  10.298  1.7711 -1.8506  0.4269
  109OSM   H13C11201   0.712   4.278  10.239  0.5309  0.8522  3.0568
  109OSM    C1211202   0.894   4.281   9.994  0.0064  0.8301 -0.9301
  109OSM   H12A11203   0.884   4.386   9.969  0.6224  1.1288  0.0491
  109OSM   H12B11204   0.800   4.236   9.967  1.0419 -1.2671 -1.2102
  109OSM    C1111205   1.006   4.203   9.908  0.6504  0.7713  0.2417
  109OSM   H11A11206   0.975   4.187   9.803  2.2021 -1.5314  0.0714
  109OSM   H11B11207   1.023   4.100   9.946  0.4269  0.7822  0.3718
  109OSM      P11208   1.153   4.412   9.852 -0.2368  0.1433 -0.0482
  109OSM    O1311209   1.029   4.476   9.810 -0.6134  0.2218 -0.1999
  109OSM    O1411210   1.243   4.501   9.930  0.0031  0.2394 -0.5067
  109OSM    O1111211   1.239   4.367   9.722  0.8405  0.6450 -0.0825
  109OSM    O1211212   1.129   4.277   9.925  0.1201  0.4414 -0.2892
  109OSM    C1S11213   1.266   4.231   9.680  0.1115 -0.2105 -0.0909
  109OSM    H1S11214   1.176   4.169   9.699 -0.5277  0.1762 -1.7004
  109OSM    H1T11215   1.351   4.188   9.738  0.5721  1.6565  0.6639
  109OSM     NF11216   1.318   4.086   9.493  0.0155  0.9954 -1.1655
  109OSM    HNF11217   1.409   4.046   9.497 -0.1583  0.6759  0.2127
  109OSM    C2S11218   1.303   4.224   9.524 -0.0324  0.8747 -0.1865
  109OSM    H2S11219   1.214   4.259   9.468 -1.3600  2.1193  2.5020
  109OSM    C3S11220   1.433   4.301   9.501  0.3895  0.5478 -0.2602
  109OSM    H3S11221   1.510   4.254   9.567 -0.5475  1.3341  1.4773
  109OSM     O311222   1.434   4.431   9.559  0.6423 -0.2134 -0.3448
  109OSM    HO311223   1.352   4.431   9.610  1.9143 -0.9969  1.8632
  109OSM    C4S11224   1.477   4.315   9.354 -0.4018 -1.3031  0.7597
  109OSM    H4S11225   1.547   4.235   9.325 -0.9467 -1.9276  1.1281
  109OSM    C5S11226   1.460   4.413   9.266  0.9480  0.0201  0.1986
  109OSM    H5S11227   1.403   4.505   9.284  0.3177  0.0220 -1.5593
  109OSM    C6S11228   1.511   4.414   9.119 -0.1011 -0.3237  0.2820
  109OSM    H6S11229   1.611   4.462   9.125 -0.3379  0.3850 -0.9793
  109OSM    H6T11230   1.447   4.476   9.052  0.7471  0.2286 -0.0429
  109OSM    C7S11231   1.523   4.279   9.044 -0.0168 -0.1054 -0.7625
  109OSM    H7S11232   1.423   4.231   9.055  0.4634 -0.7095  1.3194
  109OSM    H7T11233   1.601   4.217   9.093 -0.5231  0.6476  1.0565
  109OSM    C8S11234   1.554   4.301   8.898  0.1127  0.2262 -0.1724
  109OSM    H8S11235   1.655   4.347   8.884  0.1687  1.6348  3.6131
  109OSM    H8T11236   1.494   4.392   8.876  0.3229  0.5191  0.4434
  109OSM    C9S11237   1.535   4.188   8.799  0.3442 -0.6538  0.1562
  109OSM    H9S11238   1.439   4.135   8.814 -0.5152  0.9542  0.6484
  109OSM    H9T11239   1.613   4.118   8.836  0.5828 -0.2141  0.5003
  109OSM   C10S11240   1.563   4.225   8.658 -0.2223  0.4949  0.4467
  109OSM   H10S11241   1.645   4.300   8.657 -1.5996  2.0669 -1.3901
  109OSM   H10T11242   1.475   4.279   8.617  0.5196  2.1413  0.9380
  109OSM   C11S11243   1.586   4.106   8.558  0.2808  0.5084  0.2319
  109OSM   H11S11244   1.489   4.054   8.547 -1.1164  2.6188  1.6401
  109OSM   H11T11245   1.654   4.032   8.605  1.4009  2.0915  1.2448
  109OSM   C12S11246   1.627   4.153   8.415  0.7044  0.2576  0.3356
  109OSM   H12S11247   1.709   4.226   8.428  1.8155 -0.7701 -0.6032
  109OSM   H12T11248   1.538   4.208   8.376  0.0115 -0.0380  1.4762
  109OSM   C13S11249   1.660   4.035   8.325  0.3987  0.2733  0.8194
  109OSM   H13S11250   1.587   3.952   8.329  0.2873 -0.0133 -3.4283
  109OSM   H13T11251   1.762   4.000   8.353  0.5832  1.7752  2.1887
  109OSM   C14S11252   1.665   4.085   8.175  0.3431 -0.0456 -0.0072
  109OSM   H14S11253   1.569   4.132   8.147  0.5394  1.0995  1.1383
  109OSM   H14T11254   1.674   3.995   8.110  0.9592  0.4386 -0.5991
  109OSM   C15S11255   1.787   4.170   8.144 -0.2741  0.3314 -0.5299
  109OSM   H15S11256   1.887   4.129   8.167 -0.1013 -0.4083 -2.4415
  109OSM   H15T11257   1.772   4.265   8.200 -0.5061  0.7502 -1.2822
  109OSM   C16S11258   1.799   4.205   7.997  0.0476 -0.0744 -0.4934
  109OSM   H16S11259   1.705   4.257   7.969 -0.4365 -0.4157  0.4516
  109OSM   H16T11260   1.790   4.111   7.938  1.6243 -0.3819 -0.2863
  109OSM   C17S11261   1.923   4.280   7.946 -0.9099  0.5328 -0.3131
  109OSM   H17S11262   2.019   4.225   7.956 -1.4570 -0.9821 -2.6639
  109OSM   H17T11263   1.938   4.378   7.997 -1.4598 -0.1561  1.2315
  109OSM   C18S11264   1.916   4.292   7.797  0.8132 -0.6328 -0.0421
  109OSM   H18S11265   1.818   4.342   7.783  1.7704  1.0787 -0.8700
  109OSM   H18T11266   1.918   4.196   7.742 -2.1508 -1.0742  0.4476
  109OSM   H18U11267   1.992   4.366   7.765  0.7408 -0.0844  0.9968
  109OSM    C1F11268   1.216   4.000   9.471 -0.1357  0.5477 -0.2777
  109OSM     OF11269   1.098   4.027   9.503 -0.2578  0.4866  0.3232
  109OSM    C2F11270   1.267   3.866   9.426 -0.0730  0.8322 -0.1734
  109OSM    H2F11271   1.270   3.795   9.512 -1.8885  0.8720 -0.0304
  109OSM    H2G11272   1.370   3.874   9.387 -0.1106  1.2271 -0.1926
  109OSM    C3F11273   1.184   3.813   9.312  0.3514 -0.4625  0.1715
  109OSM    H3F11274   1.077   3.809   9.340  0.5121 -0.0717  0.8958
  109OSM    H3G11275   1.223   3.710   9.296 -0.6197 -1.0265  1.3229
  109OSM    C4F11276   1.183   3.893   9.181  0.2925 -0.1053  1.2818
  109OSM    H4F11277   1.263   3.970   9.173 -1.1644  1.3829  0.4990
  109OSM    H4G11278   1.089   3.948   9.160 -0.8018 -1.7057  1.7736
  109OSM    C5F11279   1.181   3.796   9.063  0.2692  0.2931  0.0242
  109OSM    H5F11280   1.091   3.735   9.086 -0.0890  0.8804  0.1851
  109OSM    H5G11281   1.278   3.743   9.071  0.2049 -0.2853 -2.2513
  109OSM    C6F11282   1.169   3.845   8.922 -0.5646  0.0775  0.9130
  109OSM    H6F11283   1.230   3.936   8.900  0.8216 -1.1028 -0.4185
  109OSM    H6G11284   1.063   3.865   8.896 -0.8579 -0.8635  1.3742
  109OSM    C7F11285   1.215   3.732   8.824  0.5519 -0.5245 -1.1389
  109OSM    H7F11286   1.160   3.637   8.837  2.8631 -1.6295  1.8783
  109OSM    H7G11287   1.322   3.714   8.851  0.2770 -0.0027  0.3801
  109OSM    C8F11288   1.208   3.793   8.680  0.5195  0.4779 -0.1811
  109OSM    H8F11289   1.283   3.874   8.692 -0.1933  0.9113  1.6625
  109OSM    H8G11290   1.114   3.848   8.659  0.4595  0.1901 -0.6993
  109OSM    C9F11291   1.259   3.703   8.568 -0.7962 -0.0732  0.7463
  109OSM    H9F11292   1.344   3.636   8.585  0.9229  1.1019 -2.3361
  109OSM   C10F11293   1.222   3.713   8.436  0.2060  0.2628 -0.7093
  109OSM   H10F11294   1.277   3.655   8.360 -1.1929 -0.9715 -0.8238
  109OSM   C11F11295   1.114   3.803   8.388  0.1816 -0.1863 -0.3334
  109OSM   H11F11296   1.045   3.822   8.473  0.8649 -2.2333  0.7508
  109OSM   H11G11297   1.056   3.750   8.309 -0.4392 -0.3403  0.2148
  109OSM   C12F11298   1.181   3.930   8.343 -0.4218  0.4358 -0.3995
  109OSM   H12F11299   1.247   3.974   8.421 -0.4592  0.8013 -0.5757
  109OSM   H12G11300   1.102   4.006   8.329 -0.6429  0.7666  2.2209
  109OSM   C13F11301   1.270   3.915   8.215  0.1327 -0.4034  0.0035
  109OSM   H13F11302   1.335   3.824   8.219  0.5012 -0.1179  0.6587
  109OSM   H13G11303   1.337   4.003   8.214  0.1739 -0.3683  1.8313
  109OSM   C14F11304   1.185   3.911   8.085 -0.3301 -0.0042  0.2984
  109OSM   H14F11305   1.107   3.989   8.094  0.6994  0.9224  1.5972
  109OSM   H14G11306   1.136   3.811   8.077  0.0148 -0.1282 -0.4007
  109OSM   C15F11307   1.251   3.940   7.949  0.0884  0.0808  0.4951
  109OSM   H15F11308   1.263   4.046   7.920  1.0796 -0.4097 -0.9933
  109OSM   H15G11309   1.175   3.908   7.874 -0.3107 -0.0073  0.9263
  109OSM   C16F11310   1.384   3.866   7.934  0.5839  0.4149 -0.4008
  109OSM   H16F11311   1.371   3.758   7.955 -0.2342  0.8806  1.7811
  109OSM   H16G11312   1.464   3.907   7.999  1.5149  0.6435 -1.6488
  109OSM   C17F11313   1.445   3.896   7.792 -0.2531 -0.2686 -1.0660
  109OSM   H17F11314   1.378   3.846   7.718 -0.3243 -0.7028 -0.7165
  109OSM   H17G11315   1.537   3.835   7.781  0.7430  1.1041 -0.5434
  109OSM   C18F11316   1.487   4.039   7.769 -0.0868  0.2981  0.6419
  109OSM   H18F11317   1.575   4.061   7.833  0.8139 -0.6117 -0.2442
  109OSM   H18G11318   1.404   4.110   7.788 -0.4460 -0.7710  3.5785
  109OSM   H18H11319   1.512   4.042   7.661 -1.7112  1.8096  0.2602
  110OSM      N11320   2.120   4.340   9.903 -0.8964 -0.3824  0.4843
  110OSM    C1511321   2.192   4.303  10.021 -0.0983  0.3207  0.8590
  110OSM   H15A11322   2.162   4.207  10.061  0.7982  0.6475  2.4100
  110OSM   H15B11323   2.189   4.377  10.100 -0.5800 -0.0075  1.1581
  110OSM   H15C11324   2.296   4.297   9.995  0.0008  1.8158  0.8326
  110OSM    C1411325   2.160   4.481   9.873 -0.1133 -0.3772  0.4694
  110OSM   H14A11326   2.136   4.549   9.953  0.7351  0.1916  0.2590
  110OSM   H14B11327   2.102   4.500   9.784 -1.1729 -1.5379  0.8771
  110OSM   H14C11328   2.264   4.487   9.844 -0.0890 -0.7988  0.4556
  110OSM    C1311329   2.168   4.248   9.795 -0.5143 -0.6086 -0.3497
  110OSM   H13A11330   2.276   4.252   9.791 -0.4604  2.6578  0.6160
  110OSM   H13B11331   2.127   4.276   9.699 -1.0523  2.0467  0.5461
  110OSM   H13C11332   2.144   4.145   9.813 -1.0028 -0.3389  0.6616
  110OSM    C1211333   1.965   4.330   9.923 -0.0079  0.4196 -0.3024
  110OSM   H12A11334   1.941   4.228   9.949 -0.6150  0.9432  1.3685
  110OSM   H12B11335   1.927   4.346   9.824 -1.9898  1.7221  0.5894
  110OSM    C1111336   1.896   4.430  10.016 -0.3557 -0.4464 -0.2885
  110OSM   H11A11337   1.950   4.437  10.113  1.7642 -0.4740 -1.4235
  110OSM   H11B11338   1.789   4.407  10.039 -1.0922  0.9516 -2.1084
  110OSM      P11339   1.800   4.605   9.841  0.6233  0.0225 -0.2743
  110OSM    O1311340   1.844   4.522   9.726 -0.4985  0.1415 -0.1378
  110OSM    O1411341   1.660   4.588   9.885  0.3752 -0.2141  0.3886
  110OSM    O1111342   1.822   4.755   9.801 -0.5273  0.4356 -0.3767
  110OSM    O1211343   1.895   4.572   9.962  0.6356 -0.3003  0.0571
  110OSM    C1S11344   1.936   4.809   9.736 -0.4284 -0.2197  0.3702
  110OSM    H1S11345   2.020   4.739   9.757 -0.1633  0.5958  2.1798
  110OSM    H1T11346   1.947   4.914   9.769  0.7656  0.4617 -1.9177
  110OSM     NF11347   2.058   4.840   9.520  0.4748  0.0997  0.4180
  110OSM    HNF11348   2.077   4.935   9.497  0.7317 -0.2687 -1.0610
  110OSM    C2S11349   1.933   4.808   9.577 -0.0489 -0.4807  0.2850
  110OSM    H2S11350   1.900   4.707   9.545 -0.1099  0.3389 -2.4796
  110OSM    C3S11351   1.821   4.904   9.538  0.4938  0.3314  0.4610
  110OSM    H3S11352   1.865   5.004   9.562  1.4315  0.2543 -0.8038
  110OSM     O311353   1.705   4.884   9.612 -0.2793  0.1333 -0.5989
  110OSM    HO311354   1.731   4.821   9.680 -0.3940 -0.0312 -0.7056
  110OSM    C4S11355   1.787   4.907   9.390 -0.0203 -0.9437 -0.7263
  110OSM    H4S11356   1.858   4.962   9.326 -0.3827  0.7790  0.2810
  110OSM    C5S11357   1.691   4.855   9.322  0.6783  0.4324 -0.4421
  110OSM    H5S11358   1.607   4.801   9.369  1.7331  0.1578  1.1848
  110OSM    C6S11359   1.678   4.880   9.170 -0.3773 -0.1468 -0.2106
  110OSM    H6S11360   1.761   4.943   9.131 -0.1720 -2.1247 -3.2739
  110OSM    H6T11361   1.581   4.925   9.140  0.2297  1.8962  0.6787
  110OSM    C7S11362   1.693   4.752   9.096 -0.3660  0.8571 -0.2296
  110OSM    H7S11363   1.605   4.688   9.115 -0.0297  0.0462 -1.2988
  110OSM    H7T11364   1.785   4.700   9.131 -2.1649 -1.7677  0.9029
  110OSM    C8S11365   1.703   4.769   8.943 -0.5794 -0.0124  0.0758
  110OSM    H8S11366   1.746   4.676   8.899  2.9033  2.4000 -2.0954
  110OSM    H8T11367   1.767   4.858   8.925  0.0978 -0.1277  1.7940
  110OSM    C9S11368   1.567   4.788   8.864  0.1198  0.2663 -0.2858
  110OSM    H9S11369   1.526   4.890   8.881  0.8463  0.7118 -1.1184
  110OSM    H9T11370   1.501   4.708   8.904  0.2823  0.1274 -0.2932
  110OSM   C10S11371   1.570   4.775   8.713 -0.5840 -1.0568  0.0121
  110OSM   H10S11372   1.657   4.827   8.667 -1.1562  2.5581  2.6035
  110OSM   H10T11373   1.480   4.825   8.671  0.6608 -0.1008 -1.6626
  110OSM   C11S11374   1.579   4.636   8.651 -0.3197 -0.1030  0.6996
  110OSM   H11S11375   1.491   4.576   8.682 -0.1909 -0.8169 -0.2498
  110OSM   H11T11376   1.674   4.587   8.682 -0.5470  0.4456  2.3339
  110OSM   C12S11377   1.565   4.646   8.497 -0.2070 -0.1244 -0.4648
  110OSM   H12S11378   1.645   4.714   8.458 -1.0606  1.8968  1.1486
  110OSM   H12T11379   1.473   4.707   8.492 -1.2468 -1.6339 -0.3249
  110OSM   C13S11380   1.552   4.516   8.423  0.0273  0.2955  0.7115
  110OSM   H13S11381   1.464   4.454   8.451  0.0034 -0.0390 -0.0792
  110OSM   H13T11382   1.641   4.453   8.446 -0.0265 -1.7120 -3.5376
  110OSM   C14S11383   1.573   4.545   8.274  0.4224 -0.1494 -0.2778
  110OSM   H14S11384   1.653   4.478   8.234 -0.6999 -0.6711 -1.7417
  110OSM   H14T11385   1.610   4.647   8.253 -3.8596  2.7481  4.1239
  110OSM   C15S11386   1.443   4.531   8.189 -0.1950  0.4486  0.2091
  110OSM   H15S11387   1.372   4.606   8.228 -0.2423 -0.2264  1.4824
  110OSM   H15T11388   1.401   4.429   8.202 -0.2225  0.5814  1.2608
  110OSM   C16S11389   1.462   4.558   8.037 -0.0391 -0.4294  0.1093
  110OSM   H16S11390   1.562   4.517   8.010 -0.0045  0.6073 -1.4821
  110OSM   H16T11391   1.457   4.668   8.024 -2.5747 -0.6568 -1.5531
  110OSM   C17S11392   1.353   4.493   7.949 -0.1904 -0.5222  0.5289
  110OSM   H17S11393   1.370   4.524   7.844  1.2527 -1.6700  0.3803
  110OSM   H17T11394   1.257   4.533   7.988 -1.5297 -1.4937 -1.6044
  110OSM   C18S11395   1.352   4.342   7.935 -0.7644  0.8189  0.4508
  110OSM   H18S11396   1.272   4.312   7.863 -0.7367  0.7710  0.4399
  110OSM   H18T11397   1.340   4.289   8.032  1.6021  0.5623  0.6572
  110OSM   H18U11398   1.453   4.310   7.902 -0.8474 -0.1140  1.0525
  110OSM    C1F11399   2.165   4.758   9.523  0.3241  0.6971 -0.1120
  110OSM     OF11400   2.169   4.656   9.588  0.2746  0.1082  0.5990
  110OSM    C2F11401   2.279   4.805   9.443 -0.2406 -0.0004 -0.0373
  110OSM    H2F11402   2.355   4.845   9.513 -0.2436 -1.8710  1.1060
  110OSM    H2G11403   2.240   4.891   9.383 -0.4028 -0.0025  0.0643
  110OSM    C3F11404   2.340   4.698   9.352  0.1234 -0.2449 -0.0156
  110OSM    H3F11405   2.370   4.605   9.404 -0.2482  0.5154  1.6157
  110OSM    H3G11406   2.434   4.737   9.307  0.0147 -0.5622 -0.5213
  110OSM    C4F11407   2.251   4.636   9.241 -0.4208 -0.0445 -0.1031
  110OSM    H4F11408   2.159   4.592   9.286 -0.5785 -1.5422 -1.7623
  110OSM    H4G11409   2.303   4.550   9.194  1.1023 -0.8738  2.8726
  110OSM    C5F11410   2.212   4.736   9.132 -1.0504  0.7488 -0.2201
  110OSM    H5F11411   2.297   4.799   9.096 -0.4564  0.6392  0.9523
  110OSM    H5G11412   2.139   4.807   9.175  3.2882  4.2906  2.1312
  110OSM    C6F11413   2.152   4.664   9.008  0.2283  0.1219 -0.1422
  110OSM    H6F11414   2.072   4.594   9.041 -0.5543  0.9882 -0.1748
  110OSM    H6G11415   2.237   4.599   8.977 -0.9013 -1.6355  0.2755
  110OSM    C7F11416   2.107   4.755   8.900 -0.0634 -0.4432 -1.3067
  110OSM    H7F11417   2.180   4.835   8.875  2.0636 -0.9368  2.5899
  110OSM    H7G11418   2.017   4.800   8.946  0.5281 -1.8251  1.3832
  110OSM    C8F11419   2.050   4.694   8.777  0.4723 -1.2687 -0.6177
  110OSM    H8F11420   1.956   4.646   8.812  0.9628 -0.4056  2.1441
  110OSM    H8G11421   2.114   4.609   8.746 -1.4968 -3.9405  2.0024
  110OSM    C9F11422   2.016   4.797   8.679  0.0425 -0.0796  0.1974
  110OSM    H9F11423   1.986   4.899   8.708  2.2080  0.6780 -0.0281
  110OSM   C10F11424   2.028   4.779   8.548 -0.4102 -0.1402  0.1323
  110OSM   H10F11425   1.989   4.860   8.486 -0.6680 -1.5882 -1.6866
  110OSM   C11F11426   2.059   4.655   8.467  0.3365 -0.1314 -0.3390
  110OSM   H11F11427   2.078   4.572   8.539 -2.0501  1.1068  1.9016
  110OSM   H11G11428   2.157   4.669   8.416  0.2272  1.8278 -0.0747
  110OSM   C12F11429   1.948   4.607   8.370  0.0904 -0.4497 -0.7364
  110OSM   H12F11430   1.846   4.623   8.411 -0.2185 -1.8889 -0.8844
  110OSM   H12G11431   1.972   4.502   8.343  0.4429 -0.7777  0.7647
  110OSM   C13F11432   1.946   4.671   8.229 -0.2764  0.1860  0.0201
  110OSM   H13F11433   1.941   4.781   8.242  0.6942  0.4725 -1.8230
  110OSM   H13G11434   1.862   4.632   8.168  0.6597 -2.0941  0.1058
  110OSM   C14F11435   2.075   4.653   8.151  0.1659 -0.1475  0.2684
  110OSM   H14F11436   2.084   4.543   8.133 -2.2802  0.1410 -3.9493
  110OSM   H14G11437   2.159   4.687   8.215 -0.6057  1.6157  0.3927
  110OSM   C15F11438   2.076   4.721   8.021  0.4150 -0.0430 -0.2325
  110OSM   H15F11439   2.092   4.829   8.043  0.5459 -0.4054  1.5588
  110OSM   H15G11440   1.978   4.729   7.969  0.8189  1.1564 -0.8571
  110OSM   C16F11441   2.189   4.661   7.940 -0.1236 -0.2549  0.7196
  110OSM   H16F11442   2.181   4.550   7.941  1.4221 -0.4134 -0.4101
  110OSM   H16G11443   2.289   4.679   7.986 -1.0466 -1.4268  3.3909
  110OSM   C17F11444   2.194   4.702   7.789  0.0598 -0.7894 -0.3167
  110OSM   H17F11445   2.206   4.812   7.782  0.1550 -0.9012 -2.6287
  110OSM   H17G11446   2.100   4.680   7.736 -0.6898  0.4019  0.4583
  110OSM   C18F11447   2.314   4.641   7.724 -0.0245  0.7444  0.1935
  110OSM   H18F11448   2.326   4.656   7.615  1.3364 -0.8987  0.0948
  110OSM   H18G11449   2.306   4.531   7.737 -1.8945  0.8771  0.5542
  110OSM   H18H11450   2.414   4.655   7.770  0.7329 -3.0232 -0.0536
  111OSM      N11451   4.312   1.476   9.838 -0.0890  0.1674 -0.6040
  111OSM    C1511452   4.443   1.414   9.864  0.1959 -0.0934  0.1960
  111OSM   H15A11453   4.487   1.441   9.959  2.4879 -0.2662 -0.7644
  111OSM   H15B11454   4.511   1.419   9.781  2.1207 -0.2082  1.6978
  111OSM   H15C11455   4.430   1.307   9.871  3.3912 -0.6238 -0.5286
  111OSM    C1411456   4.224   1.450   9.953 -0.8013  1.6245 -0.3133
  111OSM   H14A11457   4.202   1.345   9.950 -0.3522  1.5421 -1.6389
  111OSM   H14B11458   4.137   1.513   9.951 -0.1494  2.7191  2.0824
  111OSM   H14C11459   4.277   1.473  10.044 -2.4716 -0.6081  1.3145
  111OSM    C1311460   4.332   1.617   9.826  0.2134 -0.1293 -0.0298
  111OSM   H13A11461   4.412   1.642   9.758 -0.7755 -0.8247 -1.5213
  111OSM   H13B11462   4.348   1.652   9.926 -0.2989 -0.3330  0.1280
  111OSM   H13C11463   4.235   1.655   9.797  0.5603  0.0392 -1.0118
  111OSM    C1211464   4.240   1.422   9.717 -0.0105 -0.0055 -0.5339
  111OSM   H12A11465   4.267   1.483   9.632 -2.0454  2.3371  0.3877
  111OSM   H12B11466   4.135   1.441   9.731  0.5470  1.0347  3.4630
  111OSM    C1111467   4.263   1.278   9.688  0.4913  0.3925  0.1144
  111OSM   H11A11468   4.368   1.264   9.652  0.2807  2.0978 -1.2660
  111OSM   H11B11469   4.208   1.242   9.599  4.1539 -0.4103 -2.0452
  111OSM      P11470   4.203   1.039   9.803 -0.1581 -0.5180  0.4844
  111OSM    O1311471   4.322   0.965   9.760 -0.2004  0.3530  0.5215
  111OSM    O1411472   4.142   0.988   9.928 -0.5074 -0.2340  0.0875
  111OSM    O1111473   4.104   1.029   9.680  0.2887 -0.2925  0.2711
  111OSM    O1211474   4.234   1.194   9.805  0.0232  0.4426 -0.5449
  111OSM    C1S11475   3.977   1.093   9.672 -0.4413  0.0618  0.1798
  111OSM    H1S11476   3.984   1.199   9.705 -0.0593  0.1753 -0.2509
  111OSM    H1T11477   3.902   1.048   9.740 -1.6283  2.2760  0.4502
  111OSM     NF11478   3.821   1.212   9.518  0.0418 -0.7183  0.3630
  111OSM    HNF11479   3.726   1.179   9.516 -0.3035  0.2493  0.2189
  111OSM    C2S11480   3.921   1.107   9.528 -0.5406 -0.4213 -0.2277
  111OSM    H2S11481   3.999   1.144   9.459  0.2582  1.1707  1.4476
  111OSM    C3S11482   3.878   0.970   9.482  0.4009  0.1470 -0.1395
  111OSM    H3S11483   3.793   0.926   9.539  0.4734  0.7736  0.4649
  111OSM     O311484   3.980   0.870   9.499  0.5635  0.3682  0.0859
  111OSM    HO311485   4.039   0.908   9.565  0.9032 -0.2527  0.1390
  111OSM    C4S11486   3.834   0.971   9.334 -0.1356  0.0940 -0.6076
  111OSM    H4S11487   3.732   1.011   9.317  0.2086  1.2090 -0.1879
  111OSM    C5S11488   3.899   0.931   9.224  0.6502 -0.1255  0.1875
  111OSM    H5S11489   3.992   0.874   9.238  0.0503 -0.8688  1.3262
  111OSM    C6S11490   3.845   0.955   9.080 -0.1160 -0.0641  0.4991
  111OSM    H6S11491   3.763   1.030   9.091 -0.6989 -0.3697 -1.3340
  111OSM    H6T11492   3.794   0.860   9.052 -0.0224  0.0379 -0.0241
  111OSM    C7S11493   3.947   0.984   8.964  0.3713  0.0689 -0.1687
  111OSM    H7S11494   4.000   0.889   8.941 -0.4956 -0.2123 -1.0551
  111OSM    H7T11495   4.031   1.051   8.992  0.1841  0.8525 -1.4097
  111OSM    C8S11496   3.867   1.024   8.845 -0.3449  0.1476 -0.3571
  111OSM    H8S11497   3.807   1.109   8.886 -0.5518 -0.6986  1.1546
  111OSM    H8T11498   3.795   0.942   8.828  0.4129 -0.3862 -1.0419
  111OSM    C9S11499   3.944   1.054   8.717 -0.2322  0.2064 -0.1806
  111OSM    H9S11500   3.972   0.953   8.680  1.7670  0.3489  0.8145
  111OSM    H9T11501   4.035   1.111   8.743 -0.0163  0.6607 -1.8301
  111OSM   C10S11502   3.869   1.116   8.599  0.3854 -0.2129  0.6083
  111OSM   H10S11503   3.862   1.227   8.608  0.1421 -0.2586  1.0441
  111OSM   H10T11504   3.763   1.082   8.603  0.1599  0.4210  0.1899
  111OSM   C11S11505   3.927   1.085   8.457 -0.7374  0.7281  0.8130
  111OSM   H11S11506   3.916   0.975   8.440  0.0599  0.7735 -0.1017
  111OSM   H11T11507   4.037   1.102   8.461 -0.7876  0.9765  1.1370
  111OSM   C12S11508   3.884   1.165   8.337  0.2665 -0.3807  0.2486
  111OSM   H12S11509   3.938   1.122   8.250 -2.2268 -2.4287 -0.4206
  111OSM   H12T11510   3.912   1.270   8.358  2.4557 -0.9835  0.5808
  111OSM   C13S11511   3.737   1.151   8.313  0.2680 -0.1220 -0.0511
  111OSM   H13S11512   3.705   1.221   8.233  1.3147  0.8086  0.3217
  111OSM   H13T11513   3.679   1.186   8.402 -0.9492 -0.1582 -0.7975
  111OSM   C14S11514   3.687   1.008   8.275 -0.2014  0.6185  0.6245
  111OSM   H14S11515   3.727   0.929   8.341 -1.6885  0.5402  1.4743
  111OSM   H14T11516   3.725   0.972   8.177  0.7808 -0.9297  1.5376
  111OSM   C15S11517   3.533   0.991   8.243  0.7070 -0.4347 -0.1766
  111OSM   H15S11518   3.503   1.082   8.186  0.7238  1.0958  2.1133
  111OSM   H15T11519   3.479   0.982   8.339 -0.1116 -1.3790 -0.7081
  111OSM   C16S11520   3.503   0.862   8.159 -0.1030 -0.1354  0.6801
  111OSM   H16S11521   3.395   0.840   8.151 -0.1271 -0.4301  1.7025
  111OSM   H16T11522   3.546   0.778   8.219 -0.8428 -1.0320 -0.0108
  111OSM   C17S11523   3.544   0.858   8.006  0.3926 -0.6674 -0.8020
  111OSM   H17S11524   3.641   0.913   7.998 -0.6057  0.9009 -3.0233
  111OSM   H17T11525   3.474   0.911   7.939  0.8699  0.2112 -0.6180
  111OSM   C18S11526   3.565   0.711   7.968  0.4020  0.3496 -0.4056
  111OSM   H18S11527   3.642   0.698   7.889 -0.4141 -0.7168 -1.0365
  111OSM   H18T11528   3.476   0.666   7.920  1.1976 -1.6267 -0.1088
  111OSM   H18U11529   3.588   0.649   8.057 -0.7944 -1.1000 -1.0715
  111OSM    C1F11530   3.852   1.344   9.525 -0.2469 -0.2055  1.1050
  111OSM     OF11531   3.965   1.383   9.523 -0.2971  0.4398  0.6873
  111OSM    C2F11532   3.734   1.425   9.549  0.0562 -0.6653  0.0247
  111OSM    H2F11533   3.766   1.501   9.624  1.8945 -0.2652 -1.0961
  111OSM    H2G11534   3.650   1.360   9.579 -0.3765  0.2715  0.9071
  111OSM    C3F11535   3.687   1.494   9.419  0.5937  1.0854  0.0968
  111OSM    H3F11536   3.581   1.527   9.432  0.0594 -1.1903  2.5032
  111OSM    H3G11537   3.693   1.421   9.336  0.9272  2.4566 -1.1242
  111OSM    C4F11538   3.754   1.630   9.379 -0.7991  0.0123  0.5400
  111OSM    H4F11539   3.857   1.599   9.353 -0.8616  0.3543 -0.1647
  111OSM    H4G11540   3.760   1.694   9.470  0.2518 -0.4709  0.8262
  111OSM    C5F11541   3.703   1.686   9.245 -0.5819  0.1817 -0.4877
  111OSM    H5F11542   3.592   1.693   9.246 -0.5088  2.0864 -0.5553
  111OSM    H5G11543   3.726   1.615   9.163  0.2899 -0.0852 -0.0252
  111OSM    C6F11544   3.744   1.824   9.200  0.2205 -0.1935 -0.7315
  111OSM    H6F11545   3.705   1.903   9.267  1.1672 -1.1716  1.0425
  111OSM    H6G11546   3.716   1.854   9.096  0.6007  2.6040 -0.1091
  111OSM    C7F11547   3.893   1.836   9.205 -0.3649 -0.0149  0.3880
  111OSM    H7F11548   3.938   1.757   9.142 -0.2929  1.6655 -1.7824
  111OSM    H7G11549   3.928   1.822   9.310  0.7178 -0.8168 -0.0718
  111OSM    C8F11550   3.946   1.971   9.152 -0.5850  0.3683  0.0039
  111OSM    H8F11551   3.925   2.062   9.213 -1.8006  0.3947 -0.4371
  111OSM    H8G11552   3.901   1.986   9.052 -2.7082  1.0413  0.9960
  111OSM    C9F11553   4.097   1.968   9.155  0.6450  0.1731  0.3577
  111OSM    H9F11554   4.146   2.018   9.240  1.7924 -0.9778  0.4028
  111OSM   C10F11555   4.170   1.912   9.054 -0.4655 -0.4108 -0.4636
  111OSM   H10F11556   4.278   1.928   9.063 -0.3967 -1.6049  1.3707
  111OSM   C11F11557   4.113   1.847   8.928 -0.0228  0.7475 -1.0381
  111OSM   H11F11558   4.003   1.833   8.933  0.2367 -1.2377  1.5544
  111OSM   H11G11559   4.150   1.744   8.909 -0.1025  0.6657 -0.7581
  111OSM   C12F11560   4.146   1.927   8.803  0.0772  0.2708 -0.7483
  111OSM   H12F11561   4.257   1.922   8.794  0.2604 -0.3014  1.3054
  111OSM   H12G11562   4.133   2.036   8.820  1.8551  0.6449 -1.5071
  111OSM   C13F11563   4.095   1.871   8.666  0.2120  0.1331  0.5465
  111OSM   H13F11564   4.120   1.944   8.586 -1.5644  1.3614  1.0317
  111OSM   H13G11565   3.986   1.853   8.684  0.4130  0.1732  1.9367
  111OSM   C14F11566   4.156   1.731   8.627 -0.0520  0.1970 -0.6744
  111OSM   H14F11567   4.109   1.655   8.692 -3.9324  1.7747 -1.3816
  111OSM   H14G11568   4.262   1.736   8.659 -1.3960  2.6623  4.3660
  111OSM   C15F11569   4.159   1.694   8.480  0.5244 -0.0330  0.0042
  111OSM   H15F11570   4.241   1.760   8.442 -1.0346  1.6830 -0.5256
  111OSM   H15G11571   4.061   1.729   8.443  1.0765  2.2195  0.4998
  111OSM   C16F11572   4.186   1.551   8.446 -0.2592  0.2616  0.2249
  111OSM   H16F11573   4.109   1.477   8.475 -1.7299  0.9754 -1.6284
  111OSM   H16G11574   4.275   1.530   8.509 -0.9141 -0.0748  1.0585
  111OSM   C17F11575   4.211   1.531   8.291  0.0074 -0.1793 -0.2824
  111OSM   H17F11576   4.286   1.603   8.253 -0.5192  0.7844  0.4720
  111OSM   H17G11577   4.112   1.540   8.241  0.4191  1.1256 -0.8943
  111OSM   C18F11578   4.266   1.399   8.263 -0.1868 -0.4917 -0.4826
  111OSM   H18F11579   4.233   1.308   8.317  1.5926 -1.6415 -1.2695
  111OSM   H18G11580   4.374   1.410   8.282 -0.6093  0.4032  1.7157
  111OSM   H18H11581   4.251   1.374   8.156  0.4534 -0.6852 -0.5275
  112OSM      N11582   2.393   5.856  10.012 -0.5067 -0.1057  0.9020
  112OSM    C1511583   2.332   5.720   9.981 -1.1556  0.5328 -0.6422
  112OSM   H15A11584   2.226   5.716  10.001 -1.3456  0.2542 -1.6812
  112OSM   H15B11585   2.387   5.648  10.040  0.9464  1.5589 -1.2359
  112OSM   H15C11586   2.349   5.685   9.881  0.3384 -1.2076  0.1587
  112OSM    C1411587   2.342   5.963   9.931 -0.1939  0.1810  0.1732
  112OSM   H14A11588   2.235   5.963   9.921 -0.3550  1.0845  1.5440
  112OSM   H14B11589   2.393   5.986   9.838 -1.7964  2.9386 -0.1315
  112OSM   H14C11590   2.365   6.059   9.975  1.3349 -0.4187  0.7602
  112OSM    C1311591   2.347   5.892  10.153 -0.1061  0.8315 -0.3274
  112OSM   H13A11592   2.245   5.928  10.159 -0.3667  0.1982 -0.8647
  112OSM   H13B11593   2.421   5.964  10.186  0.2819  0.5443 -0.5541
  112OSM   H13C11594   2.367   5.809  10.219 -3.2429  0.1815 -0.0527
  112OSM    C1211595   2.545   5.853  10.001 -0.2863 -0.6395 -0.0527
  112OSM   H12A11596   2.590   5.770  10.054  4.2927  0.8208 -1.1299
  112OSM   H12B11597   2.594   5.939  10.045 -2.0995  0.9916 -1.0912
  112OSM    C1111598   2.613   5.852   9.857 -0.1228 -0.2702 -0.0387
  112OSM   H11A11599   2.719   5.822   9.868 -0.4611 -2.3180 -1.7849
  112OSM   H11B11600   2.611   5.956   9.818  1.7056 -0.2329 -0.1355
  112OSM      P11601   2.592   5.628   9.714  0.2295  0.2448  0.2094
  112OSM    O1311602   2.691   5.633   9.604  0.1023 -0.0884 -0.0527
  112OSM    O1411603   2.626   5.552   9.834 -0.0673 -0.3206  0.2056
  112OSM    O1111604   2.460   5.576   9.647 -0.5224  0.4506 -0.2739
  112OSM    O1211605   2.550   5.771   9.766  0.7890  0.4244 -0.4550
  112OSM    C1S11606   2.407   5.629   9.527  0.4578 -0.0351 -0.5766
  112OSM    H1S11607   2.477   5.690   9.466 -0.3187  1.5458  0.0653
  112OSM    H1T11608   2.332   5.709   9.544  0.3875  0.6698 -3.6339
  112OSM     NF11609   2.277   5.597   9.327 -0.0141  0.2878 -0.3888
  112OSM    HNF11610   2.179   5.618   9.327  0.2888  1.7822 -0.6527
  112OSM    C2S11611   2.324   5.525   9.449  0.4477  0.2443  0.4101
  112OSM    H2S11612   2.384   5.435   9.424 -1.1224 -1.7252  3.1134
  112OSM    C3S11613   2.205   5.485   9.541  0.9936 -0.5423  0.4607
  112OSM    H3S11614   2.146   5.573   9.575  1.5698  0.6644 -1.4984
  112OSM     O311615   2.240   5.426   9.666 -0.1331  0.1371  0.1743
  112OSM    HO311616   2.332   5.454   9.665  0.3197 -1.0720 -2.4330
  112OSM    C4S11617   2.113   5.392   9.478  0.5453  0.1390  0.1403
  112OSM    H4S11618   2.148   5.288   9.476  0.8166  0.2435 -0.5980
  112OSM    C5S11619   1.985   5.425   9.448  0.6930 -0.3791 -0.4627
  112OSM    H5S11620   1.954   5.528   9.468  1.0039 -0.6029  1.3395
  112OSM    C6S11621   1.883   5.321   9.392 -0.2077  0.6616  0.1408
  112OSM    H6S11622   1.809   5.295   9.470  0.3686  1.5856  1.0172
  112OSM    H6T11623   1.937   5.226   9.373 -1.5836  0.2994 -2.3394
  112OSM    C7S11624   1.824   5.358   9.256 -0.1114  0.5156  0.0128
  112OSM    H7S11625   1.890   5.382   9.169  0.5857  2.5926  1.0533
  112OSM    H7T11626   1.754   5.444   9.267 -1.2848 -0.1571 -1.6157
  112OSM    C8S11627   1.737   5.242   9.199 -0.8538 -0.0401  0.1151
  112OSM    H8S11628   1.682   5.198   9.285 -0.9067  0.5479  0.3839
  112OSM    H8T11629   1.801   5.162   9.155 -0.6753 -0.6057  1.3737
  112OSM    C9S11630   1.628   5.291   9.103  0.6499  0.2297 -0.2504
  112OSM    H9S11631   1.590   5.386   9.147  0.0849  0.1990 -0.6602
  112OSM    H9T11632   1.549   5.213   9.102  2.3729 -1.5747 -0.4272
  112OSM   C10S11633   1.682   5.322   8.963 -0.7748 -0.4434 -0.4539
  112OSM   H10S11634   1.758   5.400   8.983  0.0221 -1.0854 -0.9424
  112OSM   H10T11635   1.604   5.358   8.893 -0.0187 -1.1169 -1.6737
  112OSM   C11S11636   1.761   5.217   8.890 -0.1079 -0.0457 -0.3172
  112OSM   H11S11637   1.695   5.128   8.889  0.0908 -0.2083 -1.6324
  112OSM   H11T11638   1.857   5.199   8.942  1.1971  3.4476 -1.2011
  112OSM   C12S11639   1.791   5.259   8.743 -0.4599 -0.3305  0.2044
  112OSM   H12S11640   1.694   5.291   8.700 -1.2494 -0.3490  1.9068
  112OSM   H12T11641   1.827   5.171   8.685  2.7427  1.5033 -0.8449
  112OSM   C13S11642   1.894   5.371   8.734 -0.6575  0.1021  0.3851
  112OSM   H13S11643   1.994   5.328   8.754 -2.1639 -4.2754 -0.3578
  112OSM   H13T11644   1.876   5.441   8.818  1.4881  2.1581 -0.7695
  112OSM   C14S11645   1.887   5.464   8.611  0.7888 -0.0471 -0.6660
  112OSM   H14S11646   1.951   5.554   8.625  0.7292  0.0379 -0.9359
  112OSM   H14T11647   1.792   5.512   8.579  0.2450 -0.6953 -0.0461
  112OSM   C15S11648   1.944   5.398   8.488 -0.0182 -0.6038 -0.5262
  112OSM   H15S11649   1.882   5.308   8.464 -2.7708  0.6275  1.4568
  112OSM   H15T11650   2.043   5.355   8.513 -0.1826 -1.1620 -0.8000
  112OSM   C16S11651   1.948   5.480   8.361 -0.4033  0.2397 -0.2955
  112OSM   H16S11652   1.988   5.582   8.378  0.2298  0.2407 -1.6202
  112OSM   H16T11653   1.845   5.501   8.322 -1.5916 -0.9978  1.9847
  112OSM   C17S11654   2.031   5.402   8.254  0.6665  0.1199  0.3416
  112OSM   H17S11655   1.988   5.301   8.236  0.4524  0.2820 -0.0651
  112OSM   H17T11656   2.136   5.377   8.280  0.7228 -1.6588 -1.3722
  112OSM   C18S11657   2.020   5.478   8.122 -0.3086 -0.4185 -0.6702
  112OSM   H18S11658   2.062   5.417   8.040  0.0935 -1.2694  0.1451
  112OSM   H18T11659   2.071   5.576   8.136  1.4258 -1.0461 -2.1438
  112OSM   H18U11660   1.915   5.500   8.094 -0.0675  0.2429 -1.0861
  112OSM    C1F11661   2.361   5.638   9.230  0.7924 -1.0961  0.4269
  112OSM     OF11662   2.479   5.593   9.229  0.5987 -0.1339 -0.1607
  112OSM    C2F11663   2.296   5.714   9.116 -0.7420 -0.2246  0.5215
  112OSM    H2F11664   2.299   5.822   9.142  1.9825  0.3952 -1.8704
  112OSM    H2G11665   2.185   5.702   9.112 -0.8198  0.0111  1.6465
  112OSM    C3F11666   2.368   5.707   8.986 -0.3888  0.4461 -0.3008
  112OSM    H3F11667   2.379   5.601   8.955  0.3624  0.7425 -1.0791
  112OSM    H3G11668   2.472   5.746   8.996 -0.6280  0.8140  1.0554
  112OSM    C4F11669   2.290   5.768   8.865 -0.0696 -0.0791  0.5024
  112OSM    H4F11670   2.283   5.877   8.889 -0.4980  0.1395 -0.5341
  112OSM    H4G11671   2.188   5.726   8.875  0.3604 -0.8564  1.9035
  112OSM    C5F11672   2.370   5.717   8.740 -0.2022 -0.5904 -0.7177
  112OSM    H5F11673   2.351   5.608   8.737 -1.2532 -0.6355  2.8499
  112OSM    H5G11674   2.478   5.736   8.756 -0.1228 -0.0041 -1.8161
  112OSM    C6F11675   2.311   5.770   8.604  0.2381  0.1582 -0.1286
  112OSM    H6F11676   2.337   5.875   8.578  2.1004 -0.5429 -1.2499
  112OSM    H6G11677   2.202   5.765   8.621  0.4673 -2.1218  0.9977
  112OSM    C7F11678   2.355   5.678   8.490  0.4663 -0.0584 -0.4037
  112OSM    H7F11679   2.331   5.576   8.526  0.0591  0.8062  1.9744
  112OSM    H7G11680   2.466   5.670   8.485  0.3523 -2.3494 -0.5221
  112OSM    C8F11681   2.294   5.720   8.356 -0.0935 -0.0413  0.3589
  112OSM    H8F11682   2.320   5.827   8.342 -1.5903  0.5582  1.7651
  112OSM    H8G11683   2.185   5.729   8.374 -0.1576  2.7199 -0.9080
  112OSM    C9F11684   2.336   5.635   8.237  0.5204 -0.1755  0.5631
  112OSM    H9F11685   2.315   5.527   8.235 -0.5768  0.0269  0.5816
  112OSM   C10F11686   2.399   5.676   8.131 -0.5696 -0.4176  0.1936
  112OSM   H10F11687   2.430   5.597   8.061  0.4557 -1.3957  1.6906
  112OSM   C11F11688   2.447   5.819   8.088 -0.4577  0.4921  0.6285
  112OSM   H11F11689   2.428   5.887   8.174 -4.5710  1.1154 -0.5891
  112OSM   H11G11690   2.387   5.847   7.999  0.4801  0.5192 -0.0169
  112OSM   C12F11691   2.600   5.823   8.077 -0.0128  0.3969  0.2405
  112OSM   H12F11692   2.645   5.789   8.173 -1.9399  2.6907  2.0759
  112OSM   H12G11693   2.633   5.928   8.061 -0.1686  0.0553 -3.2678
  112OSM   C13F11694   2.658   5.742   7.964 -0.6555  0.0242  0.3991
  112OSM   H13F11695   2.630   5.635   7.967 -2.4832  0.4608  0.5748
  112OSM   H13G11696   2.768   5.748   7.974 -0.4276 -1.8945 -0.6233
  112OSM   C14F11697   2.635   5.809   7.831  0.1932 -0.1239  0.3895
  112OSM   H14F11698   2.686   5.908   7.834  2.7939 -1.3773  0.5161
  112OSM   H14G11699   2.525   5.818   7.822  0.1518  3.4304  2.5995
  112OSM   C15F11700   2.694   5.745   7.707  0.3064  0.0645 -0.2391
  112OSM   H15F11701   2.660   5.639   7.711  0.9450 -0.1096  1.5859
  112OSM   H15G11702   2.805   5.735   7.710  0.2915 -0.7256 -1.3749
  112OSM   C16F11703   2.656   5.824   7.581 -0.1947 -0.0774 -1.0865
  112OSM   H16F11704   2.547   5.849   7.579 -0.5577 -1.4686 -0.1813
  112OSM   H16G11705   2.664   5.754   7.495 -0.4051 -3.5049  1.4736
  112OSM   C17F11706   2.734   5.956   7.566 -0.8386  0.6796 -0.0572
  112OSM   H17F11707   2.778   5.952   7.464  0.4977 -2.2191  0.5165
  112OSM   H17G11708   2.827   5.962   7.626 -1.1938 -3.2760  1.2069
  112OSM   C18F11709   2.647   6.081   7.583 -0.5571 -0.0592 -0.4839
  112OSM   H18F11710   2.701   6.151   7.650 -1.3052 -1.4166  1.6468
  112OSM   H18G11711   2.548   6.053   7.626 -1.2944  0.0033 -2.0505
  112OSM   H18H11712   2.626   6.139   7.491 -1.2702 -0.6070 -0.6810
  113OSM      N11713   1.485   2.312  10.000  0.2895 -0.5761  0.2592
  113OSM    C1511714   1.573   2.207   9.936 -0.5001  0.5303 -0.5007
  113OSM   H15A11715   1.507   2.129   9.900 -0.2220 -0.3711  0.8755
  113OSM   H15B11716   1.643   2.173  10.011 -0.0850  0.8107 -0.7587
  113OSM   H15C11717   1.636   2.239   9.854  1.0708 -0.8090  0.1218
  113OSM    C1411718   1.425   2.244  10.115 -0.2741  0.1773 -0.5481
  113OSM   H14A11719   1.372   2.308  10.183 -0.4190 -1.0886  0.5604
  113OSM   H14B11720   1.497   2.188  10.173  0.9806  2.2433  0.0015
  113OSM   H14C11721   1.354   2.172  10.076  0.1826 -1.1531  0.9838
  113OSM    C1311722   1.578   2.417  10.034 -0.2199 -0.4405  0.0111
  113OSM   H13A11723   1.636   2.389  10.121  1.4920 -2.8490 -1.7617
  113OSM   H13B11724   1.530   2.503  10.077  0.9231  0.2880 -0.1312
  113OSM   H13C11725   1.629   2.448   9.944 -2.2956 -2.8553 -2.1732
  113OSM    C1211726   1.379   2.369   9.898  0.1755 -0.4724 -0.5256
  113OSM   H12A11727   1.438   2.396   9.811  1.0727 -1.1128 -0.1398
  113OSM   H12B11728   1.354   2.466   9.939  1.5468 -0.4364  0.2994
  113OSM    C1111729   1.243   2.295   9.861 -0.0730  0.0664 -0.8466
  113OSM   H11A11730   1.188   2.357   9.787 -0.4079 -0.7867 -1.3218
  113OSM   H11B11731   1.183   2.308   9.954  0.8917 -0.6781 -0.0909
  113OSM      P11732   1.174   2.055   9.875 -0.2932 -0.0480  0.2372
  113OSM    O1311733   1.240   2.003  10.000 -0.0991 -0.7785  0.5260
  113OSM    O1411734   1.035   2.109   9.880  0.3262  0.6573 -0.4352
  113OSM    O1111735   1.178   1.944   9.764  0.0219 -0.3024  0.3614
  113OSM    O1211736   1.267   2.165   9.805 -0.6440 -0.0272  0.4730
  113OSM    C1S11737   1.075   1.920   9.670  0.9789  0.1612  0.3691
  113OSM    H1S11738   0.977   1.954   9.709  1.7811 -0.5197  3.2340
  113OSM    H1T11739   1.056   1.811   9.660 -0.8618  0.6572 -2.8963
  113OSM     NF11740   0.995   1.956   9.437 -0.0572  0.0653  0.9875
  113OSM    HNF11741   1.006   1.881   9.372  0.0952  1.5894 -0.8303
  113OSM    C2S11742   1.106   1.975   9.528 -0.5408 -0.5106  0.6666
  113OSM    H2S11743   1.122   2.085   9.533 -3.1198  0.0521 -1.4062
  113OSM    C3S11744   1.240   1.895   9.491 -0.6576  0.3284 -0.4079
  113OSM    H3S11745   1.221   1.786   9.504  0.4135  0.1716 -0.0842
  113OSM     O311746   1.354   1.921   9.578  0.1981  0.8831 -0.2222
  113OSM    HO311747   1.310   1.949   9.659 -0.6826  2.5329 -1.2066
  113OSM    C4S11748   1.281   1.928   9.350  0.1598 -0.3792 -0.2175
  113OSM    H4S11749   1.315   2.030   9.329 -1.3347  0.0965 -0.4845
  113OSM    C5S11750   1.282   1.842   9.248  0.2633 -0.1791  1.1709
  113OSM    H5S11751   1.262   1.734   9.252  0.7240 -0.2605  1.2888
  113OSM    C6S11752   1.317   1.881   9.099  0.5524 -0.1293 -0.2869
  113OSM    H6S11753   1.250   1.825   9.031  3.8008 -1.7689 -2.3791
  113OSM    H6T11754   1.416   1.837   9.078 -0.1880 -1.9934 -0.0204
  113OSM    C7S11755   1.309   2.031   9.066 -0.7535 -0.2064  0.3119
  113OSM    H7S11756   1.394   2.083   9.114 -0.5006  1.2453 -1.6336
  113OSM    H7T11757   1.231   2.096   9.110  1.1642  0.9381  2.2398
  113OSM    C8S11758   1.315   2.074   8.916 -0.1846 -0.1053 -0.6450
  113OSM    H8S11759   1.221   2.036   8.870 -1.4556  1.9359  0.1429
  113OSM    H8T11760   1.400   2.023   8.864 -0.0698 -1.5840  0.9176
  113OSM    C9S11761   1.339   2.222   8.889  0.4525  0.1325  0.0200
  113OSM    H9S11762   1.358   2.235   8.780  1.6435 -1.4974  0.0013
  113OSM    H9T11763   1.430   2.265   8.938 -1.0585  1.7667  1.5581
  113OSM   C10S11764   1.221   2.311   8.941 -0.6637 -0.2264 -0.7101
  113OSM   H10S11765   1.259   2.416   8.942 -2.4498  0.4572  0.4250
  113OSM   H10T11766   1.193   2.290   9.046 -1.4395  0.1017 -0.8431
  113OSM   C11S11767   1.095   2.301   8.850  0.0637 -0.2630 -0.7543
  113OSM   H11S11768   1.033   2.387   8.883 -0.8878 -0.8451 -0.9844
  113OSM   H11T11769   1.046   2.205   8.877 -0.6971  0.5095  0.7097
  113OSM   C12S11770   1.107   2.318   8.699  0.6665 -0.1531  0.3553
  113OSM   H12S11771   1.178   2.250   8.649 -0.8048 -0.1817 -1.8419
  113OSM   H12T11772   1.142   2.420   8.672  0.4639  0.0906  0.9868
  113OSM   C13S11773   0.971   2.298   8.624 -0.0048  0.1038  0.2496
  113OSM   H13S11774   0.893   2.362   8.670 -0.0419  0.5105 -0.3685
  113OSM   H13T11775   0.945   2.191   8.641  1.2289 -0.1149  0.9171
  113OSM   C14S11776   0.980   2.323   8.476 -0.3351 -0.2770  0.4812
  113OSM   H14S11777   1.011   2.429   8.465 -1.5272  0.3162  2.3674
  113OSM   H14T11778   0.875   2.315   8.441 -0.2968 -0.8431  0.4905
  113OSM   C15S11779   1.059   2.218   8.393  0.8147 -0.1121 -0.1634
  113OSM   H15S11780   1.025   2.119   8.429 -0.6705 -0.3504 -2.0588
  113OSM   H15T11781   1.167   2.229   8.418  0.6546 -1.3838  1.2546
  113OSM   C16S11782   1.040   2.206   8.238 -0.0478  0.0661 -0.0315
  113OSM   H16S11783   1.081   2.306   8.211  0.8276 -0.2800 -0.0257
  113OSM   H16T11784   0.931   2.198   8.221  0.2838 -1.0381 -1.8141
  113OSM   C17S11785   1.131   2.097   8.183  0.2700  0.4513 -0.0144
  113OSM   H17S11786   1.211   2.098   8.261  1.6403  1.0025 -1.3718
  113OSM   H17T11787   1.174   2.130   8.086  1.3467  1.1400  0.6666
  113OSM   C18S11788   1.069   1.957   8.174  0.2173  0.1200  0.3331
  113OSM   H18S11789   1.040   1.918   8.274 -3.9094 -1.5321 -1.2731
  113OSM   H18T11790   1.145   1.882   8.144 -1.0476 -1.0494 -0.1003
  113OSM   H18U11791   0.984   1.954   8.102  0.5506  0.9078 -0.1041
  113OSM    C1F11792   0.882   2.024   9.444  0.4806 -0.4325  0.0539
  113OSM     OF11793   0.858   2.117   9.521  0.3380  0.1168 -0.1616
  113OSM    C2F11794   0.785   1.983   9.344 -0.0497  0.1787  0.1455
  113OSM    H2F11795   0.758   1.880   9.375  2.6928 -0.7575 -0.3142
  113OSM    H2G11796   0.830   1.979   9.243 -1.7476 -1.3634 -0.6095
  113OSM    C3F11797   0.645   2.068   9.339 -0.0816  0.5223 -0.3406
  113OSM    H3F11798   0.671   2.173   9.314  3.5367 -0.0848  0.3417
  113OSM    H3G11799   0.609   2.075   9.444 -0.1425  0.2077 -0.3393
  113OSM    C4F11800   0.552   1.998   9.246  0.3125  0.0967  0.4186
  113OSM    H4F11801   0.515   1.904   9.293 -1.2509  0.9087  0.9022
  113OSM    H4G11802   0.597   1.967   9.150 -1.8861  0.1208 -0.6805
  113OSM    C5F11803   0.430   2.086   9.199  0.1188  0.9374  0.9558
  113OSM    H5F11804   0.391   2.030   9.111  0.4747  3.4730 -0.9216
  113OSM    H5G11805   0.472   2.180   9.157 -0.3036 -0.4963 -3.1345
  113OSM    C6F11806   0.321   2.105   9.302  0.7627 -0.1565  0.2036
  113OSM    H6F11807   0.371   2.150   9.391  0.4655 -0.4762  0.5339
  113OSM    H6G11808   0.275   2.006   9.324  1.6375 -1.1114 -1.9878
  113OSM    C7F11809   0.224   2.208   9.249  0.0710  0.1588  0.6596
  113OSM    H7F11810   0.282   2.300   9.228  1.2602 -0.4648  1.1230
  113OSM    H7G11811   0.155   2.239   9.330  0.3192  1.0065  0.5477
  113OSM    C8F11812   0.136   2.151   9.133  0.0193 -0.3290  0.0856
  113OSM    H8F11813   0.075   2.069   9.177  2.8698 -1.8713  1.4262
  113OSM    H8G11814   0.214   2.104   9.070  1.0724  0.2120  0.9527
  113OSM    C9F11815   0.065   2.262   9.062  0.3198 -0.0367 -0.6858
  113OSM    H9F11816   0.022   2.337   9.130 -0.2233  0.3273 -1.4167
  113OSM   C10F11817   0.058   2.271   8.928  0.5363 -0.3595 -0.4618
  113OSM   H10F11818  -0.013   2.342   8.884  0.1819 -0.9259 -0.8116
  113OSM   C11F11819   0.109   2.165   8.836  0.3274 -0.6936  0.0429
  113OSM   H11F11820   0.024   2.132   8.773  0.2908  1.2649 -1.0048
  113OSM   H11G11821   0.140   2.072   8.889 -1.8960 -0.9529  1.0134
  113OSM   C12F11822   0.209   2.209   8.733 -0.5591  0.4738  0.2520
  113OSM   H12F11823   0.294   2.254   8.789  0.8937  0.9389 -2.1600
  113OSM   H12G11824   0.166   2.291   8.671 -0.3177 -1.9647 -3.4728
  113OSM   C13F11825   0.262   2.101   8.633  0.5009  0.4853 -0.0047
  113OSM   H13F11826   0.175   2.062   8.575 -0.2137 -1.9013  2.4758
  113OSM   H13G11827   0.318   2.036   8.704 -0.7013  0.7591  1.2379
  113OSM   C14F11828   0.376   2.166   8.551  0.4986  0.3189  0.4739
  113OSM   H14F11829   0.434   2.236   8.616  0.5916 -2.0615  3.1278
  113OSM   H14G11830   0.327   2.231   8.475 -0.8138 -2.0577 -0.8305
  113OSM   C15F11831   0.478   2.069   8.492  0.5145  0.1924 -0.0955
  113OSM   H15F11832   0.425   1.985   8.441 -0.3762  0.0474  1.0261
  113OSM   H15G11833   0.535   2.027   8.577  1.2201 -0.0921 -0.6948
  113OSM   C16F11834   0.575   2.147   8.405 -0.8312  0.0340  0.3477
  113OSM   H16F11835   0.611   2.227   8.474  0.7089 -0.5364  0.2411
  113OSM   H16G11836   0.520   2.194   8.321 -2.7419 -0.4804  1.2496
  113OSM   C17F11837   0.698   2.061   8.360 -0.0424  0.5552  0.0089
  113OSM   H17F11838   0.735   1.990   8.438 -0.7579  1.3083  1.0583
  113OSM   H17G11839   0.777   2.139   8.359 -1.1540  1.7031 -0.6103
  113OSM   C18F11840   0.686   2.006   8.222 -0.3314  0.4751  0.2905
  113OSM   H18F11841   0.694   2.088   8.147  1.0145 -1.7894 -2.2180
  113OSM   H18G11842   0.588   1.955   8.213 -0.4172  0.8831 -1.2887
  113OSM   H18H11843   0.766   1.933   8.194 -1.4031  0.4065 -3.0500
  114OSM      N11844   1.341   5.037  10.090  0.1593  0.5236  0.0072
  114OSM    C1511845   1.312   4.927  10.188 -0.0128  0.0302  0.5397
  114OSM   H15A11846   1.382   4.850  10.158 -0.0652  0.5656 -1.0550
  114OSM   H15B11847   1.211   4.890  10.178 -0.4608  0.3963  3.1842
  114OSM   H15C11848   1.330   4.953  10.291 -0.9080  1.0527  0.4533
  114OSM    C1411849   1.487   5.077  10.110 -0.2718  0.8735 -0.0030
  114OSM   H14A11850   1.517   5.165  10.056 -1.4162  2.1751  1.3733
  114OSM   H14B11851   1.550   4.997  10.076 -0.5589  0.9522 -0.7313
  114OSM   H14C11852   1.504   5.115  10.210  1.5862  2.0190 -0.7018
  114OSM    C1311853   1.317   4.987   9.948 -0.5836  0.3886  0.0532
  114OSM   H13A11854   1.225   4.931   9.936 -1.8230  2.0112  1.4349
  114OSM   H13B11855   1.398   4.921   9.922 -1.9499 -1.1498 -0.4546
  114OSM   H13C11856   1.319   5.070   9.879 -1.4163  0.0255 -0.4281
  114OSM    C1211857   1.249   5.154  10.113  0.6252 -0.2617  0.1961
  114OSM   H12A11858   1.264   5.191  10.213 -1.0671  1.2754 -0.0676
  114OSM   H12B11859   1.144   5.130  10.102  0.5840  0.6932 -2.1168
  114OSM    C1111860   1.273   5.280  10.023 -0.0861 -0.1567  0.8762
  114OSM   H11A11861   1.361   5.332  10.066 -0.6576  0.8072  0.9030
  114OSM   H11B11862   1.191   5.354  10.036 -1.4024 -1.2255 -0.9292
  114OSM      P11863   1.345   5.355   9.782 -0.7909  0.0476 -0.0571
  114OSM    O1311864   1.240   5.446   9.739  0.0437 -0.1861  0.3044
  114OSM    O1411865   1.471   5.409   9.837  0.2398 -0.4230 -0.4049
  114OSM    O1111866   1.391   5.261   9.658  0.5585  0.2198 -0.4187
  114OSM    O1211867   1.282   5.251   9.877 -0.0200 -0.1062  0.0342
  114OSM    C1S11868   1.316   5.150   9.613 -0.1015  0.2250  0.1473
  114OSM    H1S11869   1.246   5.115   9.692 -2.2605  4.8972  0.6133
  114OSM    H1T11870   1.383   5.064   9.591 -0.3906 -0.0898  0.4837
  114OSM     NF11871   1.152   5.065   9.444 -0.5388  0.2525 -0.1281
  114OSM    HNF11872   1.196   4.999   9.383 -0.3561  0.7782 -0.5781
  114OSM    C2S11873   1.238   5.178   9.483  0.2755 -0.0268  0.2333
  114OSM    H2S11874   1.170   5.264   9.498  0.6076  0.6155 -1.6557
  114OSM    C3S11875   1.329   5.225   9.372  0.0167  0.3693 -0.1516
  114OSM    H3S11876   1.393   5.136   9.349 -2.5967 -1.7479  0.2565
  114OSM     O311877   1.414   5.332   9.413  0.1190  0.0762 -0.0452
  114OSM    HO311878   1.414   5.317   9.507 -1.6305  1.0210  0.1478
  114OSM    C4S11879   1.261   5.263   9.244 -0.0794 -0.4372 -0.2664
  114OSM    H4S11880   1.274   5.187   9.165  0.8625 -0.5868  0.0213
  114OSM    C5S11881   1.193   5.375   9.223 -0.7658 -0.2091  0.0870
  114OSM    H5S11882   1.194   5.451   9.302  1.6774 -0.7505  0.6552
  114OSM    C6S11883   1.138   5.431   9.099  0.2657 -0.0108  0.8149
  114OSM    H6S11884   1.171   5.364   9.016  0.0267 -1.0891  1.5702
  114OSM    H6T11885   1.192   5.527   9.082 -0.2836  0.4490  1.6408
  114OSM    C7S11886   0.980   5.452   9.120 -0.4317 -0.3626 -0.0234
  114OSM    H7S11887   0.957   5.519   9.205 -1.5933  0.2364 -0.7841
  114OSM    H7T11888   0.933   5.353   9.136  2.0719 -1.2012  3.0665
  114OSM    C8S11889   0.917   5.518   8.999  0.1554 -0.5025  0.8255
  114OSM    H8S11890   0.959   5.618   8.977  2.0533 -0.6371  3.4370
  114OSM    H8T11891   0.808   5.533   9.012  0.0096 -0.7188 -0.0508
  114OSM    C9S11892   0.949   5.436   8.869  0.5968  0.7968 -0.0204
  114OSM    H9S11893   0.937   5.327   8.888 -1.3060  1.0107  0.2475
  114OSM    H9T11894   1.056   5.449   8.841  1.1344 -0.6180  1.2236
  114OSM   C10S11895   0.866   5.488   8.748 -0.6532  0.4072 -0.6922
  114OSM   H10S11896   0.895   5.595   8.741  0.3489  0.4433  2.5515
  114OSM   H10T11897   0.757   5.485   8.769 -0.3936  1.1359  0.8445
  114OSM   C11S11898   0.898   5.421   8.618  0.0921 -0.1933  0.0515
  114OSM   H11S11899   1.004   5.417   8.587  0.3114  1.6971  0.4856
  114OSM   H11T11900   0.852   5.472   8.531  0.6215 -0.0260 -0.1362
  114OSM   C12S11901   0.852   5.274   8.611  0.2071  0.4672 -0.6740
  114OSM   H12S11902   0.748   5.263   8.646 -0.1723  1.4482 -1.4536
  114OSM   H12T11903   0.918   5.219   8.683  1.3345  2.1214 -0.3693
  114OSM   C13S11904   0.864   5.225   8.468  0.2080  0.5994  0.5317
  114OSM   H13S11905   0.962   5.263   8.433  0.5713 -0.4641  0.3585
  114OSM   H13T11906   0.770   5.264   8.424 -0.7262  0.3312  2.1818
  114OSM   C14S11907   0.864   5.070   8.457 -0.1094  0.3608 -0.0315
  114OSM   H14S11908   0.761   5.033   8.475  0.0070 -0.8941 -1.6738
  114OSM   H14T11909   0.938   5.036   8.533  0.5272 -0.2297 -0.9011
  114OSM   C15S11910   0.888   5.018   8.314  0.0205  0.3321  0.3401
  114OSM   H15S11911   0.825   5.068   8.238 -2.9017 -1.1898  1.5716
  114OSM   H15T11912   0.850   4.914   8.311 -0.6531  0.6090 -1.1346
  114OSM   C16S11913   1.038   5.007   8.280  0.1257 -0.4175 -0.0710
  114OSM   H16S11914   1.083   4.974   8.376 -0.1560 -0.1041  0.1680
  114OSM   H16T11915   1.083   5.101   8.240 -0.2800 -0.9468 -1.8495
  114OSM   C17S11916   1.062   4.887   8.175 -0.6495 -0.4289 -0.3449
  114OSM   H17S11917   1.005   4.896   8.080  2.5649  0.1585 -2.4024
  114OSM   H17T11918   1.025   4.795   8.224 -0.7262 -0.4929 -0.5247
  114OSM   C18S11919   1.212   4.873   8.141  0.2929  0.2470 -0.7302
  114OSM   H18S11920   1.272   4.901   8.230  1.4130  0.4631 -1.5240
  114OSM   H18T11921   1.247   4.942   8.061  0.8152  1.9720  0.9034
  114OSM   H18U11922   1.218   4.765   8.115  0.5488 -0.2723  1.3427
  114OSM    C1F11923   1.035   5.049   9.492  0.1747  0.0900  0.6847
  114OSM     OF11924   1.002   5.108   9.594 -0.2903  0.2640 -0.1894
  114OSM    C2F11925   0.947   4.950   9.417  0.0160 -0.8653 -0.5213
  114OSM    H2F11926   0.918   4.865   9.483 -1.3087 -0.1561 -0.1687
  114OSM    H2G11927   0.982   4.904   9.322 -0.9409 -2.3942 -0.1761
  114OSM    C3F11928   0.811   5.018   9.383  0.0233  0.6675  0.6072
  114OSM    H3F11929   0.779   5.056   9.482 -0.5320 -0.8404  1.0240
  114OSM    H3G11930   0.736   4.940   9.358  0.2948  0.5552  0.1295
  114OSM    C4F11931   0.825   5.133   9.287 -0.0952 -0.6067  0.1111
  114OSM    H4F11932   0.931   5.167   9.287 -0.3572  0.3505 -1.7528
  114OSM    H4G11933   0.767   5.224   9.316  1.1023 -0.5056  2.4270
  114OSM    C5F11934   0.782   5.106   9.136  0.3073 -0.4238  0.1063
  114OSM    H5F11935   0.767   5.196   9.074  0.6758  0.7907  1.7102
  114OSM    H5G11936   0.680   5.062   9.138  0.0200  0.1506 -1.0990
  114OSM    C6F11937   0.874   5.017   9.057  0.4327 -0.4469  0.1646
  114OSM    H6F11938   0.833   4.992   8.957 -1.7809  1.4001  0.5230
  114OSM    H6G11939   0.875   4.922   9.115  1.4803  0.0424  0.9760
  114OSM    C7F11940   1.023   5.068   9.045 -0.1273 -0.3707 -0.1209
  114OSM    H7F11941   1.084   5.065   9.138 -1.9332  2.8412  1.3349
  114OSM    H7G11942   1.032   5.169   9.000  1.2443  0.0571  1.0494
  114OSM    C8F11943   1.108   4.985   8.939  0.7547  0.1526  0.2048
  114OSM    H8F11944   1.057   5.019   8.846  0.6131  1.5059  0.7551
  114OSM    H8G11945   1.082   4.877   8.945  0.5520  0.1792 -0.1319
  114OSM    C9F11946   1.255   5.002   8.943  0.0670 -0.3085 -0.4110
  114OSM    H9F11947   1.311   4.977   9.034  1.8338 -1.2959 -1.7137
  114OSM   C10F11948   1.329   5.085   8.867 -0.4062  0.0015  0.7705
  114OSM   H10F11949   1.439   5.091   8.869 -0.4320  1.0556 -0.1199
  114OSM   C11F11950   1.280   5.177   8.758  0.2712 -0.4961  0.3672
  114OSM   H11F11951   1.317   5.277   8.787 -2.2406  0.6159 -0.0380
  114OSM   H11G11952   1.169   5.185   8.757  0.2255 -0.9723 -1.0178
  114OSM   C12F11953   1.326   5.128   8.630  0.3715  0.2738  0.7059
  114OSM   H12F11954   1.287   5.182   8.541  1.8689  0.9632  0.4399
  114OSM   H12G11955   1.297   5.023   8.611  1.2252 -0.0150  0.9371
  114OSM   C13F11956   1.480   5.132   8.614 -0.2396 -0.5919  0.1110
  114OSM   H13F11957   1.528   5.061   8.683  2.9875 -0.8182 -2.1541
  114OSM   H13G11958   1.520   5.234   8.631 -1.9809  0.5689 -2.0831
  114OSM   C14F11959   1.506   5.092   8.464  0.2036  0.1780  0.4191
  114OSM   H14F11960   1.455   5.168   8.401 -0.9829 -1.0803 -0.1953
  114OSM   H14G11961   1.450   5.001   8.435 -0.8908  0.7798  0.5693
  114OSM   C15F11962   1.666   5.087   8.436  0.0645 -0.0579  0.1701
  114OSM   H15F11963   1.705   5.001   8.495 -0.6073  0.5300  1.5077
  114OSM   H15G11964   1.703   5.175   8.492 -3.0074  0.4479  1.6563
  114OSM   C16F11965   1.716   5.090   8.291  0.0109 -0.3831 -0.1893
  114OSM   H16F11966   1.826   5.074   8.297  0.0554 -0.9097 -1.9135
  114OSM   H16G11967   1.696   5.188   8.243  1.4854 -0.0650 -0.2244
  114OSM   C17F11968   1.660   4.969   8.217  0.0139  0.4082 -0.2783
  114OSM   H17F11969   1.549   4.977   8.210 -0.0191 -0.1828 -0.5662
  114OSM   H17G11970   1.669   4.873   8.273 -0.9602  0.2142 -0.4287
  114OSM   C18F11971   1.720   4.941   8.077  0.1140 -0.3074  0.2547
  114OSM   H18F11972   1.681   4.840   8.054 -0.1989 -0.3792  1.0823
  114OSM   H18G11973   1.831   4.942   8.080  0.0980 -0.4468  2.2309
  114OSM   H18H11974   1.688   5.019   8.004 -2.4380 -1.5359 -0.0546
  115OSM      N11975   6.069   3.803   9.984 -0.5597 -0.5679 -0.0008
  115OSM    C1511976   6.062   3.748  10.133 -0.6433 -0.0455 -1.6004
  115OSM   H15A11977   6.082   3.825  10.206 -0.2000 -1.3605 -0.2835
  115OSM   H15B11978   6.134   3.668  10.139 -0.3175  0.2786 -1.1008
  115OSM   H15C11979   5.961   3.716  10.148 -0.2868 -0.5513 -0.1979
  115OSM    C1411980   5.958   3.899   9.963  0.2234  0.2384 -0.0652
  115OSM   H14A11981   5.958   3.992  10.019 -0.9385  0.2075  0.0070
  115OSM   H14B11982   5.860   3.857   9.979 -1.5051  3.8224 -0.1882
  115OSM   H14C11983   5.963   3.933   9.860  1.9501  2.2932  0.6138
  115OSM    C1311984   6.199   3.866   9.953 -0.8845 -0.5257  0.4811
  115OSM   H13A11985   6.279   3.794   9.960 -0.2022  0.1625  0.0006
  115OSM   H13B11986   6.197   3.955  10.014 -0.0544  0.4127 -0.7916
  115OSM   H13C11987   6.201   3.912   9.855 -1.6367 -0.5959  0.4271
  115OSM    C1211988   6.048   3.671   9.904 -0.5200  0.6928 -0.2429
  115OSM   H12A11989   6.051   3.698   9.800  0.5110 -1.7654 -0.9453
  115OSM   H12B11990   5.949   3.631   9.925 -0.3588  0.2783 -0.2622
  115OSM    C1111991   6.149   3.553   9.924  0.0420 -0.0588  1.0796
  115OSM   H11A11992   6.105   3.470   9.865  0.2970 -0.1794  1.0572
  115OSM   H11B11993   6.148   3.521  10.030  0.1579 -0.3731  0.9898
  115OSM      P11994   6.397   3.493   9.854  0.4314 -0.0773  0.2270
  115OSM    O1311995   6.499   3.521   9.950  0.6225  0.8691  0.0788
  115OSM    O1411996   6.347   3.351   9.854  0.4716  0.3350 -0.1693
  115OSM    O1111997   6.442   3.519   9.704 -0.0577 -0.9895 -0.1050
  115OSM    O1211998   6.286   3.595   9.890  0.5950 -0.1356  0.7273
  115OSM    C1S11999   6.388   3.619   9.621  0.1619  0.3694  0.3487
  115OSM    H1S12000   6.430   3.718   9.651  1.8578 -0.5915  1.3088
  115OSM    H1T12001   6.277   3.613   9.620  0.1118  0.6457  1.6476
  115OSM     NF12002   6.368   3.702   9.392 -0.3588 -0.0998  0.2598
  115OSM    HNF12003   6.275   3.681   9.363  0.2061  0.6938 -2.3964
  115OSM    C2S12004   6.425   3.598   9.470 -0.2016 -0.4763 -0.2129
  115OSM    H2S12005   6.536   3.605   9.469 -0.2587  1.1618  0.5660
  115OSM    C3S12006   6.381   3.457   9.432  0.2302  0.2991 -0.6102
  115OSM    H3S12007   6.271   3.449   9.444 -0.0245 -1.3892 -3.3404
  115OSM     O312008   6.411   3.341   9.518  0.1761 -0.0889  0.7181
  115OSM    HO312009   6.431   3.394   9.595 -0.7261  1.0186  0.2119
  115OSM    C4S12010   6.417   3.424   9.287 -0.3562 -0.4447  0.1488
  115OSM    H4S12011   6.351   3.467   9.210  2.0621  0.4471 -1.5587
  115OSM    C5S12012   6.526   3.357   9.247 -0.0251  1.0858  0.7535
  115OSM    H5S12013   6.592   3.302   9.315 -0.0788 -2.8878 -2.0364
  115OSM    C6S12014   6.562   3.342   9.103  0.6031 -0.2894  1.0420
  115OSM    H6S12015   6.518   3.249   9.061  0.1913  0.3940 -0.0829
  115OSM    H6T12016   6.671   3.326   9.094  0.5516 -0.0880 -0.0787
  115OSM    C7S12017   6.517   3.457   9.011  0.2486  0.5494 -0.6184
  115OSM    H7S12018   6.566   3.543   9.061  0.0894 -0.1269  0.7420
  115OSM    H7T12019   6.406   3.468   9.011  0.2705  0.7724 -0.4867
  115OSM    C8S12020   6.562   3.451   8.869 -0.5166 -0.4790  0.6359
  115OSM    H8S12021   6.553   3.348   8.828  1.5846 -0.4614  0.0173
  115OSM    H8T12022   6.671   3.469   8.880 -0.5862  0.5060 -0.1407
  115OSM    C9S12023   6.498   3.550   8.768  0.3442 -0.4749  0.3317
  115OSM    H9S12024   6.519   3.654   8.800 -0.9893 -0.5541  1.5451
  115OSM    H9T12025   6.387   3.541   8.775  0.0835  0.3512 -1.9396
  115OSM   C10S12026   6.549   3.534   8.628 -0.4154  0.5067  0.3883
  115OSM   H10S12027   6.540   3.426   8.604 -1.5683  1.2394 -3.1042
  115OSM   H10T12028   6.658   3.556   8.624 -0.5159  1.0459  0.5503
  115OSM   C11S12029   6.472   3.615   8.528 -0.6362  1.4193  0.3370
  115OSM   H11S12030   6.483   3.721   8.559 -0.4105  1.1330  1.2613
  115OSM   H11T12031   6.368   3.584   8.504 -1.2336  1.8251  2.2255
  115OSM   C12S12032   6.547   3.624   8.388  0.0521  0.2016  0.0222
  115OSM   H12S12033   6.532   3.527   8.335 -2.3630 -1.0650  2.6822
  115OSM   H12T12034   6.655   3.646   8.402 -0.1932  1.9023 -0.6214
  115OSM   C13S12035   6.491   3.729   8.295  0.4910 -0.5742 -0.1333
  115OSM   H13S12036   6.494   3.819   8.361  2.6809 -0.9205  0.3058
  115OSM   H13T12037   6.384   3.708   8.273  0.4358 -0.3406 -0.0864
  115OSM   C14S12038   6.561   3.740   8.163  0.1437 -0.2127  0.7380
  115OSM   H14S12039   6.505   3.803   8.090  2.4253 -0.1852 -1.1267
  115OSM   H14T12040   6.587   3.644   8.113  1.3484  0.3183  0.2902
  115OSM   C15S12041   6.693   3.821   8.175 -0.0603  0.2370 -0.9492
  115OSM   H15S12042   6.737   3.802   8.275 -0.9366  0.5238 -0.4921
  115OSM   H15T12043   6.656   3.925   8.187 -1.0209 -0.1861 -0.0771
  115OSM   C16S12044   6.793   3.801   8.073  0.0879 -0.3793  0.0253
  115OSM   H16S12045   6.859   3.890   8.071  0.6762 -0.6679  2.5376
  115OSM   H16T12046   6.740   3.771   7.980 -2.2856 -0.2035  1.2485
  115OSM   C17S12047   6.892   3.682   8.115  0.0372  0.5571  0.2488
  115OSM   H17S12048   6.822   3.595   8.119 -2.2176  2.3123  1.2826
  115OSM   H17T12049   6.932   3.700   8.217  1.8314 -0.0943 -0.3043
  115OSM   C18S12050   6.999   3.657   8.009  0.2403  0.4207 -0.2617
  115OSM   H18S12051   7.084   3.726   8.031  2.0215 -1.3409 -1.2982
  115OSM   H18T12052   6.950   3.669   7.910 -2.7115  2.6369  1.2983
  115OSM   H18U12053   7.044   3.556   8.020  1.8628  1.1357 -0.0332
  115OSM    C1F12054   6.414   3.828   9.383 -0.0682 -0.2120  0.2962
  115OSM     OF12055   6.524   3.854   9.438 -0.4750 -0.3314 -0.4971
  115OSM    C2F12056   6.351   3.930   9.296  0.0347  0.7409  0.3323
  115OSM    H2F12057   6.401   4.028   9.314  1.6358  0.5487 -2.5646
  115OSM    H2G12058   6.242   3.928   9.321 -0.4301  1.2478 -1.4733
  115OSM    C3F12059   6.363   3.879   9.149 -0.1325  0.2757 -0.4542
  115OSM    H3F12060   6.310   3.782   9.132  1.6929 -0.6496 -1.2045
  115OSM    H3G12061   6.463   3.837   9.124 -1.4923 -3.5720 -0.2202
  115OSM    C4F12062   6.326   3.977   9.041  0.4956 -0.6282  0.3386
  115OSM    H4F12063   6.380   4.072   9.062  1.7035 -0.7914 -1.7903
  115OSM    H4G12064   6.216   3.994   9.037  0.4076 -1.3974 -1.0218
  115OSM    C5F12065   6.356   3.924   8.901  0.4629  0.0124 -0.4157
  115OSM    H5F12066   6.311   3.824   8.883  1.6259 -0.8163  1.1288
  115OSM    H5G12067   6.466   3.914   8.897  0.5571  1.0175 -0.6260
  115OSM    C6F12068   6.310   4.020   8.791 -0.4535  0.1636 -0.0589
  115OSM    H6F12069   6.347   4.121   8.817 -0.9253  0.6648 -1.2380
  115OSM    H6G12070   6.200   4.034   8.799 -0.4103  1.3513 -1.1643
  115OSM    C7F12071   6.362   3.985   8.652  0.7669  0.9421  0.4353
  115OSM    H7F12072   6.332   3.880   8.631  3.1690 -0.0587  1.5929
  115OSM    H7G12073   6.473   3.982   8.652  0.8424 -2.5176 -1.4600
  115OSM    C8F12074   6.307   4.077   8.544 -0.1102  0.0822 -0.1698
  115OSM    H8F12075   6.376   4.058   8.459  0.6289  0.6912  0.2635
  115OSM    H8G12076   6.333   4.178   8.583 -1.3546 -0.3995  2.0498
  115OSM    C9F12077   6.161   4.071   8.508  0.4857  0.3337  0.3873
  115OSM    H9F12078   6.100   4.030   8.590 -0.4675  0.7799 -0.0843
  115OSM   C10F12079   6.098   4.097   8.395  1.0835 -0.2792  0.3104
  115OSM   H10F12080   5.989   4.082   8.394  1.2200 -2.1341 -3.4939
  115OSM   C11F12081   6.163   4.151   8.270 -0.3878  0.1838 -0.2506
  115OSM   H11F12082   6.274   4.144   8.270 -0.2133  2.1605 -1.0292
  115OSM   H11G12083   6.148   4.261   8.262 -1.4009 -0.0535 -2.7426
  115OSM   C12F12084   6.110   4.098   8.131  0.3224 -0.8276  0.1447
  115OSM   H12F12085   6.132   3.992   8.108 -0.0751 -1.1652  1.2911
  115OSM   H12G12086   6.171   4.140   8.048  0.6989  0.2120  0.9221
  115OSM   C13F12087   5.956   4.128   8.102 -0.0810 -0.5245  0.2620
  115OSM   H13F12088   5.948   4.239   8.106 -0.0429 -0.5417  0.8522
  115OSM   H13G12089   5.894   4.088   8.185  0.4466 -0.4794  0.6820
  115OSM   C14F12090   5.908   4.060   7.976  0.4405 -0.0616 -0.2990
  115OSM   H14F12091   5.966   4.104   7.892  2.2606 -0.5973  0.6344
  115OSM   H14G12092   5.801   4.083   7.955  0.2555 -1.3064 -0.8364
  115OSM   C15F12093   5.919   3.906   7.974  0.1419  0.0180  0.9192
  115OSM   H15F12094   5.880   3.861   8.067 -0.3139  1.1370  1.2783
  115OSM   H15G12095   6.027   3.878   7.967  0.2922  0.6753  0.5369
  115OSM   C16F12096   5.850   3.852   7.848  0.1978  0.4776  0.4541
  115OSM   H16F12097   5.914   3.887   7.765 -1.3352 -1.6656 -1.7593
  115OSM   H16G12098   5.751   3.901   7.832 -0.5526 -1.2361 -0.3960
  115OSM   C17F12099   5.839   3.697   7.837  0.1890  0.1664 -0.2097
  115OSM   H17F12100   5.774   3.652   7.915 -0.7513  1.9141  0.0505
  115OSM   H17G12101   5.937   3.651   7.861  0.1502  0.7394  1.1829
  115OSM   C18F12102   5.788   3.653   7.698  0.6626 -0.0539 -0.4722
  115OSM   H18F12103   5.750   3.548   7.704  0.0801  0.1687 -0.1570
  115OSM   H18G12104   5.868   3.663   7.622 -0.0177  3.0473 -0.9015
  115OSM   H18H12105   5.708   3.724   7.669 -0.6524 -1.6058 -0.8111
  116OSM      N12106   3.077   6.954   9.971 -0.4585 -0.7156  0.5424
  116OSM    C1512107   3.129   6.996  10.108 -0.1397 -0.5964  0.2116
  116OSM   H15A12108   3.119   6.915  10.179  0.7761 -0.2716  0.7221
  116OSM   H15B12109   3.065   7.076  10.143  0.8346  0.7855 -1.0457
  116OSM   H15C12110   3.232   7.026  10.103  0.3309 -1.8693  1.6534
  116OSM    C1412111   3.167   6.851   9.929 -0.4768  0.5573  0.2390
  116OSM   H14A12112   3.146   6.757   9.978 -0.2150 -0.1124 -0.8945
  116OSM   H14B12113   3.272   6.873   9.938  0.0921 -0.3055 -2.9591
  116OSM   H14C12114   3.152   6.835   9.823  0.2437 -0.5977  0.2965
  116OSM    C1312115   2.933   6.914   9.976 -0.0875  0.4493  0.3808
  116OSM   H13A12116   2.894   6.885   9.880  1.6794 -0.6304 -0.0721
  116OSM   H13B12117   2.874   6.997  10.011  0.0847  0.3097  1.0239
  116OSM   H13C12118   2.906   6.832  10.041  0.2515  0.0166 -0.0189
  116OSM    C1212119   3.086   7.081   9.879  0.2280  0.2272  0.1969
  116OSM   H12A12120   3.032   7.059   9.788 -1.0784 -0.6101  1.1410
  116OSM   H12B12121   3.185   7.111   9.848 -0.9854  2.8243 -1.5479
  116OSM    C1112122   3.030   7.214   9.930 -0.3467 -0.5700  0.1550
  116OSM   H11A12123   3.071   7.286   9.857  0.3583 -1.5094 -0.4028
  116OSM   H11B12124   3.076   7.246  10.026 -2.8327  3.3159  0.2339
  116OSM      P12125   2.819   7.234   9.803 -0.3309  0.1359 -0.4817
  116OSM    O1312126   2.894   7.189   9.691 -0.5410  0.0639 -0.1559
  116OSM    O1412127   2.680   7.191   9.815  0.2443 -0.0482  0.8061
  116OSM    O1112128   2.811   7.392   9.805  0.3913 -0.2883 -0.2866
  116OSM    O1212129   2.887   7.209   9.942  0.1594 -0.2872 -0.2853
  116OSM    C1S12130   2.908   7.463   9.717  0.3236 -0.2632 -0.7082
  116OSM    H1S12131   3.004   7.408   9.718  0.9489  0.7315  2.3014
  116OSM    H1T12132   2.920   7.568   9.752 -1.7894  0.1962 -1.2116
  116OSM     NF12133   2.933   7.559   9.489 -0.2699  0.3297 -0.6115
  116OSM    HNF12134   2.909   7.654   9.473 -2.4363 -0.1709 -0.6626
  116OSM    C2S12135   2.845   7.477   9.571  0.6983  0.6250  0.0286
  116OSM    H2S12136   2.852   7.374   9.529  0.6625  1.0168 -0.9683
  116OSM    C3S12137   2.694   7.519   9.571 -0.3715  0.0478  0.3062
  116OSM    H3S12138   2.692   7.623   9.611 -0.6546  1.7357 -3.6663
  116OSM     O312139   2.602   7.442   9.655 -0.1953 -0.0776 -0.0551
  116OSM    HO312140   2.655   7.396   9.720 -1.9303 -1.7849  0.2552
  116OSM    C4S12141   2.649   7.537   9.429 -0.7608 -0.1315 -0.4496
  116OSM    H4S12142   2.683   7.631   9.384  1.5007 -0.9236 -0.5307
  116OSM    C5S12143   2.598   7.445   9.346 -0.1514  0.1859  1.2729
  116OSM    H5S12144   2.580   7.341   9.378  0.0725 -0.9873 -2.0451
  116OSM    C6S12145   2.571   7.472   9.201 -0.1017 -0.3365 -0.2072
  116OSM    H6S12146   2.476   7.423   9.170 -1.0324  1.1303  0.2221
  116OSM    H6T12147   2.657   7.432   9.143 -1.3648 -1.2200 -1.5346
  116OSM    C7S12148   2.543   7.622   9.155  0.2454 -0.1204 -0.4821
  116OSM    H7S12149   2.642   7.672   9.161 -0.3178  0.9420  0.3293
  116OSM    H7T12150   2.485   7.682   9.228  0.4797 -0.5100  0.0358
  116OSM    C8S12151   2.485   7.628   9.012 -0.2998 -0.6135  0.5453
  116OSM    H8S12152   2.464   7.737   8.997  1.9059 -0.3455 -1.2092
  116OSM    H8T12153   2.388   7.576   8.997  0.1382 -1.7807  1.6069
  116OSM    C9S12154   2.573   7.576   8.901  0.1640  0.1230 -0.4851
  116OSM    H9S12155   2.598   7.469   8.913 -1.2930 -0.2505 -0.5178
  116OSM    H9T12156   2.661   7.643   8.893 -1.6567  3.1453  2.1349
  116OSM   C10S12157   2.498   7.594   8.767 -0.3534  0.4449 -0.3133
  116OSM   H10S12158   2.481   7.703   8.758 -1.3521  0.2537 -0.9750
  116OSM   H10T12159   2.395   7.554   8.786 -0.1511  0.6952  1.5619
  116OSM   C11S12160   2.575   7.530   8.654 -0.3065 -0.9660  0.3761
  116OSM   H11S12161   2.550   7.422   8.656 -0.5881 -0.8992  0.5973
  116OSM   H11T12162   2.684   7.536   8.676  0.8748 -0.0809 -4.5039
  116OSM   C12S12163   2.549   7.594   8.516 -0.2217 -1.0054  0.7194
  116OSM   H12S12164   2.535   7.702   8.534 -0.4599 -1.3323  2.6647
  116OSM   H12T12165   2.462   7.542   8.472  0.0536 -1.1140  0.2960
  116OSM   C13S12166   2.672   7.573   8.427  0.5134 -0.2560  0.0863
  116OSM   H13S12167   2.691   7.464   8.437  0.1877 -0.3709 -0.4527
  116OSM   H13T12168   2.761   7.637   8.449 -1.6246  2.8268  0.4939
  116OSM   C14S12169   2.634   7.579   8.279 -0.3346 -0.0651 -0.5099
  116OSM   H14S12170   2.541   7.526   8.248 -1.5331  0.4817  1.9468
  116OSM   H14T12171   2.706   7.523   8.215  0.8581 -0.3480  1.0274
  116OSM   C15S12172   2.645   7.725   8.222  0.6324  0.3073  0.3983
  116OSM   H15S12173   2.749   7.760   8.239  0.4269 -0.5328  4.2330
  116OSM   H15T12174   2.578   7.791   8.280  1.1071 -0.7535  2.2193
  116OSM   C16S12175   2.606   7.726   8.067 -0.1081  0.2940 -0.6540
  116OSM   H16S12176   2.519   7.668   8.030 -0.6082  1.2370 -0.9796
  116OSM   H16T12177   2.681   7.674   8.004  0.7428 -1.1385  1.4022
  116OSM   C17S12178   2.563   7.867   8.025  0.1646  0.1342  0.2448
  116OSM   H17S12179   2.660   7.918   8.010 -0.3588  0.4726 -2.6418
  116OSM   H17T12180   2.504   7.913   8.108  1.3712  0.5527  0.8872
  116OSM   C18S12181   2.484   7.887   7.892  0.4584 -0.2643 -0.2759
  116OSM   H18S12182   2.542   7.852   7.804 -0.0942 -1.3413 -0.2275
  116OSM   H18T12183   2.460   7.995   7.890  0.6406 -0.2177 -0.0134
  116OSM   H18U12184   2.386   7.835   7.884  0.9253 -1.2783  0.4001
  116OSM    C1F12185   3.047   7.511   9.453 -0.1763  0.0558  0.1999
  116OSM     OF12186   3.083   7.402   9.494  0.1745 -0.2702  0.0685
  116OSM    C2F12187   3.135   7.606   9.372 -0.8498  0.3762 -0.0640
  116OSM    H2F12188   3.235   7.577   9.410 -0.9942 -2.0295 -1.3266
  116OSM    H2G12189   3.102   7.711   9.390 -1.8726  0.4423 -2.0348
  116OSM    C3F12190   3.128   7.579   9.225  0.1841  0.4722  0.2270
  116OSM    H3F12191   3.084   7.479   9.202  1.2610 -0.5522  2.3882
  116OSM    H3G12192   3.233   7.553   9.199  0.3759 -0.3924  1.7347
  116OSM    C4F12193   3.075   7.689   9.130 -0.4642 -1.2307 -0.4912
  116OSM    H4F12194   3.147   7.773   9.143 -1.4309 -0.4347 -0.1989
  116OSM    H4G12195   2.976   7.728   9.161 -0.5773 -0.8077 -1.3484
  116OSM    C5F12196   3.075   7.660   8.982  1.1423 -0.1318  0.3171
  116OSM    H5F12197   3.025   7.561   8.984  0.9797 -0.0417  1.0194
  116OSM    H5G12198   3.177   7.648   8.940  1.0655 -0.3000  0.1769
  116OSM    C6F12199   3.001   7.765   8.907  0.0841 -0.6655 -0.7017
  116OSM    H6F12200   3.070   7.853   8.905 -0.7296 -0.0123 -0.5536
  116OSM    H6G12201   2.917   7.800   8.971  0.4095 -1.1427 -0.0079
  116OSM    C7F12202   2.941   7.734   8.772 -0.2905  0.9312 -0.0962
  116OSM    H7F12203   2.836   7.769   8.763 -1.9810 -3.5412 -0.2854
  116OSM    H7G12204   2.925   7.625   8.756 -1.4387  0.9624  0.7604
  116OSM    C8F12205   3.004   7.798   8.659 -0.8101 -0.4764  0.4971
  116OSM    H8F12206   2.990   7.908   8.671 -0.4961 -0.4522  0.6378
  116OSM    H8G12207   2.943   7.783   8.567 -0.7021  0.1553  0.3145
  116OSM    C9F12208   3.150   7.774   8.649 -1.0463  0.1774  0.1890
  116OSM    H9F12209   3.209   7.787   8.740 -0.4870 -0.7231 -0.0320
  116OSM   C10F12210   3.215   7.726   8.538  0.3451 -0.6414 -0.0958
  116OSM   H10F12211   3.324   7.712   8.544  0.5722  0.5405 -1.0170
  116OSM   C11F12212   3.145   7.684   8.413  0.5323  0.0773  0.9729
  116OSM   H11F12213   3.048   7.736   8.396  0.5457 -0.5739 -1.4974
  116OSM   H11G12214   3.113   7.578   8.421 -4.9392  1.4092  0.9219
  116OSM   C12F12215   3.225   7.696   8.285  0.5489 -0.1631 -0.9471
  116OSM   H12F12216   3.326   7.651   8.295  0.6357  0.2618  0.3856
  116OSM   H12G12217   3.246   7.804   8.268  2.1666 -0.0111  1.3825
  116OSM   C13F12218   3.151   7.637   8.167  0.0592  0.9614 -0.4512
  116OSM   H13F12219   3.042   7.648   8.186 -0.0808 -0.9676  0.0436
  116OSM   H13G12220   3.169   7.528   8.164  1.2793  1.0895  1.1092
  116OSM   C14F12221   3.177   7.701   8.036  0.3899  0.6100 -0.3064
  116OSM   H14F12222   3.282   7.713   8.002  0.5205  0.4302  0.0338
  116OSM   H14G12223   3.131   7.802   8.045  1.8560  1.3448 -0.8707
  116OSM   C15F12224   3.092   7.628   7.929 -0.3988  0.6677 -0.6843
  116OSM   H15F12225   2.997   7.607   7.983 -0.8424  1.1101 -1.2804
  116OSM   H15G12226   3.146   7.533   7.907 -1.5074  0.0800 -0.9438
  116OSM   C16F12227   3.066   7.702   7.799 -0.6983  0.9062  0.4249
  116OSM   H16F12228   2.996   7.788   7.813 -1.6763  0.4671 -1.4471
  116OSM   H16G12229   3.036   7.644   7.709 -0.3516  1.3799 -0.0072
  116OSM   C17F12230   3.200   7.769   7.747 -0.3316  0.3441 -1.5675
  116OSM   H17F12231   3.281   7.694   7.730 -0.3366 -0.4169  1.3199
  116OSM   H17G12232   3.234   7.837   7.827  1.7214 -0.4993 -1.6484
  116OSM   C18F12233   3.180   7.851   7.624  0.1916 -0.0975 -1.3036
  116OSM   H18F12234   3.099   7.922   7.653 -1.3019 -2.6620  1.3393
  116OSM   H18G12235   3.142   7.789   7.540 -0.0257 -1.4267 -0.2615
  116OSM   H18H12236   3.265   7.913   7.586 -0.3673  1.0727 -0.7105
  117OSM      N12237   1.169   1.598   9.980 -0.1603  0.0773  0.0265
  117OSM    C1512238   1.025   1.582   9.938 -0.1284 -0.2328 -0.6060
  117OSM   H15A12239   0.965   1.558  10.024 -0.6428 -2.8626 -1.6206
  117OSM   H15B12240   1.012   1.506   9.862 -1.0262 -1.7355  0.9851
  117OSM   H15C12241   0.994   1.678   9.899  1.8254  0.6162 -0.2032
  117OSM    C1412242   1.176   1.712  10.077  0.2003  0.4425  0.4266
  117OSM   H14A12243   1.273   1.719  10.123  0.4627  0.2312 -0.0904
  117OSM   H14B12244   1.099   1.688  10.150  0.9366 -2.1527  0.4704
  117OSM   H14C12245   1.162   1.809  10.032 -2.1560 -0.2393 -0.4770
  117OSM    C1312246   1.208   1.472  10.043 -0.1641 -0.1014  0.0601
  117OSM   H13A12247   1.309   1.486  10.080 -0.2362  3.4405 -0.7250
  117OSM   H13B12248   1.199   1.384   9.982 -2.2367 -1.8002  2.6075
  117OSM   H13C12249   1.154   1.450  10.134 -1.1533  0.6599 -0.3173
  117OSM    C1212250   1.253   1.635   9.858  0.1209  0.3415 -0.6033
  117OSM   H12A12251   1.356   1.638   9.890  1.1234 -0.7029 -3.4632
  117OSM   H12B12252   1.234   1.740   9.838  0.8079  0.5258 -0.3252
  117OSM    C1112253   1.253   1.543   9.735 -0.1196  0.5006 -0.3236
  117OSM   H11A12254   1.304   1.610   9.662 -2.4642  0.4301 -2.1205
  117OSM   H11B12255   1.148   1.532   9.701 -0.2648  1.7522 -0.3412
  117OSM      P12256   1.463   1.400   9.783  0.1820  0.6376  0.3318
  117OSM    O1312257   1.522   1.501   9.874  0.4989 -0.0897 -0.5448
  117OSM    O1412258   1.478   1.258   9.820 -0.3951  0.1249 -0.6640
  117OSM    O1112259   1.514   1.434   9.637  0.1363  0.4070  0.3707
  117OSM    O1212260   1.312   1.416   9.772  0.6026  0.7143 -0.4910
  117OSM    C1S12261   1.548   1.331   9.549 -0.0490 -0.1048 -0.0550
  117OSM    H1S12262   1.509   1.232   9.582 -0.7412  0.3141  0.4201
  117OSM    H1T12263   1.657   1.316   9.535 -0.1418 -1.0903  0.1524
  117OSM     NF12264   1.512   1.244   9.318 -0.5784  0.0818 -0.1960
  117OSM    HNF12265   1.598   1.237   9.267 -0.1003  0.1856  0.5866
  117OSM    C2S12266   1.480   1.355   9.407 -0.3618 -0.5647  0.2297
  117OSM    H2S12267   1.371   1.362   9.426 -0.7036 -1.0818 -1.3418
  117OSM    C3S12268   1.522   1.493   9.351 -0.0392  0.4999 -0.2638
  117OSM    H3S12269   1.633   1.501   9.350 -0.0036  0.1049  0.2133
  117OSM     O312270   1.492   1.603   9.441 -0.8006  0.2915  0.0097
  117OSM    HO312271   1.503   1.559   9.526 -0.2065 -0.3588 -0.3936
  117OSM    C4S12272   1.451   1.522   9.219  0.2618  0.7423 -0.8637
  117OSM    H4S12273   1.355   1.575   9.226  1.2078  2.3776  4.0431
  117OSM    C5S12274   1.507   1.491   9.099 -0.2329  0.2830 -0.1753
  117OSM    H5S12275   1.609   1.449   9.088  0.3896  1.5862  0.4047
  117OSM    C6S12276   1.448   1.525   8.967 -0.8086  0.0924 -0.3729
  117OSM    H6S12277   1.460   1.635   8.960 -0.6940  0.4556  3.3784
  117OSM    H6T12278   1.337   1.511   8.971 -0.9559  1.0298  3.6552
  117OSM    C7S12279   1.489   1.444   8.845  0.1331 -0.0020  0.4423
  117OSM    H7S12280   1.450   1.341   8.843 -1.2060  0.4598  1.4668
  117OSM    H7T12281   1.599   1.446   8.830 -0.0532  0.3977 -1.0068
  117OSM    C8S12282   1.423   1.512   8.719 -0.0754  0.5926 -0.2193
  117OSM    H8S12283   1.443   1.621   8.732  3.9113 -0.0156  0.0492
  117OSM    H8T12284   1.313   1.506   8.731 -0.6634  1.1457 -4.0122
  117OSM    C9S12285   1.455   1.461   8.578 -0.2071 -0.6836  0.1534
  117OSM    H9S12286   1.565   1.466   8.558 -0.0442 -3.2105  0.0569
  117OSM    H9T12287   1.415   1.529   8.500  0.7457 -0.7441 -0.4137
  117OSM   C10S12288   1.430   1.312   8.555 -0.0014 -0.4800 -0.0819
  117OSM   H10S12289   1.331   1.286   8.600 -0.4009  1.8895  0.5630
  117OSM   H10T12290   1.511   1.251   8.599 -0.0483 -2.0157 -2.0063
  117OSM   C11S12291   1.441   1.266   8.408  0.3911  0.3273  0.3121
  117OSM   H11S12292   1.448   1.155   8.409  1.6369  0.2808 -2.3056
  117OSM   H11T12293   1.535   1.306   8.362  0.8494  0.8873  1.6907
  117OSM   C12S12294   1.309   1.312   8.334  0.7966  0.1222  0.3649
  117OSM   H12S12295   1.323   1.421   8.318  2.4225 -0.2959 -1.4132
  117OSM   H12T12296   1.217   1.287   8.391 -2.1587  0.7482 -3.7038
  117OSM   C13S12297   1.290   1.250   8.196  0.2736 -0.0561 -0.1597
  117OSM   H13S12298   1.301   1.140   8.203  3.2056  0.1776  0.1940
  117OSM   H13T12299   1.368   1.283   8.123  0.6303 -1.9134 -0.6633
  117OSM   C14S12300   1.150   1.294   8.148  0.1246 -0.2432  0.4308
  117OSM   H14S12301   1.069   1.249   8.209  1.6784 -1.4330  1.7185
  117OSM   H14T12302   1.138   1.262   8.042 -0.8728 -1.3866  0.8686
  117OSM   C15S12303   1.123   1.447   8.153  0.0039  1.0276 -0.1950
  117OSM   H15S12304   1.192   1.505   8.088  3.2851  1.9782  3.6692
  117OSM   H15T12305   1.134   1.482   8.258 -0.5322  0.5636  0.0202
  117OSM   C16S12306   0.980   1.480   8.115 -0.6926  0.1980  0.7139
  117OSM   H16S12307   0.951   1.426   8.022 -0.5571  1.0877  0.1423
  117OSM   H16T12308   0.971   1.588   8.093 -0.5772  0.0201 -0.2371
  117OSM   C17S12309   0.879   1.442   8.225 -0.4536 -0.5470 -0.3302
  117OSM   H17S12310   0.925   1.469   8.323 -0.1042  1.4930 -1.0018
  117OSM   H17T12311   0.857   1.334   8.223 -1.3325 -0.3762 -2.9146
  117OSM   C18S12312   0.753   1.525   8.201  0.4980  0.0715 -0.9086
  117OSM   H18S12313   0.777   1.633   8.205  1.6841 -0.1883 -0.7887
  117OSM   H18T12314   0.682   1.512   8.286  0.2088  1.1753 -0.9614
  117OSM   H18U12315   0.707   1.508   8.101 -0.1533  0.6085 -0.7100
  117OSM    C1F12316   1.458   1.124   9.333  0.4694  0.6077 -0.1658
  117OSM     OF12317   1.367   1.100   9.412  0.0025 -0.9837 -0.2908
  117OSM    C2F12318   1.513   1.023   9.237  0.0543  0.7508  0.0377
  117OSM    H2F12319   1.589   0.965   9.293 -0.7810 -0.7804 -0.3285
  117OSM    H2G12320   1.564   1.077   9.155 -0.6017  1.8338  0.3255
  117OSM    C3F12321   1.402   0.932   9.189 -0.5874  0.0018 -0.0505
  117OSM    H3F12322   1.326   0.994   9.136  1.1326  1.2394 -1.1562
  117OSM    H3G12323   1.351   0.886   9.277 -2.8558  0.2474 -1.1586
  117OSM    C4F12324   1.445   0.819   9.096 -0.4332  0.0835 -0.3220
  117OSM    H4F12325   1.381   0.732   9.121 -0.2063  0.1764  0.6358
  117OSM    H4G12326   1.551   0.793   9.112 -0.3102  0.0279 -1.1745
  117OSM    C5F12327   1.422   0.855   8.947 -0.2073 -0.2515  0.2965
  117OSM    H5F12328   1.489   0.939   8.920  0.0740 -0.0890  1.4640
  117OSM    H5G12329   1.319   0.897   8.933  0.9450  3.0621  0.8006
  117OSM    C6F12330   1.440   0.726   8.859  0.1887 -0.8557 -0.6566
  117OSM    H6F12331   1.376   0.652   8.911  2.3220 -1.9947  0.4757
  117OSM    H6G12332   1.545   0.692   8.868 -0.1574 -1.4058  2.1101
  117OSM    C7F12333   1.411   0.734   8.711 -0.0425  0.1519 -0.3098
  117OSM    H7F12334   1.302   0.743   8.693 -0.3005 -0.0182  1.0605
  117OSM    H7G12335   1.444   0.636   8.670  0.3570  0.3677 -0.5081
  117OSM    C8F12336   1.480   0.852   8.642  0.0508 -0.3677  0.6360
  117OSM    H8F12337   1.431   0.939   8.691 -1.2135 -1.6857  1.8046
  117OSM    H8G12338   1.452   0.849   8.535  4.3806 -0.5716 -0.6756
  117OSM    C9F12339   1.636   0.854   8.638 -0.0386 -0.2605  0.7476
  117OSM    H9F12340   1.684   0.925   8.707 -1.8045  1.6754  0.0988
  117OSM   C10F12341   1.709   0.764   8.575 -0.3179  0.7026  0.9630
  117OSM   H10F12342   1.819   0.766   8.589 -0.1672 -1.1733  0.3828
  117OSM   C11F12343   1.662   0.657   8.473  0.6514 -0.0223 -1.0402
  117OSM   H11F12344   1.560   0.619   8.495  0.6228  1.2366  1.2635
  117OSM   H11G12345   1.714   0.560   8.489  0.0354  0.0558  1.9333
  117OSM   C12F12346   1.673   0.696   8.324  0.1520  0.3027  0.3602
  117OSM   H12F12347   1.659   0.599   8.272  0.0179  0.4123  0.1931
  117OSM   H12G12348   1.777   0.725   8.302 -0.0849  1.0164  0.1648
  117OSM   C13F12349   1.575   0.813   8.283 -0.3919  0.3113 -0.2195
  117OSM   H13F12350   1.596   0.893   8.357  1.1854 -0.0662 -0.2273
  117OSM   H13G12351   1.467   0.791   8.300 -0.8758  2.9588  0.4718
  117OSM   C14F12352   1.604   0.849   8.134  0.3575 -0.0437  0.4289
  117OSM   H14F12353   1.650   0.761   8.084  0.8486  1.6087 -2.2275
  117OSM   H14G12354   1.679   0.928   8.116  0.1812 -0.2306 -1.3150
  117OSM   C15F12355   1.472   0.885   8.073  0.0604  0.6362 -0.2682
  117OSM   H15F12356   1.431   0.965   8.138  0.9359  0.3864  0.6293
  117OSM   H15G12357   1.402   0.798   8.073  0.1171  0.5904 -0.3599
  117OSM   C16F12358   1.486   0.961   7.941  0.0078  0.6023 -0.9162
  117OSM   H16F12359   1.515   0.885   7.865 -1.2331 -0.7564 -0.0857
  117OSM   H16G12360   1.564   1.039   7.949  0.6383  0.0440 -1.5267
  117OSM   C17F12361   1.354   1.030   7.904  0.1178  0.6757 -0.3810
  117OSM   H17F12362   1.297   1.080   7.985  1.2994  0.5621  0.5395
  117OSM   H17G12363   1.282   0.960   7.857 -1.5063  0.6648  1.9857
  117OSM   C18F12364   1.371   1.125   7.777  0.2487  0.7598  0.4664
  117OSM   H18F12365   1.272   1.159   7.739 -0.1251 -0.6514  0.1000
  117OSM   H18G12366   1.427   1.071   7.698 -0.7306 -0.2978  0.4670
  117OSM   H18H12367   1.424   1.215   7.815  0.2941  2.0901 -2.4533
  118OSM      N12368   0.662   2.008  10.316  0.0462  0.5179  0.9079
  118OSM    C1512369   0.806   2.042  10.326 -0.3144 -1.0963  0.2283
  118OSM   H15A12370   0.839   2.090  10.235  0.9001 -1.7002  0.3290
  118OSM   H15B12371   0.856   1.947  10.344  1.7374 -0.4552 -1.5975
  118OSM   H15C12372   0.833   2.114  10.402  0.0235  0.1023 -1.0013
  118OSM    C1412373   0.630   1.944  10.449 -0.0102 -0.5587 -0.1566
  118OSM   H14A12374   0.524   1.928  10.440 -0.1672  1.2649 -2.6088
  118OSM   H14B12375   0.643   2.024  10.521  0.8592 -1.0959  0.3005
  118OSM   H14C12376   0.685   1.857  10.483  3.8617  1.5569 -0.4215
  118OSM    C1312377   0.588   2.142  10.293  0.5280  0.0064 -0.1563
  118OSM   H13A12378   0.611   2.211  10.372 -0.9099  0.4111 -0.0581
  118OSM   H13B12379   0.480   2.135  10.288  0.4527  0.0940  1.1985
  118OSM   H13C12380   0.623   2.193  10.204  0.4320 -0.0761 -0.2429
  118OSM    C1212381   0.643   1.909  10.201 -0.4646 -0.0281 -0.9251
  118OSM   H12A12382   0.698   1.818  10.217  1.9954  1.5269  0.0486
  118OSM   H12B12383   0.691   1.950  10.113  0.3794  1.7679  0.3110
  118OSM    C1112384   0.494   1.869  10.165  0.4861  0.2611  0.1754
  118OSM   H11A12385   0.438   1.849  10.259  0.8239  3.9814  1.2968
  118OSM   H11B12386   0.495   1.787  10.089 -2.5271  1.3429 -1.2218
  118OSM      P12387   0.280   2.003  10.097 -0.0201  0.0609 -0.1964
  118OSM    O1312388   0.197   1.883  10.065  0.4417 -0.1148  0.0976
  118OSM    O1412389   0.252   2.068  10.231 -0.1537  0.3523 -0.0376
  118OSM    O1112390   0.249   2.110   9.988  0.7119 -0.2237 -0.2038
  118OSM    O1212391   0.433   1.978  10.094 -0.2682  0.2103 -0.2379
  118OSM    C1S12392   0.348   2.191   9.927 -0.2361 -0.1003 -0.0330
  118OSM    H1S12393   0.429   2.130   9.882  0.3656  1.2106 -0.7793
  118OSM    H1T12394   0.389   2.260  10.005  0.6669 -1.1929  0.4913
  118OSM     NF12395   0.398   2.362   9.770  0.6927 -0.1623  0.0073
  118OSM    HNF12396   0.398   2.457   9.800 -3.0267 -0.0328  0.0013
  118OSM    C2S12397   0.290   2.282   9.817  0.4348 -0.1823 -0.1380
  118OSM    H2S12398   0.256   2.216   9.735 -0.3966  0.5944 -0.4352
  118OSM    C3S12399   0.163   2.362   9.858 -0.6278 -0.7440  0.5059
  118OSM    H3S12400   0.196   2.441   9.929  2.1385 -0.3124 -1.1406
  118OSM     O312401   0.059   2.295   9.937  0.4077 -0.4862  0.4880
  118OSM    HO312402   0.103   2.221   9.981  0.1382 -0.1006  1.4136
  118OSM    C4S12403   0.099   2.433   9.738 -0.9100  0.2817  0.3258
  118OSM    H4S12404   0.119   2.541   9.728 -1.9519  0.4312 -0.4020
  118OSM    C5S12405   0.021   2.370   9.645  0.4497  0.3085 -0.3017
  118OSM    H5S12406  -0.021   2.272   9.674 -0.0972  0.8789  0.8907
  118OSM    C6S12407  -0.049   2.443   9.537 -0.1180 -0.3998  0.2597
  118OSM    H6S12408  -0.157   2.452   9.564 -0.3029 -1.4077 -0.1024
  118OSM    H6T12409  -0.041   2.380   9.446 -1.3337  1.4190 -1.1658
  118OSM    C7S12410   0.002   2.580   9.487  0.3434  0.3526 -0.3890
  118OSM    H7S12411   0.104   2.572   9.444  1.4128  2.2614  1.5716
  118OSM    H7T12412   0.022   2.646   9.574 -0.0326  1.2122 -0.9400
  118OSM    C8S12413  -0.097   2.645   9.387 -0.3821  0.1257 -0.5942
  118OSM    H8S12414  -0.059   2.742   9.346 -2.6254  1.3005 -0.0336
  118OSM    H8T12415  -0.196   2.654   9.437  0.0001 -1.2415  0.4431
  118OSM    C9S12416  -0.120   2.555   9.260 -0.7509 -0.8552 -0.0959
  118OSM    H9S12417  -0.158   2.462   9.307  0.0382  0.1872  2.8647
  118OSM    H9T12418  -0.024   2.522   9.214 -1.2659 -1.1238 -0.9966
  118OSM   C10S12419  -0.220   2.611   9.163 -0.6004 -0.7428 -0.5588
  118OSM   H10S12420  -0.214   2.718   9.136 -1.1897 -0.7103 -0.5618
  118OSM   H10T12421  -0.323   2.590   9.200 -0.2740  1.6358  1.9760
  118OSM   C11S12422  -0.194   2.544   9.027  0.2276  0.0207 -0.3268
  118OSM   H11S12423  -0.154   2.441   9.043  0.2301  0.1401  0.4590
  118OSM   H11T12424  -0.111   2.590   8.970  0.9119  0.5478  1.0502
  118OSM   C12S12425  -0.328   2.541   8.938 -0.1514 -0.2671 -0.4691
  118OSM   H12S12426  -0.356   2.645   8.909  0.3784 -0.3863 -1.4567
  118OSM   H12T12427  -0.414   2.502   8.996  1.2345  0.8255  2.5265
  118OSM   C13S12428  -0.317   2.452   8.815  0.2178  1.1056  0.0240
  118OSM   H13S12429  -0.415   2.431   8.768  0.6264 -0.1654 -0.3110
  118OSM   H13T12430  -0.289   2.354   8.858 -3.0293  0.7690  1.6770
  118OSM   C14S12431  -0.215   2.492   8.702 -0.1456  0.0511 -0.9428
  118OSM   H14S12432  -0.110   2.483   8.737 -0.6362 -0.0589  0.5784
  118OSM   H14T12433  -0.235   2.598   8.675  1.8585  0.7773  0.1884
  118OSM   C15S12434  -0.227   2.411   8.578  0.6841  0.7955 -0.4781
  118OSM   H15S12435  -0.332   2.419   8.542  0.3383 -2.0948 -0.3428
  118OSM   H15T12436  -0.214   2.306   8.611 -0.1304  0.9003  0.2038
  118OSM   C16S12437  -0.130   2.442   8.472 -0.3596 -0.2345  0.0670
  118OSM   H16S12438  -0.139   2.367   8.390  0.2318 -0.9265  0.6244
  118OSM   H16T12439  -0.025   2.432   8.507 -0.3448 -2.2523 -0.4012
  118OSM   C17S12440  -0.135   2.590   8.421 -0.3294 -0.2170  0.0794
  118OSM   H17S12441  -0.043   2.606   8.360 -0.7373 -0.1722 -0.5323
  118OSM   H17T12442  -0.124   2.653   8.512  0.3053  0.5432 -0.5067
  118OSM   C18S12443  -0.250   2.615   8.331 -0.4064  0.0025 -0.8163
  118OSM   H18S12444  -0.343   2.592   8.388  0.6904 -3.1443 -0.0770
  118OSM   H18T12445  -0.261   2.537   8.252 -2.0179 -1.0238  0.3603
  118OSM   H18U12446  -0.248   2.721   8.298 -0.8505  0.3521  0.2334
  118OSM    C1F12447   0.491   2.318   9.686 -0.3220 -0.4020 -0.1223
  118OSM     OF12448   0.473   2.210   9.635  0.3764 -0.6976 -0.5441
  118OSM    C2F12449   0.601   2.406   9.654  0.0179 -0.2359 -0.1800
  118OSM    H2F12450   0.689   2.374   9.714  3.0649  1.4086 -3.4007
  118OSM    H2G12451   0.569   2.510   9.674  0.7903 -0.2892  1.4420
  118OSM    C3F12452   0.646   2.389   9.504 -0.0374  0.2820  0.1875
  118OSM    H3F12453   0.552   2.411   9.448 -0.0792  0.9907  0.5179
  118OSM    H3G12454   0.682   2.285   9.502 -1.1497 -0.1783  1.9081
  118OSM    C4F12455   0.762   2.482   9.457  0.2654  0.9548  0.4692
  118OSM    H4F12456   0.829   2.465   9.544 -1.2098  1.8535  1.8304
  118OSM    H4G12457   0.735   2.589   9.463 -0.6573  0.8059 -0.6209
  118OSM    C5F12458   0.824   2.447   9.321  0.0693 -0.3762 -0.5991
  118OSM    H5F12459   0.860   2.342   9.332  0.9316  0.0440  0.9403
  118OSM    H5G12460   0.908   2.517   9.302  1.0362 -1.2468  0.3238
  118OSM    C6F12461   0.725   2.445   9.206  0.0077  0.4404 -0.0216
  118OSM    H6F12462   0.675   2.543   9.193 -0.7800  0.1029  0.3582
  118OSM    H6G12463   0.643   2.373   9.226 -0.5429  1.7805  3.2306
  118OSM    C7F12464   0.808   2.406   9.083 -0.1642  0.7718  0.7627
  118OSM    H7F12465   0.844   2.301   9.086 -0.4912  0.5531 -1.3977
  118OSM    H7G12466   0.891   2.480   9.077  0.1630  0.4861  1.7100
  118OSM    C8F12467   0.721   2.408   8.951  0.0990 -0.2008  0.2688
  118OSM    H8F12468   0.796   2.399   8.869 -0.8802 -0.8464 -0.6005
  118OSM    H8G12469   0.676   2.508   8.938 -1.0120 -0.8577 -1.3247
  118OSM    C9F12470   0.615   2.299   8.942  0.1649 -0.6228 -0.3754
  118OSM    H9F12471   0.514   2.330   8.973  0.6467  0.1535  0.4652
  118OSM   C10F12472   0.613   2.180   8.882 -0.0237  0.2520  0.3218
  118OSM   H10F12473   0.521   2.121   8.884  0.9236 -1.3680 -0.7989
  118OSM   C11F12474   0.734   2.113   8.805  0.0944  0.3833 -0.2288
  118OSM   H11F12475   0.830   2.156   8.841 -1.4927  0.8189  3.9256
  118OSM   H11G12476   0.721   2.122   8.694  2.1932 -0.4190 -0.5830
  118OSM   C12F12477   0.734   1.960   8.849  0.1945 -0.2119  0.5737
  118OSM   H12F12478   0.633   1.915   8.834  0.8386 -0.9900 -1.8762
  118OSM   H12G12479   0.758   1.935   8.955 -0.6273 -1.0684  0.5726
  118OSM   C13F12480   0.822   1.874   8.754 -0.4702 -0.0238  0.1747
  118OSM   H13F12481   0.775   1.891   8.654 -1.5283 -0.5555  0.5679
  118OSM   H13G12482   0.812   1.769   8.789 -1.3462  0.3028  0.9182
  118OSM   C14F12483   0.973   1.902   8.752 -0.7660 -0.3992  0.7658
  118OSM   H14F12484   1.015   1.881   8.853 -1.0925 -0.6199  0.8589
  118OSM   H14G12485   0.974   2.010   8.726 -2.0948  0.3905  3.5237
  118OSM   C15F12486   1.048   1.817   8.647 -1.0682  0.4805  0.0620
  118OSM   H15F12487   0.995   1.842   8.553  1.1098  0.8391 -1.1336
  118OSM   H15G12488   1.030   1.710   8.671 -2.2957  1.2003  2.7555
  118OSM   C16F12489   1.194   1.864   8.630  0.8722 -0.2011 -0.0835
  118OSM   H16F12490   1.249   1.841   8.724 -0.5002  1.2374  1.1384
  118OSM   H16G12491   1.204   1.973   8.609  2.4524  0.3673  2.9434
  118OSM   C17F12492   1.263   1.792   8.511 -0.6780 -0.8359 -0.0440
  118OSM   H17F12493   1.190   1.771   8.430 -4.2735 -1.0753  3.0343
  118OSM   H17G12494   1.293   1.691   8.544 -2.8512 -1.4843  0.0829
  118OSM   C18F12495   1.372   1.884   8.456  0.2409 -0.4439 -0.7972
  118OSM   H18F12496   1.328   1.985   8.449  1.9257  0.5548  1.7873
  118OSM   H18G12497   1.412   1.857   8.356  0.8378  1.7388 -1.1941
  118OSM   H18H12498   1.459   1.890   8.525 -2.2400  1.5031  2.4527
  119OSM      N12499   1.408   0.293   9.795  0.0095 -0.3029 -0.6465
  119OSM    C1512500   1.543   0.338   9.778  0.2618  0.1118  0.5289
  119OSM   H15A12501   1.560   0.441   9.804  4.0175 -0.4683  1.0424
  119OSM   H15B12502   1.574   0.319   9.676 -0.7622  1.3743 -0.0388
  119OSM   H15C12503   1.621   0.293   9.838 -0.3707 -0.3692  1.0089
  119OSM    C1412504   1.373   0.331   9.937 -0.0352  0.0005 -0.1641
  119OSM   H14A12505   1.380   0.438   9.939  1.7254 -0.0934  1.1112
  119OSM   H14B12506   1.445   0.291  10.007  0.0189  1.0868  0.4205
  119OSM   H14C12507   1.270   0.303   9.956  0.3647 -2.4052 -1.1520
  119OSM    C1312508   1.329   0.376   9.694  0.1914 -0.0472  0.0181
  119OSM   H13A12509   1.347   0.338   9.594  1.2059  0.0956  0.1350
  119OSM   H13B12510   1.349   0.482   9.700 -0.1837  0.0271 -0.0329
  119OSM   H13C12511   1.225   0.353   9.715 -0.1897 -0.9196 -2.4852
  119OSM    C1212512   1.397   0.148   9.762  0.1086  0.3506 -0.4616
  119OSM   H12A12513   1.292   0.121   9.758 -0.3658  1.9777 -0.1979
  119OSM   H12B12514   1.450   0.090   9.835 -1.9334 -0.2339  0.6531
  119OSM    C1112515   1.445   0.105   9.622  0.0895  0.3276 -0.8980
  119OSM   H11A12516   1.395   0.164   9.542 -1.6277  0.5733  0.2865
  119OSM   H11B12517   1.401   0.004   9.608  1.4995 -0.9426  2.5456
  119OSM      P12518   1.690   0.028   9.664 -0.0917 -0.5054  0.0773
  119OSM    O1312519   1.753   0.099   9.771  0.0805 -0.4664  0.0195
  119OSM    O1412520   1.634  -0.108   9.691 -0.4235 -0.0876  0.1790
  119OSM    O1112521   1.793   0.023   9.543 -0.5884  0.4352 -0.1656
  119OSM    O1212522   1.582   0.119   9.601 -0.8442 -0.2551 -0.1476
  119OSM    C1S12523   1.871   0.131   9.493 -0.1741 -0.2008  0.1841
  119OSM    H1S12524   1.978   0.102   9.497  0.1012  0.4936 -1.1921
  119OSM    H1T12525   1.875   0.221   9.558  1.0707  0.0899 -0.2584
  119OSM     NF12526   1.965   0.202   9.276 -0.3959  0.3863 -0.2645
  119OSM    HNF12527   2.007   0.292   9.284  1.5166 -0.3920 -1.0437
  119OSM    C2S12528   1.843   0.178   9.348  0.1663 -0.6405 -0.3121
  119OSM    H2S12529   1.781   0.099   9.302  1.4847 -3.0257  1.7791
  119OSM    C3S12530   1.750   0.305   9.345 -0.5108 -0.2673  0.4729
  119OSM    H3S12531   1.807   0.387   9.394  0.0613 -0.2582 -0.1967
  119OSM     O312532   1.624   0.296   9.409 -0.6596 -0.5311 -0.7303
  119OSM    HO312533   1.614   0.213   9.455 -2.9438  0.4347  0.6697
  119OSM    C4S12534   1.721   0.348   9.208 -0.0883  0.6149 -0.3993
  119OSM    H4S12535   1.646   0.288   9.153  0.3107  0.2655 -0.5648
  119OSM    C5S12536   1.773   0.458   9.159 -0.6400 -0.2662 -0.5223
  119OSM    H5S12537   1.851   0.510   9.217 -0.8498  0.2902 -0.7251
  119OSM    C6S12538   1.771   0.511   9.020 -0.2948 -0.0001  0.0538
  119OSM    H6S12539   1.732   0.615   9.014 -2.5255 -0.6596  1.7465
  119OSM    H6T12540   1.698   0.457   8.956  1.3515 -1.8224 -0.4010
  119OSM    C7S12541   1.914   0.494   8.958 -0.3539 -1.2913  0.2800
  119OSM    H7S12542   1.921   0.384   8.945  0.4982 -1.4255  1.6689
  119OSM    H7T12543   1.994   0.538   9.021  0.6085  1.4795 -2.6215
  119OSM    C8S12544   1.901   0.553   8.814 -0.2170  0.1986  0.9526
  119OSM    H8S12545   1.872   0.660   8.810 -0.3108  0.1669  0.7460
  119OSM    H8T12546   1.816   0.499   8.767 -0.8803  1.6038  0.4543
  119OSM    C9S12547   2.036   0.542   8.747 -0.1287 -1.0092 -0.2386
  119OSM    H9S12548   2.083   0.447   8.779 -0.5861 -1.1637 -0.0219
  119OSM    H9T12549   2.107   0.615   8.792 -1.1670  0.6806 -1.2151
  119OSM   C10S12550   2.044   0.560   8.598  0.1925  0.5188  0.2210
  119OSM   H10S12551   2.001   0.659   8.571 -1.5823 -0.2469  0.0872
  119OSM   H10T12552   1.990   0.478   8.546  0.0425  0.8635 -0.1742
  119OSM   C11S12553   2.187   0.551   8.549 -0.3157  0.3789 -0.2006
  119OSM   H11S12554   2.223   0.460   8.602 -0.8972 -0.8177 -1.7780
  119OSM   H11T12555   2.248   0.636   8.587 -1.6243  0.3579  2.1337
  119OSM   C12S12556   2.195   0.532   8.393  0.2074 -0.1902  0.0720
  119OSM   H12S12557   2.113   0.462   8.364  0.1180  0.2294 -0.7145
  119OSM   H12T12558   2.297   0.492   8.376 -0.4373 -1.5149 -0.9051
  119OSM   C13S12559   2.169   0.672   8.322  0.1055  0.2899  0.1745
  119OSM   H13S12560   2.241   0.747   8.362  0.1370 -0.3984  1.4819
  119OSM   H13T12561   2.068   0.710   8.348 -0.6429 -0.3504 -1.6781
  119OSM   C14S12562   2.167   0.673   8.168  0.2640  0.0660  0.3927
  119OSM   H14S12563   2.271   0.639   8.150 -0.2976 -0.9292 -1.2120
  119OSM   H14T12564   2.160   0.778   8.132 -3.0020 -0.1733  0.0446
  119OSM   C15S12565   2.068   0.584   8.099  0.9394  0.8087 -0.5786
  119OSM   H15S12566   1.963   0.602   8.131  0.7228 -0.3242 -0.6086
  119OSM   H15T12567   2.100   0.479   8.115 -0.8574  0.4680  1.1169
  119OSM   C16S12568   2.052   0.608   7.943  0.1453 -0.5586 -0.3690
  119OSM   H16S12569   1.996   0.526   7.891  1.2345 -0.5226 -1.6492
  119OSM   H16T12570   2.150   0.594   7.894  1.4769 -0.7550  2.1889
  119OSM   C17S12571   1.987   0.748   7.920 -0.6999 -0.2628  0.8552
  119OSM   H17S12572   2.063   0.817   7.963  0.6027 -2.2912  2.0315
  119OSM   H17T12573   1.896   0.741   7.984 -0.2791 -1.9135  1.3198
  119OSM   C18S12574   1.954   0.784   7.772 -0.3102 -0.0450  0.0992
  119OSM   H18S12575   1.926   0.891   7.776  0.5481  0.2642 -1.3462
  119OSM   H18T12576   1.879   0.712   7.734 -0.5279  1.8000 -3.4433
  119OSM   H18U12577   2.041   0.785   7.702  1.8046 -1.9952  2.5202
  119OSM    C1F12578   2.042   0.105   9.233 -0.0530 -0.5853 -0.4953
  119OSM     OF12579   2.032  -0.009   9.280  0.4791  0.0875 -0.3799
  119OSM    C2F12580   2.138   0.144   9.135 -0.2685 -0.0869 -0.0468
  119OSM    H2F12581   2.231   0.083   9.131  0.1214  0.4151 -5.2110
  119OSM    H2G12582   2.171   0.248   9.155 -0.4200 -0.5765  3.3223
  119OSM    C3F12583   2.083   0.116   8.995  0.0464 -0.8840 -0.5634
  119OSM    H3F12584   1.988   0.170   8.979  2.6417  4.6139  0.3216
  119OSM    H3G12585   2.094   0.007   8.977  1.6700 -0.9502  0.5611
  119OSM    C4F12586   2.165   0.190   8.887  0.2660 -0.0508  0.4259
  119OSM    H4F12587   2.216   0.276   8.936  1.6273 -0.4294 -0.2787
  119OSM    H4G12588   2.085   0.216   8.815 -2.9227 -0.6686  3.4650
  119OSM    C5F12589   2.281   0.117   8.807  0.5150  0.2979 -0.6205
  119OSM    H5F12590   2.337   0.191   8.745  4.4480 -1.8114  0.1097
  119OSM    H5G12591   2.236   0.043   8.737  0.5114  0.9778 -1.3537
  119OSM    C6F12592   2.380   0.048   8.902  0.3161  0.8557  0.2617
  119OSM    H6F12593   2.326  -0.032   8.958 -1.1450  2.3258  1.0567
  119OSM    H6G12594   2.416   0.114   8.984 -0.2036  0.5177  0.7757
  119OSM    C7F12595   2.496  -0.013   8.824 -0.6260 -0.9829  0.4479
  119OSM    H7F12596   2.575   0.063   8.809 -3.0127  1.5696  0.1605
  119OSM    H7G12597   2.461  -0.048   8.724 -0.5430 -0.8151  0.3605
  119OSM    C8F12598   2.551  -0.133   8.904  0.8621  0.0749  0.1837
  119OSM    H8F12599   2.470  -0.208   8.917 -0.2944  0.4045 -3.6407
  119OSM    H8G12600   2.576  -0.100   9.007 -0.3781 -1.2055  0.9319
  119OSM    C9F12601   2.666  -0.199   8.830 -0.1235  0.9173  0.0857
  119OSM    H9F12602   2.763  -0.192   8.881 -0.2940  1.1835  0.3712
  119OSM   C10F12603   2.659  -0.283   8.727 -0.6175 -0.7961 -1.1799
  119OSM   H10F12604   2.754  -0.326   8.693  1.0074  0.5037  1.4484
  119OSM   C11F12605   2.536  -0.332   8.659  0.4171 -0.5505 -0.0581
  119OSM   H11F12606   2.446  -0.286   8.706  2.0066  1.2116  1.4088
  119OSM   H11G12607   2.518  -0.440   8.679  0.6936 -0.5525  0.1871
  119OSM   C12F12608   2.522  -0.302   8.513  0.0252  0.3945 -0.8854
  119OSM   H12F12609   2.535  -0.196   8.485 -0.0786  0.2223 -1.6190
  119OSM   H12G12610   2.416  -0.316   8.483 -0.4212  2.1462 -0.2043
  119OSM   C13F12611   2.614  -0.382   8.425 -0.3641  0.0488  0.1667
  119OSM   H13F12612   2.582  -0.489   8.421  0.1194 -0.0732 -0.5364
  119OSM   H13G12613   2.714  -0.385   8.473 -0.6781  0.3686  0.8611
  119OSM   C14F12614   2.638  -0.330   8.283 -0.0471 -0.3413  0.6075
  119OSM   H14F12615   2.716  -0.392   8.235 -0.6992 -0.4311 -0.3467
  119OSM   H14G12616   2.669  -0.225   8.302  0.0252  0.6682 -4.0748
  119OSM   C15F12617   2.514  -0.312   8.193  0.3557 -0.0958 -0.3687
  119OSM   H15F12618   2.444  -0.259   8.261  0.9580 -1.6682  1.5789
  119OSM   H15G12619   2.473  -0.410   8.159 -0.1426 -0.1740  0.4387
  119OSM   C16F12620   2.543  -0.223   8.068 -0.4384  0.3106 -0.9746
  119OSM   H16F12621   2.632  -0.269   8.020  0.4541 -0.9669  1.6953
  119OSM   H16G12622   2.576  -0.124   8.107  0.3801 -0.1161 -0.5755
  119OSM   C17F12623   2.431  -0.214   7.972 -0.1414 -0.1220 -0.1927
  119OSM   H17F12624   2.342  -0.168   8.019 -2.3632 -2.4501 -1.8661
  119OSM   H17G12625   2.397  -0.317   7.949  0.7313 -0.3091 -0.6826
  119OSM   C18F12626   2.464  -0.129   7.849 -0.4761 -0.3190 -0.3911
  119OSM   H18F12627   2.554  -0.170   7.797  0.3677 -2.2886  2.3969
  119OSM   H18G12628   2.472  -0.023   7.880  1.0306 -1.2770  2.9371
  119OSM   H18H12629   2.383  -0.137   7.773  0.6850 -2.3357 -1.5279
  120OSM      N12630   0.406   6.479   9.782  0.4215  0.3072 -0.0132
  120OSM    C1512631   0.406   6.398   9.911  0.1581 -0.3360  0.2057
  120OSM   H15A12632   0.504   6.404   9.955  0.6378  2.6578 -1.0636
  120OSM   H15B12633   0.368   6.297   9.900 -0.6608 -0.2171  1.6458
  120OSM   H15C12634   0.328   6.448   9.967 -1.2718  0.4576 -2.3231
  120OSM    C1412635   0.452   6.623   9.811 -0.6201  0.5780 -0.8123
  120OSM   H14A12636   0.402   6.662   9.899  0.3143  0.3697 -0.1688
  120OSM   H14B12637   0.447   6.690   9.727  1.0719  0.5688 -0.9491
  120OSM   H14C12638   0.556   6.627   9.838 -0.8446 -1.6335  0.7141
  120OSM    C1312639   0.496   6.422   9.683 -0.5730 -0.6174 -0.1724
  120OSM   H13A12640   0.487   6.456   9.581 -0.9612 -1.7260 -0.5227
  120OSM   H13B12641   0.488   6.315   9.677 -0.0693 -0.6474 -0.3297
  120OSM   H13C12642   0.595   6.447   9.717 -1.2104 -0.6534  1.8742
  120OSM    C1212643   0.264   6.489   9.724 -0.6793 -0.0786  0.8514
  120OSM   H12A12644   0.271   6.554   9.638 -0.8371  0.5895  1.3408
  120OSM   H12B12645   0.199   6.541   9.793 -0.9526  2.3466 -1.0921
  120OSM    C1112646   0.206   6.351   9.688  0.0577 -0.0763 -0.0009
  120OSM   H11A12647   0.278   6.306   9.616 -2.9882 -1.0774 -2.6588
  120OSM   H11B12648   0.112   6.359   9.631  0.4086  0.2524 -0.5449
  120OSM      P12649   0.176   6.114   9.792  0.0079  0.1827 -0.1163
  120OSM    O1312650   0.302   6.056   9.846  0.1164  0.3278 -0.4249
  120OSM    O1412651   0.050   6.064   9.848 -0.1217  0.1391 -0.6595
  120OSM    O1112652   0.158   6.091   9.643  0.0697  0.6462  0.7265
  120OSM    O1212653   0.182   6.270   9.799 -0.2915 -0.0876  0.0041
  120OSM    C1S12654   0.274   6.053   9.565  0.3679  0.0107  0.5689
  120OSM    H1S12655   0.311   5.952   9.593 -0.2012 -0.5170 -0.5208
  120OSM    H1T12656   0.361   6.122   9.569  0.2773  0.1817 -0.2086
  120OSM     NF12657   0.364   6.002   9.340  0.0565 -0.2543  0.4418
  120OSM    HNF12658   0.416   6.078   9.303 -0.9873  0.2069 -0.1046
  120OSM    C2S12659   0.241   6.036   9.410 -0.9570 -0.3845  0.1746
  120OSM    H2S12660   0.178   5.944   9.404 -0.7397 -0.6013  1.1087
  120OSM    C3S12661   0.165   6.151   9.346  0.0081 -0.4776 -0.3688
  120OSM    H3S12662   0.230   6.239   9.368 -0.0548  0.0548 -2.1133
  120OSM     O312663   0.040   6.189   9.416 -0.1812  0.7146  0.2150
  120OSM    HO312664   0.057   6.142   9.498  0.7072 -3.2644 -1.9788
  120OSM    C4S12665   0.143   6.146   9.195 -0.5372  0.0433  0.3868
  120OSM    H4S12666   0.108   6.052   9.150 -1.2217  0.2136  0.5380
  120OSM    C5S12667   0.178   6.242   9.108 -0.0922 -0.8361 -0.0512
  120OSM    H5S12668   0.238   6.329   9.139  0.2342 -1.0386 -0.1116
  120OSM    C6S12669   0.151   6.227   8.968 -0.2440 -0.2789  0.1839
  120OSM    H6S12670   0.122   6.323   8.920 -0.5851 -0.5240 -0.1063
  120OSM    H6T12671   0.071   6.151   8.954 -1.0527  0.5780  0.0582
  120OSM    C7S12672   0.271   6.168   8.897  0.5024  0.0997 -0.0141
  120OSM    H7S12673   0.302   6.071   8.941  1.0769  1.0062  1.6535
  120OSM    H7T12674   0.357   6.234   8.920  0.2373 -0.5550  3.3020
  120OSM    C8S12675   0.255   6.147   8.739  0.5344 -0.5320  0.5902
  120OSM    H8S12676   0.203   6.230   8.687  2.5440 -0.6172 -1.7458
  120OSM    H8T12677   0.197   6.053   8.729  0.4109 -0.3229 -0.8527
  120OSM    C9S12678   0.392   6.134   8.658  0.7362 -0.1255 -0.0820
  120OSM    H9S12679   0.450   6.049   8.700 -1.2102 -1.1721  0.6257
  120OSM    H9T12680   0.447   6.229   8.673 -1.0080  1.6873 -3.7091
  120OSM   C10S12681   0.368   6.123   8.510 -0.1052 -0.0551 -0.8082
  120OSM   H10S12682   0.318   6.220   8.486 -1.3558 -1.0040 -2.2608
  120OSM   H10T12683   0.301   6.036   8.496 -0.6644  0.3037 -0.4405
  120OSM   C11S12684   0.504   6.115   8.440 -0.0477  0.6139 -0.5878
  120OSM   H11S12685   0.577   6.046   8.487 -1.2693 -0.5359 -0.3063
  120OSM   H11T12686   0.559   6.210   8.456  2.7038 -0.7726 -1.3305
  120OSM   C12S12687   0.490   6.092   8.294 -0.2992 -0.3223  0.9788
  120OSM   H12S12688   0.438   6.176   8.243 -1.2788 -1.0827  0.7061
  120OSM   H12T12689   0.425   6.004   8.279 -0.6509 -0.0246  0.7474
  120OSM   C13S12690   0.626   6.064   8.230 -0.3448 -0.3434  0.1087
  120OSM   H13S12691   0.689   5.984   8.276  3.8431  1.1522 -2.4386
  120OSM   H13T12692   0.690   6.153   8.245 -2.1719  1.3504 -1.5885
  120OSM   C14S12693   0.606   6.038   8.084 -0.1710 -0.0446  0.6291
  120OSM   H14S12694   0.574   6.133   8.038 -1.2260  0.5283  2.4602
  120OSM   H14T12695   0.541   5.949   8.070  1.4121 -1.3925  1.3933
  120OSM   C15S12696   0.750   6.002   8.029  1.0282  0.0088  0.4829
  120OSM   H15S12697   0.775   5.906   8.079  1.6197  1.5714  3.4445
  120OSM   H15T12698   0.834   6.064   8.068  1.4967 -0.8679  0.9251
  120OSM   C16S12699   0.768   6.004   7.871  0.3302 -0.1992 -1.1315
  120OSM   H16S12700   0.672   5.975   7.825 -0.5643 -0.5602  0.8599
  120OSM   H16T12701   0.849   5.933   7.843 -1.2066 -2.1612 -0.8076
  120OSM   C17S12702   0.809   6.141   7.807  0.3350 -0.1994  0.0315
  120OSM   H17S12703   0.865   6.211   7.873 -0.9861  0.0308  0.9400
  120OSM   H17T12704   0.725   6.209   7.781  1.8994  1.4702 -0.8800
  120OSM   C18S12705   0.889   6.121   7.679 -0.3369  0.0848  0.9661
  120OSM   H18S12706   0.997   6.104   7.701 -0.1016 -0.3715 -0.4701
  120OSM   H18T12707   0.898   6.212   7.617  1.0321 -1.5860 -1.4383
  120OSM   H18U12708   0.848   6.043   7.611  1.7311 -1.0731  0.9522
  120OSM    C1F12709   0.435   5.890   9.354  0.5552 -0.2485  0.1108
  120OSM     OF12710   0.401   5.809   9.437 -0.6001  0.1630  0.0707
  120OSM    C2F12711   0.562   5.876   9.282 -0.2909 -0.6248 -0.1827
  120OSM    H2F12712   0.598   5.771   9.278  3.0920  0.4009 -0.3853
  120OSM    H2G12713   0.634   5.938   9.340 -1.7669 -1.1028  2.2547
  120OSM    C3F12714   0.564   5.913   9.137  0.2455 -0.1290  0.5972
  120OSM    H3F12715   0.547   6.021   9.119 -2.7418 -0.4662  0.9612
  120OSM    H3G12716   0.488   5.849   9.087 -1.5855  1.6158  1.0225
  120OSM    C4F12717   0.707   5.893   9.082 -0.4646  0.4930 -0.7228
  120OSM    H4F12718   0.736   5.789   9.106 -0.6368  0.9944  2.0028
  120OSM    H4G12719   0.780   5.961   9.132 -1.1156 -0.8766  2.3581
  120OSM    C5F12720   0.719   5.917   8.929 -0.7196  0.2495  0.0778
  120OSM    H5F12721   0.824   5.908   8.897 -1.3326 -2.0745 -1.5442
  120OSM    H5G12722   0.669   6.016   8.919 -0.7693  0.0543 -1.8493
  120OSM    C6F12723   0.654   5.816   8.839  0.6216  0.2602  0.1566
  120OSM    H6F12724   0.543   5.813   8.848  0.4095 -1.4993 -2.0865
  120OSM    H6G12725   0.693   5.712   8.852  1.0068 -0.0292 -2.6708
  120OSM    C7F12726   0.687   5.845   8.698  0.3587 -0.1103 -0.6202
  120OSM    H7F12727   0.797   5.848   8.686  0.4004 -0.1338 -0.2299
  120OSM    H7G12728   0.647   5.946   8.673 -2.9743 -1.1228  0.0917
  120OSM    C8F12729   0.639   5.746   8.594  0.4586 -0.0517  0.3551
  120OSM    H8F12730   0.675   5.648   8.633 -1.0168 -0.2401  1.3107
  120OSM    H8G12731   0.689   5.773   8.498 -1.3197 -2.1203 -1.2718
  120OSM    C9F12732   0.483   5.746   8.575 -0.3813  0.4252 -0.8784
  120OSM    H9F12733   0.434   5.844   8.581 -1.0824  0.2086 -2.5052
  120OSM   C10F12734   0.412   5.634   8.566 -0.2409 -1.1348  0.1994
  120OSM   H10F12735   0.302   5.639   8.575 -0.4654 -1.5036 -1.9567
  120OSM   C11F12736   0.462   5.494   8.546  0.5246  0.0251 -0.9257
  120OSM   H11F12737   0.440   5.431   8.635  0.7589  0.8799 -0.2445
  120OSM   H11G12738   0.569   5.494   8.514  0.5672  1.3857 -0.8200
  120OSM   C12F12739   0.371   5.447   8.439 -0.2311 -0.2523  0.5456
  120OSM   H12F12740   0.392   5.510   8.350 -1.6971 -0.5430 -0.0324
  120OSM   H12G12741   0.265   5.468   8.462  0.5315  1.4761  2.8182
  120OSM   C13F12742   0.381   5.298   8.404  0.2128  0.2488  0.4767
  120OSM   H13F12743   0.326   5.235   8.478  0.7748  0.4773  1.1016
  120OSM   H13G12744   0.485   5.259   8.410 -0.4506 -1.6353  0.3060
  120OSM   C14F12745   0.326   5.270   8.262 -0.5452  0.2740 -0.2777
  120OSM   H14F12746   0.399   5.309   8.187 -0.4860  1.3754  0.3330
  120OSM   H14G12747   0.221   5.304   8.252 -1.2416 -1.5950  0.1836
  120OSM   C15F12748   0.318   5.120   8.241 -0.5277  0.3057  0.2409
  120OSM   H15F12749   0.250   5.065   8.309  0.4539 -0.5091  0.5965
  120OSM   H15G12750   0.418   5.073   8.251 -0.5496  0.4383  1.1271
  120OSM   C16F12751   0.282   5.081   8.092  0.3202 -0.0357 -0.4114
  120OSM   H16F12752   0.183   5.123   8.063  1.9036  5.4177  0.9512
  120OSM   H16G12753   0.277   4.970   8.081  0.4164 -0.0806 -0.0051
  120OSM   C17F12754   0.376   5.122   7.977  0.0367  0.8377 -0.1596
  120OSM   H17F12755   0.472   5.084   8.017 -1.0138 -1.9345 -0.0529
  120OSM   H17G12756   0.386   5.232   7.965  1.6301  0.8162  0.7038
  120OSM   C18F12757   0.357   5.047   7.841 -0.8443  0.3416 -0.1757
  120OSM   H18F12758   0.350   4.938   7.859 -1.3526 -0.2593 -3.5122
  120OSM   H18G12759   0.429   5.076   7.763 -0.1182  0.5175  0.5477
  120OSM   H18H12760   0.260   5.069   7.790 -0.9709  1.4936  0.5017
  121OSM      N12761   6.821   1.911  10.333 -0.2046  0.0278  0.6318
  121OSM    C1512762   6.682   1.899  10.279 -0.8683  0.2864  0.2150
  121OSM   H15A12763   6.616   1.841  10.341 -0.0542 -1.4810 -0.5038
  121OSM   H15B12764   6.688   1.848  10.184 -0.3678 -1.3188  1.0835
  121OSM   H15C12765   6.644   1.995  10.245  1.2985  0.0844 -3.2452
  121OSM    C1412766   6.810   1.993  10.457  0.0625  0.3004  0.2186
  121OSM   H14A12767   6.778   2.092  10.429  2.5138  1.1894  0.3937
  121OSM   H14B12768   6.906   2.004  10.505  0.0321  0.2950  0.2805
  121OSM   H14C12769   6.739   1.945  10.523 -1.8890  1.8687 -0.5975
  121OSM    C1312770   6.875   1.777  10.374  0.3801 -0.3927  0.0576
  121OSM   H13A12771   6.974   1.790  10.415  0.5175 -0.4987 -0.2396
  121OSM   H13B12772   6.883   1.714  10.287  2.1352  1.3126 -1.1076
  121OSM   H13C12773   6.812   1.736  10.452 -1.8194  1.5241 -0.5969
  121OSM    C1212774   6.910   1.979  10.229 -0.3722 -0.8923  0.2440
  121OSM   H12A12775   7.009   1.985  10.272 -1.1287 -0.6439  2.0472
  121OSM   H12B12776   6.869   2.075  10.199  0.8520 -0.3721  0.1673
  121OSM    C1112777   6.956   1.907  10.091 -0.2790  0.4651 -0.3721
  121OSM   H11A12778   7.020   1.819  10.115 -1.4441 -0.2738  0.0945
  121OSM   H11B12779   7.022   1.970  10.027  0.5480  0.2635  0.2609
  121OSM      P12780   6.756   1.999   9.942  0.4274  0.3655  0.2171
  121OSM    O1312781   6.638   1.927   9.881  0.2156 -0.6114 -0.0377
  121OSM    O1412782   6.738   2.105  10.039 -0.3480 -0.7285 -0.0555
  121OSM    O1112783   6.852   2.041   9.825  0.0960 -0.4560  0.3467
  121OSM    O1212784   6.832   1.877  10.017 -0.7020  0.4643  0.5905
  121OSM    C1S12785   6.903   1.943   9.732  0.0834  0.9762  0.2028
  121OSM    H1S12786   6.875   1.840   9.761 -1.9235  1.3836 -0.0930
  121OSM    H1T12787   7.014   1.935   9.729 -0.0520 -1.6054 -0.0524
  121OSM     NF12788   6.926   1.870   9.504 -0.1163  0.4028  0.0689
  121OSM    HNF12789   7.011   1.882   9.453 -0.0814  2.5008  0.5279
  121OSM    C2S12790   6.865   1.981   9.584 -0.1751 -0.5652  0.2367
  121OSM    H2S12791   6.755   1.969   9.579  0.0587 -2.6490 -1.1785
  121OSM    C3S12792   6.904   2.124   9.539 -0.1561  0.3904  0.3058
  121OSM    H3S12793   7.014   2.129   9.555 -0.2933 -0.8060  1.8204
  121OSM     O312794   6.857   2.214   9.636  0.4003 -0.7592 -0.0204
  121OSM    HO312795   6.840   2.154   9.710 -0.9275 -0.9138 -0.4339
  121OSM    C4S12796   6.864   2.147   9.403  0.8158 -0.9843  0.1865
  121OSM    H4S12797   6.759   2.179   9.396  0.4928 -1.5625  1.9002
  121OSM    C5S12798   6.931   2.131   9.290  0.0456 -1.0791  0.8905
  121OSM    H5S12799   7.033   2.093   9.297 -0.2136 -2.2006 -0.9387
  121OSM    C6S12800   6.875   2.145   9.150  0.0111 -0.6713 -0.4683
  121OSM    H6S12801   6.904   2.058   9.086  1.1730  1.4758 -3.0520
  121OSM    H6T12802   6.928   2.227   9.097 -1.5608  0.1729 -0.7897
  121OSM    C7S12803   6.724   2.187   9.135 -0.4282 -0.3200  0.4589
  121OSM    H7S12804   6.717   2.297   9.149 -0.9342 -0.0278 -1.7787
  121OSM    H7T12805   6.664   2.126   9.205 -1.6457 -0.3654 -0.5999
  121OSM    C8S12806   6.681   2.145   8.999 -0.1933  0.9580 -0.0780
  121OSM    H8S12807   6.665   2.035   9.005  0.3183  0.9309  1.1966
  121OSM    H8T12808   6.769   2.167   8.934  1.7739 -0.5300  1.9043
  121OSM    C9S12809   6.549   2.204   8.955 -0.2546 -0.4156  0.1003
  121OSM    H9S12810   6.532   2.305   8.998 -2.4086 -0.6154 -0.1771
  121OSM    H9T12811   6.482   2.148   9.024 -1.4697  0.0083 -0.7120
  121OSM   C10S12812   6.516   2.194   8.805 -0.2365 -0.1427 -0.1705
  121OSM   H10S12813   6.605   2.247   8.764  0.7461 -0.9595  0.8150
  121OSM   H10T12814   6.423   2.252   8.785 -0.4312 -1.6712 -4.7176
  121OSM   C11S12815   6.516   2.054   8.741  0.4667 -0.2249 -0.5296
  121OSM   H11S12816   6.424   2.001   8.775  0.5599  0.7073  1.2767
  121OSM   H11T12817   6.612   2.015   8.780  1.1819  1.7720 -0.1850
  121OSM   C12S12818   6.525   2.049   8.585 -0.4451  0.1699 -0.5150
  121OSM   H12S12819   6.623   2.097   8.566 -1.6416  2.7150 -0.7627
  121OSM   H12T12820   6.454   2.129   8.555  3.1292  3.4797 -0.9825
  121OSM   C13S12821   6.499   1.914   8.530  0.1122  0.1509  0.1658
  121OSM   H13S12822   6.391   1.888   8.533  0.1931 -0.3107 -0.6119
  121OSM   H13T12823   6.550   1.832   8.585 -0.8128 -0.3419  0.3222
  121OSM   C14S12824   6.521   1.905   8.374 -0.2418 -0.1745 -0.3085
  121OSM   H14S12825   6.605   1.975   8.357  0.0746 -0.5484 -0.3061
  121OSM   H14T12826   6.431   1.950   8.327  0.0635  0.1243 -0.6137
  121OSM   C15S12827   6.554   1.771   8.309 -0.0085 -0.6209 -0.0539
  121OSM   H15S12828   6.464   1.706   8.312 -1.6824  1.5428  3.0504
  121OSM   H15T12829   6.638   1.714   8.353 -0.1230 -0.0324  0.9676
  121OSM   C16S12830   6.582   1.782   8.156 -0.5838  0.2567  0.2981
  121OSM   H16S12831   6.501   1.839   8.105 -0.5409  0.5908  0.5971
  121OSM   H16T12832   6.577   1.677   8.121 -1.7533  0.7145 -0.9734
  121OSM   C17S12833   6.714   1.842   8.122  0.1722 -0.0053  0.2007
  121OSM   H17S12834   6.796   1.773   8.153 -2.1627 -3.2783 -0.4546
  121OSM   H17T12835   6.716   1.940   8.175 -1.3180 -0.8529  1.9308
  121OSM   C18S12836   6.730   1.869   7.968 -0.9997  0.2984 -0.8275
  121OSM   H18S12837   6.649   1.934   7.930 -0.7025  1.2115  0.0590
  121OSM   H18T12838   6.731   1.768   7.921  0.3760 -0.2520  0.3013
  121OSM   H18U12839   6.826   1.921   7.948  0.3438 -0.9154  1.9315
  121OSM    C1F12840   6.875   1.741   9.512 -0.4316  0.1688 -0.8708
  121OSM     OF12841   6.770   1.713   9.574 -0.1636  0.0973  0.2943
  121OSM    C2F12842   6.961   1.636   9.446 -0.1211 -0.4259  0.0694
  121OSM    H2F12843   6.995   1.568   9.527  0.4239  0.0674  0.2633
  121OSM    H2G12844   7.055   1.673   9.400  0.4227 -2.0564 -0.1871
  121OSM    C3F12845   6.882   1.545   9.352  0.3442  0.6550 -0.1220
  121OSM    H3F12846   6.814   1.475   9.406  0.7979  0.2589 -0.0606
  121OSM    H3G12847   6.962   1.484   9.304 -0.7982 -0.8097 -0.2383
  121OSM    C4F12848   6.816   1.610   9.233  0.6902 -0.4012  0.4134
  121OSM    H4F12849   6.734   1.674   9.272  1.0543 -0.1694  0.8072
  121OSM    H4G12850   6.769   1.540   9.161 -0.1042  0.3755  0.1574
  121OSM    C5F12851   6.916   1.685   9.146  0.1613 -0.0042  0.0219
  121OSM    H5F12852   6.992   1.610   9.115  0.6222  0.8903 -1.1278
  121OSM    H5G12853   6.960   1.755   9.220  0.3939  0.1196 -0.2286
  121OSM    C6F12854   6.858   1.766   9.027 -0.5337 -0.3256  0.3399
  121OSM    H6F12855   6.791   1.850   9.056 -1.6080 -2.2173  3.9188
  121OSM    H6G12856   6.793   1.686   8.985  0.4515 -1.7710  1.4609
  121OSM    C7F12857   6.975   1.839   8.951  0.5930  1.0743 -0.1943
  121OSM    H7F12858   7.050   1.764   8.918 -0.3769  1.0023 -2.3948
  121OSM    H7G12859   7.026   1.908   9.023  2.1980  0.6224 -0.8548
  121OSM    C8F12860   6.943   1.909   8.821 -0.3174  0.8340 -0.1014
  121OSM    H8F12861   7.035   1.951   8.775 -0.3330  0.3791 -0.5592
  121OSM    H8G12862   6.880   1.998   8.847  0.6948  1.3995  0.4563
  121OSM    C9F12863   6.870   1.830   8.711  0.5325  0.0419 -0.7460
  121OSM    H9F12864   6.798   1.757   8.751  0.7698  0.3288  0.2171
  121OSM   C10F12865   6.905   1.823   8.582  0.1261  0.0839 -0.5187
  121OSM   H10F12866   6.840   1.762   8.518 -1.1612 -0.6955  1.4385
  121OSM   C11F12867   7.009   1.893   8.507 -0.1543  0.5105 -0.3001
  121OSM   H11F12868   7.084   1.914   8.586 -1.2107 -1.5955  1.3543
  121OSM   H11G12869   6.967   1.990   8.473  2.0269  0.8037 -2.4513
  121OSM   C12F12870   7.079   1.827   8.394  0.3592 -0.7798  0.6040
  121OSM   H12F12871   7.001   1.787   8.325  0.0433 -0.0520  0.5343
  121OSM   H12G12872   7.141   1.745   8.438 -0.2814 -1.5296  0.1321
  121OSM   C13F12873   7.180   1.922   8.313 -0.0250  0.1044 -0.2350
  121OSM   H13F12874   7.243   1.975   8.387 -0.4250  2.6398 -1.5923
  121OSM   H13G12875   7.114   2.001   8.271 -1.5730  0.1344  2.0697
  121OSM   C14F12876   7.264   1.849   8.216 -0.3656 -0.4841 -0.3470
  121OSM   H14F12877   7.203   1.785   8.149  0.4736 -2.2244  0.4931
  121OSM   H14G12878   7.344   1.797   8.274  0.5010  3.4048  2.4083
  121OSM   C15F12879   7.335   1.964   8.132  0.1940  0.2233 -0.4701
  121OSM   H15F12880   7.418   2.016   8.185 -1.1664  2.0644 -0.0768
  121OSM   H15G12881   7.255   2.031   8.097 -0.4312 -0.0884  0.3259
  121OSM   C16F12882   7.386   1.914   8.004 -0.2680  1.0388  0.7504
  121OSM   H16F12883   7.306   1.868   7.942 -0.1447 -0.5122  1.6680
  121OSM   H16G12884   7.470   1.840   8.008 -0.3644  0.7694 -1.1921
  121OSM   C17F12885   7.449   2.017   7.904 -0.1471  0.2074 -0.6294
  121OSM   H17F12886   7.383   2.104   7.888  0.6197  0.6698 -1.3657
  121OSM   H17G12887   7.459   1.969   7.804  2.3751 -0.4938 -0.1351
  121OSM   C18F12888   7.586   2.060   7.952 -1.0077  0.1855  0.6535
  121OSM   H18F12889   7.643   2.126   7.882 -2.9515  2.4918  1.1342
  121OSM   H18G12890   7.642   1.969   7.983  0.1507  0.4681 -0.4923
  121OSM   H18H12891   7.574   2.109   8.051  1.5263  2.1134  0.1406
  122OSM      N12892   6.575   0.887   9.888  0.1624  0.1171  0.2740
  122OSM    C1512893   6.723   0.903   9.911 -0.0112  0.0683 -0.7723
  122OSM   H15A12894   6.794   0.839   9.861  2.1677  1.0201  0.9006
  122OSM   H15B12895   6.743   0.888  10.016 -1.3494  1.7593 -0.2257
  122OSM   H15C12896   6.750   1.005   9.889 -0.3395 -0.0396 -1.7444
  122OSM    C1412897   6.550   0.742   9.927  0.0624 -0.6354 -0.0070
  122OSM   H14A12898   6.606   0.680   9.858 -1.2735  0.1769 -1.9262
  122OSM   H14B12899   6.444   0.725   9.913 -0.3124  1.7538 -0.5590
  122OSM   H14C12900   6.571   0.723  10.031 -1.7741  1.7700  0.8931
  122OSM    C1312901   6.512   0.985   9.980 -0.4732  0.5328  0.2299
  122OSM   H13A12902   6.545   0.976  10.083 -1.6701 -0.6035  0.5452
  122OSM   H13B12903   6.404   0.980   9.978 -0.4236 -0.2395 -1.2389
  122OSM   H13C12904   6.532   1.083   9.940  2.5708 -0.3964 -0.7366
  122OSM    C1212905   6.543   0.906   9.748  0.4100  0.4437  0.2694
  122OSM   H12A12906   6.553   1.006   9.708 -1.5347 -0.2026 -2.1064
  122OSM   H12B12907   6.437   0.915   9.730  0.7653  1.3198 -1.6003
  122OSM    C1112908   6.605   0.814   9.647  0.0580  0.8402  0.3922
  122OSM   H11A12909   6.716   0.820   9.648  0.4296 -2.5936 -1.7025
  122OSM   H11B12910   6.582   0.863   9.550  2.7270  0.9196 -0.2740
  122OSM      P12911   6.414   0.636   9.600 -0.2842  0.3681  0.1780
  122OSM    O1312912   6.366   0.513   9.669  0.4004  0.2508 -0.1391
  122OSM    O1412913   6.319   0.749   9.600  0.3319  0.1504  0.4968
  122OSM    O1112914   6.449   0.609   9.447  0.5261  0.1551 -0.1564
  122OSM    O1212915   6.552   0.685   9.667 -0.4228 -0.1446 -0.0895
  122OSM    C1S12916   6.563   0.531   9.413  0.1278 -0.1633  0.2942
  122OSM    H1S12917   6.541   0.422   9.405  0.2487 -0.0518 -2.6928
  122OSM    H1T12918   6.641   0.537   9.492  0.2431 -1.1788  0.2724
  122OSM     NF12919   6.742   0.494   9.234  0.4807  0.1713  0.0578
  122OSM    HNF12920   6.828   0.545   9.237  0.3058  0.4367  0.8129
  122OSM    C2S12921   6.633   0.583   9.274 -0.5937  0.1153 -0.0959
  122OSM    H2S12922   6.556   0.570   9.194  1.4289  0.3721 -2.1959
  122OSM    C3S12923   6.658   0.731   9.271  0.0063 -0.8153 -0.1795
  122OSM    H3S12924   6.724   0.763   9.354  0.3817 -0.8792 -0.4530
  122OSM     O312925   6.539   0.805   9.306 -0.5163 -0.5167  0.0093
  122OSM    HO312926   6.483   0.744   9.353  1.0767 -0.4276  2.2159
  122OSM    C4S12927   6.710   0.772   9.136  0.4404 -0.1105  0.6532
  122OSM    H4S12928   6.630   0.759   9.062  0.6515  1.8901  0.0162
  122OSM    C5S12929   6.830   0.805   9.092  0.0001 -0.4092  0.4512
  122OSM    H5S12930   6.906   0.795   9.171 -0.3180  0.5591  0.8804
  122OSM    C6S12931   6.870   0.835   8.948  0.9240  0.1298 -0.1747
  122OSM    H6S12932   6.960   0.775   8.922  1.0972  0.9008 -1.4195
  122OSM    H6T12933   6.916   0.936   8.949  0.2905  0.5425 -3.1256
  122OSM    C7S12934   6.761   0.831   8.838  0.2542 -0.2711 -0.1531
  122OSM    H7S12935   6.685   0.906   8.868 -0.0271  0.1043 -1.7268
  122OSM    H7T12936   6.715   0.729   8.844 -0.1605 -0.0150  1.7672
  122OSM    C8S12937   6.822   0.868   8.704  0.8795  0.6179  0.2422
  122OSM    H8S12938   6.898   0.789   8.686  1.1712  0.8253  0.5386
  122OSM    H8T12939   6.871   0.967   8.696  0.9387  0.9865  3.5204
  122OSM    C9S12940   6.715   0.875   8.597 -0.6086  1.0068 -0.1775
  122OSM    H9S12941   6.655   0.967   8.610 -0.0197  1.2705  0.8025
  122OSM    H9T12942   6.648   0.787   8.608 -0.0998  0.5817 -0.4042
  122OSM   C10S12943   6.776   0.882   8.457 -0.0541 -0.4348  0.3323
  122OSM   H10S12944   6.825   0.784   8.437  0.3816 -0.9202  3.3822
  122OSM   H10T12945   6.843   0.970   8.452  0.0531 -0.5897 -2.0396
  122OSM   C11S12946   6.660   0.893   8.355 -0.5883 -0.0549  0.8851
  122OSM   H11S12947   6.572   0.944   8.401 -2.3171  0.6564 -2.8879
  122OSM   H11T12948   6.626   0.788   8.351  0.6005 -0.4411  0.6712
  122OSM   C12S12949   6.704   0.955   8.223 -0.2391 -0.7170  0.2981
  122OSM   H12S12950   6.799   0.900   8.204 -0.6342 -1.2920 -0.0035
  122OSM   H12T12951   6.733   1.062   8.230 -2.8975 -0.0344  2.3688
  122OSM   C13S12952   6.611   0.942   8.109  0.0321  0.2805 -0.5554
  122OSM   H13S12953   6.515   0.990   8.137  0.2196  1.5018 -1.9026
  122OSM   H13T12954   6.593   0.833   8.094  1.8314 -0.3752  1.5086
  122OSM   C14S12955   6.664   0.995   7.982 -0.0356 -0.0883  1.3535
  122OSM   H14S12956   6.774   1.003   7.999  0.0585 -1.1351  1.3003
  122OSM   H14T12957   6.637   1.103   7.972 -0.5502 -0.3928 -1.2247
  122OSM   C15S12958   6.633   0.929   7.847 -0.3989  0.2431  0.1606
  122OSM   H15S12959   6.694   0.973   7.766  0.1060 -0.3595  0.2060
  122OSM   H15T12960   6.529   0.958   7.821 -0.0219 -0.4914 -2.4407
  122OSM   C16S12961   6.644   0.780   7.840 -0.6465  0.5549 -0.0429
  122OSM   H16S12962   6.576   0.733   7.914  0.9192 -0.4338  0.8287
  122OSM   H16T12963   6.742   0.748   7.882 -1.3946  0.5552  1.8217
  122OSM   C17S12964   6.631   0.719   7.700  0.1126 -0.3070  0.1910
  122OSM   H17S12965   6.651   0.611   7.713  2.3933 -0.0644 -0.8111
  122OSM   H17T12966   6.705   0.774   7.638  0.1591 -1.2153 -0.5780
  122OSM   C18S12967   6.491   0.730   7.636  0.2643  0.3102  0.6327
  122OSM   H18S12968   6.493   0.681   7.537  0.2103  0.0329  0.7673
  122OSM   H18T12969   6.459   0.837   7.635  1.1958  0.6032  1.1898
  122OSM   H18U12970   6.422   0.660   7.688 -0.0415 -1.7372 -2.2969
  122OSM    C1F12971   6.747   0.358   9.220 -0.5977 -0.1110  0.1011
  122OSM     OF12972   6.654   0.283   9.252 -0.1707 -0.1052 -0.1651
  122OSM    C2F12973   6.859   0.305   9.146 -0.4198  0.2577 -0.2937
  122OSM    H2F12974   6.951   0.365   9.159  0.8862 -1.6518 -0.2512
  122OSM    H2G12975   6.829   0.321   9.040  0.9911  0.2098 -0.7207
  122OSM    C3F12976   6.886   0.155   9.184  0.3060  0.5876  0.1207
  122OSM    H3F12977   6.795   0.094   9.171  0.5213  0.2708  0.0906
  122OSM    H3G12978   6.926   0.146   9.287  1.1689 -0.4333 -0.2785
  122OSM    C4F12979   6.998   0.093   9.106 -0.0609 -0.4957  0.3005
  122OSM    H4F12980   6.960   0.097   9.002  1.3483 -0.3694 -0.2244
  122OSM    H4G12981   6.998  -0.013   9.141 -0.3967 -0.5089  0.2674
  122OSM    C5F12982   7.142   0.152   9.109  0.4564  0.0424  0.4609
  122OSM    H5F12983   7.192   0.130   9.206  1.4938  4.9780  1.2894
  122OSM    H5G12984   7.129   0.262   9.107 -0.9559 -0.0724 -2.5034
  122OSM    C6F12985   7.222   0.082   8.992  0.7639  0.3056  0.0492
  122OSM    H6F12986   7.189   0.122   8.894  2.2772  0.6210 -0.3611
  122OSM    H6G12987   7.196  -0.026   8.991 -0.3662  0.5635 -1.1947
  122OSM    C7F12988   7.371   0.082   8.998 -0.7893 -0.0167 -1.0025
  122OSM    H7F12989   7.410   0.051   9.097 -1.2343 -0.6454 -1.0197
  122OSM    H7G12990   7.407   0.185   8.975 -0.7433  0.1147 -0.3721
  122OSM    C8F12991   7.430  -0.018   8.899  0.1734  0.5424 -0.0739
  122OSM    H8F12992   7.376  -0.112   8.922  0.1818  0.1201 -1.6564
  122OSM    H8G12993   7.538  -0.037   8.919 -0.0818  0.2807  1.1092
  122OSM    C9F12994   7.416   0.017   8.756  0.2552 -0.6744  0.3558
  122OSM    H9F12995   7.343   0.095   8.730  1.2548 -0.8280 -3.5471
  122OSM   C10F12996   7.487  -0.036   8.658  0.3524  0.1236  0.2947
  122OSM   H10F12997   7.469  -0.012   8.552  0.6726 -0.0355  0.2023
  122OSM   C11F12998   7.598  -0.137   8.676  0.2885  0.4446 -0.7073
  122OSM   H11F12999   7.588  -0.228   8.613 -0.3541 -0.8466  1.1702
  122OSM   H11G13000   7.600  -0.178   8.779 -0.8278 -0.3204 -0.9732
  122OSM   C12F13001   7.736  -0.074   8.643  0.2615 -0.9209  0.1604
  122OSM   H12F13002   7.826  -0.123   8.688 -0.0595  0.7560  2.8210
  122OSM   H12G13003   7.737   0.028   8.687  0.9112 -0.2105 -1.4515
  122OSM   C13F13004   7.746  -0.042   8.487  0.0397  0.1588 -0.1326
  122OSM   H13F13005   7.672   0.031   8.448  1.6735  1.2763 -1.2594
  122OSM   H13G13006   7.713  -0.131   8.429 -3.7893  0.6914  0.9610
  122OSM   C14F13007   7.891  -0.011   8.445 -0.0580 -0.2725 -0.0635
  122OSM   H14F13008   7.953  -0.092   8.490  1.1391  0.3369 -0.5791
  122OSM   H14G13009   7.930   0.085   8.484  1.6196 -0.6573 -0.7351
  122OSM   C15F13010   7.922  -0.027   8.292 -0.6747 -0.3912  0.0371
  122OSM   H15F13011   7.883   0.063   8.241 -1.0169  0.3725  1.5684
  122OSM   H15G13012   7.875  -0.119   8.251 -2.8927  1.4287 -1.7579
  122OSM   C16F13013   8.076  -0.043   8.251  0.5809  0.5205 -0.3459
  122OSM   H16F13014   8.136  -0.071   8.340  0.3656 -2.8327 -1.1162
  122OSM   H16G13015   8.108   0.053   8.205  1.2952 -0.3552 -1.7463
  122OSM   C17F13016   8.098  -0.143   8.138  0.4522  0.5137 -0.0104
  122OSM   H17F13017   8.066  -0.094   8.043  2.8320  1.9986 -0.1485
  122OSM   H17G13018   8.048  -0.242   8.141  2.2779 -0.4335  0.8821
  122OSM   C18F13019   8.249  -0.169   8.109 -0.2317  0.3831  0.2452
  122OSM   H18F13020   8.308  -0.210   8.193  0.3435  2.6489  1.0359
  122OSM   H18G13021   8.286  -0.066   8.089  0.3241  0.4482  1.5166
  122OSM   H18H13022   8.257  -0.225   8.014 -2.6541 -1.4785  1.0453
  123OSM      N13023   2.805   4.147   5.138 -0.3095  0.4433 -0.1765
  123OSM    C1513024   2.802   4.270   5.061 -0.5545  0.1098  0.5996
  123OSM   H15A13025   2.707   4.317   5.083  0.0731  0.7907  1.9831
  123OSM   H15B13026   2.800   4.241   4.957  0.2449  3.0049 -0.3098
  123OSM   H15C13027   2.887   4.328   5.092  1.6420 -1.5586 -1.8538
  123OSM    C1413028   2.762   4.179   5.278 -0.1621 -0.4037 -0.0522
  123OSM   H14A13029   2.815   4.269   5.306 -2.6244  1.1824 -0.1824
  123OSM   H14B13030   2.797   4.095   5.337  0.0720 -0.5224 -0.3546
  123OSM   H14C13031   2.656   4.192   5.293 -0.1679  0.0586 -0.4489
  123OSM    C1313032   2.694   4.062   5.071 -0.4869  0.8728  0.2362
  123OSM   H13A13033   2.699   4.055   4.963 -0.1448 -0.7692  0.3420
  123OSM   H13B13034   2.600   4.111   5.093 -1.3828 -0.7942  0.2379
  123OSM   H13C13035   2.690   3.965   5.117  1.9019 -0.2968 -1.7717
  123OSM    C1213036   2.946   4.082   5.137 -1.4211  0.3190 -0.2083
  123OSM   H12A13037   3.018   4.150   5.180  0.8158 -2.5387  0.8695
  123OSM   H12B13038   2.985   4.070   5.036 -0.7269  2.1919 -0.1979
  123OSM    C1113039   2.954   3.955   5.225 -0.9728 -0.0166  0.6981
  123OSM   H11A13040   3.037   3.894   5.184  0.2972  0.7721  1.9707
  123OSM   H11B13041   2.871   3.881   5.216  0.7440 -2.1463  1.4511
  123OSM      P13042   3.092   4.074   5.415 -0.0324 -0.5766 -0.4301
  123OSM    O1313043   3.212   3.992   5.391 -0.7919 -0.3343 -0.0354
  123OSM    O1413044   3.089   4.212   5.356 -0.1512 -0.5414 -0.4179
  123OSM    O1113045   3.065   4.076   5.568 -0.7636  0.4392  0.1382
  123OSM    O1213046   2.974   3.986   5.364  0.4061  0.1344 -0.2962
  123OSM    C1S13047   2.951   4.137   5.627  0.1519  0.3301  0.0433
  123OSM    H1S13048   2.860   4.081   5.595  1.1024 -0.2157 -1.8364
  123OSM    H1T13049   2.942   4.242   5.591 -0.5001 -0.5341 -2.5536
  123OSM     NF13050   2.834   4.123   5.839  0.2324 -0.2941 -0.4188
  123OSM    HNF13051   2.801   4.207   5.883  0.7887 -0.6577  0.7337
  123OSM    C2S13052   2.964   4.135   5.786  0.2338 -0.6344  0.4086
  123OSM    H2S13053   3.002   4.033   5.809 -0.0956 -0.3700  2.2831
  123OSM    C3S13054   3.052   4.250   5.837 -0.3828  0.3734 -0.0113
  123OSM    H3S13055   3.003   4.348   5.822  1.6916  1.7120  1.4884
  123OSM     O313056   3.182   4.253   5.780 -0.6084 -0.0463  0.2890
  123OSM    HO313057   3.173   4.205   5.697  2.1425 -0.7553  0.2809
  123OSM    C4S13058   3.077   4.229   5.987 -0.0457  0.5630  0.2425
  123OSM    H4S13059   3.133   4.140   6.018 -0.1914  0.2725 -0.3109
  123OSM    C5S13060   3.011   4.300   6.083 -0.4230  0.2816  0.1572
  123OSM    H5S13061   2.949   4.388   6.060 -0.7976 -0.5455 -2.2463
  123OSM    C6S13062   3.036   4.266   6.227  0.7094  0.0287  0.3675
  123OSM    H6S13063   2.991   4.166   6.239  0.3005  0.5049  3.8771
  123OSM    H6T13064   2.973   4.338   6.283  0.3509  0.4320 -0.5280
  123OSM    C7S13065   3.176   4.244   6.283 -0.2599 -0.2251  0.2818
  123OSM    H7S13066   3.237   4.336   6.290  0.9360 -1.1188  4.1423
  123OSM    H7T13067   3.222   4.168   6.217  1.2661 -0.4049  1.5002
  123OSM    C8S13068   3.175   4.200   6.432 -0.6617  0.1911 -0.7970
  123OSM    H8S13069   3.273   4.157   6.461 -1.4958 -2.5690 -1.7754
  123OSM    H8T13070   3.101   4.118   6.443  1.6717 -1.9977 -0.3690
  123OSM    C9S13071   3.127   4.320   6.519  0.1683  0.1404  0.0066
  123OSM    H9S13072   3.020   4.341   6.494  0.1852  0.2248  0.0040
  123OSM    H9T13073   3.182   4.413   6.490  1.1767 -0.5575 -0.3555
  123OSM   C10S13074   3.144   4.307   6.672 -0.7192  0.0946 -0.9683
  123OSM   H10S13075   3.125   4.405   6.721  1.4702  0.2662 -0.3639
  123OSM   H10T13076   3.249   4.289   6.701 -0.2256  0.4849 -2.4564
  123OSM   C11S13077   3.046   4.205   6.731 -0.0119 -0.0163  0.2574
  123OSM   H11S13078   3.040   4.120   6.660  0.7197 -0.7853  1.0966
  123OSM   H11T13079   2.946   4.252   6.725  0.6241  1.3706  0.1188
  123OSM   C12S13080   3.078   4.157   6.874 -0.3036  0.2332  0.6725
  123OSM   H12S13081   3.188   4.137   6.876  0.3765  1.8165 -4.9353
  123OSM   H12T13082   3.030   4.063   6.910  1.3362 -0.6460  0.7266
  123OSM   C13S13083   3.065   4.280   6.967 -0.9718  0.3622  0.2738
  123OSM   H13S13084   2.958   4.295   6.993 -0.5417  0.8275  1.8536
  123OSM   H13T13085   3.110   4.374   6.929 -0.1036 -0.6171 -1.2257
  123OSM   C14S13086   3.148   4.257   7.098 -0.0519 -0.0704  0.4833
  123OSM   H14S13087   3.128   4.336   7.173  0.8276  1.9717 -1.3232
  123OSM   H14T13088   3.254   4.267   7.064 -0.6849  2.0588 -1.1069
  123OSM   C15S13089   3.112   4.117   7.172 -0.6688 -0.6419 -0.6419
  123OSM   H15S13090   3.193   4.082   7.240 -1.2341 -1.6616 -0.4720
  123OSM   H15T13091   3.115   4.037   7.094  2.5569  0.7587 -2.1370
  123OSM   C16S13092   2.982   4.125   7.254  0.9576  0.9816 -1.3587
  123OSM   H16S13093   2.893   4.136   7.188 -0.8685  0.6433  0.8818
  123OSM   H16T13094   2.997   4.217   7.316  3.5520  1.0092 -1.9119
  123OSM   C17S13095   2.964   3.999   7.342 -0.0486  0.4094 -0.0329
  123OSM   H17S13096   2.863   4.001   7.386 -2.3307  2.0054 -4.6559
  123OSM   H17T13097   3.033   3.999   7.429 -0.1003  1.1228  0.0119
  123OSM   C18S13098   2.983   3.870   7.258  0.3448 -0.2718 -0.1646
  123OSM   H18S13099   2.939   3.782   7.308 -1.6826  0.1115 -1.1483
  123OSM   H18T13100   3.088   3.842   7.235  0.1562  0.0710 -1.5325
  123OSM   H18U13101   2.924   3.882   7.165  3.6641  0.5750 -2.3469
  123OSM    C1F13102   2.745   4.018   5.829 -0.0969 -0.4666 -0.6882
  123OSM     OF13103   2.782   3.912   5.769 -0.6125 -0.4819 -0.3182
  123OSM    C2F13104   2.610   4.025   5.886  0.4806 -0.6995 -0.2856
  123OSM    H2F13105   2.568   3.923   5.891 -2.0779  0.2455 -0.9112
  123OSM    H2G13106   2.558   4.089   5.811 -0.6913 -2.4080 -0.9801
  123OSM    C3F13107   2.601   4.096   6.026 -0.8087  0.4677 -0.7124
  123OSM    H3F13108   2.500   4.117   6.066  0.4688 -3.0437  5.7350
  123OSM    H3G13109   2.649   4.196   6.030  3.5199 -1.4018  3.1155
  123OSM    C4F13110   2.655   4.004   6.138 -0.0497 -0.6488 -0.1053
  123OSM    H4F13111   2.757   3.970   6.112 -0.0738 -0.5882 -0.2791
  123OSM    H4G13112   2.596   3.910   6.144 -0.2645 -0.5161 -0.1259
  123OSM    C5F13113   2.658   4.067   6.280 -0.2274 -0.2419 -0.1624
  123OSM    H5F13114   2.555   4.087   6.315  0.2580  0.0698  1.1436
  123OSM    H5G13115   2.722   4.158   6.278 -0.6758  0.2143  2.5724
  123OSM    C6F13116   2.726   3.971   6.384  0.1905  0.1182  0.1971
  123OSM    H6F13117   2.834   3.953   6.364  0.2980  0.5215  0.4127
  123OSM    H6G13118   2.659   3.884   6.369 -1.7460  1.6359 -0.3273
  123OSM    C7F13119   2.710   4.024   6.525 -0.5510  0.1497  0.1986
  123OSM    H7F13120   2.610   4.073   6.529 -1.4866 -1.5085 -1.5367
  123OSM    H7G13121   2.786   4.105   6.530 -1.6241  1.3404 -1.5946
  123OSM    C8F13122   2.756   3.932   6.642 -0.6025 -0.2133 -0.3436
  123OSM    H8F13123   2.793   3.982   6.733  0.5682  0.8316 -1.3558
  123OSM    H8G13124   2.844   3.887   6.591  1.5378  2.9229  0.3458
  123OSM    C9F13125   2.654   3.828   6.667 -0.3550  0.7565  0.4110
  123OSM    H9F13126   2.666   3.749   6.592  0.5862  1.8997 -0.6582
  123OSM   C10F13127   2.552   3.840   6.751  0.1938 -0.6592 -0.7525
  123OSM   H10F13128   2.483   3.756   6.768 -1.5381  0.5588 -1.3930
  123OSM   C11F13129   2.519   3.947   6.853  0.0042 -0.4646 -0.0732
  123OSM   H11F13130   2.414   3.982   6.840  0.4316  0.4991 -0.9553
  123OSM   H11G13131   2.570   4.042   6.828 -2.3276  1.4047  1.7331
  123OSM   C12F13132   2.546   3.904   6.997 -1.0607 -0.6669  0.4619
  123OSM   H12F13133   2.656   3.888   6.988 -0.1719  4.6075 -2.3446
  123OSM   H12G13134   2.483   3.823   7.038 -0.5405 -0.9168  0.7707
  123OSM   C13F13135   2.520   4.023   7.092  0.3104  0.0931  0.4793
  123OSM   H13F13136   2.412   4.047   7.096  0.2153 -0.0115 -0.9073
  123OSM   H13G13137   2.574   4.110   7.048 -0.4513  0.2889 -0.0923
  123OSM   C14F13138   2.546   3.990   7.241  0.0362  0.2247 -0.4385
  123OSM   H14F13139   2.651   3.961   7.263 -0.9773 -1.4977  3.0166
  123OSM   H14G13140   2.486   3.904   7.279 -0.5927  1.2418  0.9551
  123OSM   C15F13141   2.500   4.104   7.330  0.2835 -0.3963  0.8478
  123OSM   H15F13142   2.565   4.190   7.302 -0.2592 -0.3721 -0.4104
  123OSM   H15G13143   2.530   4.073   7.432  0.6811  1.2902  1.2779
  123OSM   C16F13144   2.358   4.159   7.333 -0.4179  0.3507 -0.0541
  123OSM   H16F13145   2.285   4.080   7.305  0.6575 -0.3334 -1.0158
  123OSM   H16G13146   2.360   4.234   7.251  2.7741 -1.1843 -1.5426
  123OSM   C17F13147   2.324   4.225   7.458  0.6200 -0.8368 -0.7889
  123OSM   H17F13148   2.386   4.317   7.474 -1.2011  0.1111  1.3434
  123OSM   H17G13149   2.325   4.163   7.550 -0.1949 -1.8741 -1.4672
  123OSM   C18F13150   2.183   4.292   7.463  0.4712  0.3553  0.6407
  123OSM   H18F13151   2.147   4.314   7.360  2.3374  1.7120  0.2284
  123OSM   H18G13152   2.173   4.381   7.529 -3.1590  1.2580 -0.8936
  123OSM   H18H13153   2.113   4.213   7.497  3.0539 -2.8258 -0.9380
  124OSM      N13154   6.142   2.830   5.391 -0.3946  0.6936 -0.9633
  124OSM    C1513155   6.286   2.823   5.344 -0.1444 -0.6585 -0.3944
  124OSM   H15A13156   6.297   2.846   5.239  1.7870  0.4849  0.0149
  124OSM   H15B13157   6.326   2.724   5.365  0.2503  0.0357  2.5146
  124OSM   H15C13158   6.351   2.891   5.397 -0.1083 -1.2335  0.3289
  124OSM    C1413159   6.086   2.962   5.354  0.0247  0.3505  0.3735
  124OSM   H14A13160   5.984   2.962   5.319  0.2807 -1.1047 -0.4519
  124OSM   H14B13161   6.140   3.007   5.271 -0.4203  0.8143  0.3315
  124OSM   H14C13162   6.096   3.039   5.429 -0.3471 -0.0950  0.8886
  124OSM    C1313163   6.069   2.733   5.307  1.0686 -0.1429  0.1999
  124OSM   H13A13164   6.122   2.641   5.287 -0.2802 -0.9567  0.2157
  124OSM   H13B13165   6.060   2.780   5.210  2.7342  0.2044  0.1828
  124OSM   H13C13166   5.971   2.707   5.344  1.1749 -1.3071 -0.3020
  124OSM    C1213167   6.124   2.800   5.545  0.4939 -0.2155 -0.3806
  124OSM   H12A13168   6.192   2.854   5.609 -1.0025 -1.2732  2.2365
  124OSM   H12B13169   6.153   2.697   5.558  1.4854  0.0923 -0.0878
  124OSM    C1113170   5.980   2.811   5.597  0.0083  0.3774 -0.6277
  124OSM   H11A13171   5.953   2.916   5.575 -0.2377  0.7982  1.4126
  124OSM   H11B13172   5.971   2.802   5.708  1.4972  2.3090 -0.2842
  124OSM      P13173   5.851   2.588   5.596 -0.3693  0.0488 -0.0443
  124OSM    O1313174   5.729   2.544   5.536  0.1803  0.1138  0.2922
  124OSM    O1413175   5.967   2.498   5.581  0.0195  0.4941 -0.2250
  124OSM    O1113176   5.832   2.614   5.753  0.2751 -0.0316 -0.4564
  124OSM    O1213177   5.885   2.727   5.534 -0.0634  0.4788 -0.0091
  124OSM    C1S13178   5.713   2.699   5.772  0.1352 -0.1919 -0.3864
  124OSM    H1S13179   5.620   2.645   5.746 -0.6240  1.2447 -0.7659
  124OSM    H1T13180   5.722   2.794   5.714  0.6099 -0.0168 -0.0358
  124OSM     NF13181   5.613   2.853   5.937  0.6027 -0.2050  0.9019
  124OSM    HNF13182   5.633   2.950   5.925 -4.8964  1.1500 -0.0339
  124OSM    C2S13183   5.701   2.742   5.917 -0.3971  0.5839  0.2146
  124OSM    H2S13184   5.662   2.652   5.970  1.1151  0.2476  0.8056
  124OSM    C3S13185   5.836   2.777   5.985 -0.1646  0.2103 -0.1914
  124OSM    H3S13186   5.876   2.869   5.937  0.4616 -0.9684 -2.0469
  124OSM     O313187   5.936   2.676   5.981 -0.1500  0.2129 -0.0331
  124OSM    HO313188   5.881   2.624   5.922 -0.9898  0.8995  0.1134
  124OSM    C4S13189   5.807   2.813   6.135  0.5723  0.2332  0.2782
  124OSM    H4S13190   5.785   2.919   6.151  1.1052  0.8603 -2.5565
  124OSM    C5S13191   5.786   2.723   6.233 -0.4287  0.4650 -0.3557
  124OSM    H5S13192   5.794   2.616   6.207  2.1860  0.6613 -0.5706
  124OSM    C6S13193   5.749   2.751   6.380 -0.4809 -0.1560 -0.0139
  124OSM    H6S13194   5.726   2.860   6.380  0.6689  0.1023  0.5498
  124OSM    H6T13195   5.836   2.743   6.449 -1.5019 -0.5474  1.2417
  124OSM    C7S13196   5.637   2.669   6.442  0.2717  0.2995  0.0795
  124OSM    H7S13197   5.665   2.562   6.456 -0.8437  0.0615  0.6329
  124OSM    H7T13198   5.549   2.671   6.375  1.1548  1.2742 -1.0961
  124OSM    C8S13199   5.606   2.713   6.589  0.1313 -0.8102  0.0973
  124OSM    H8S13200   5.555   2.811   6.579 -1.6529 -1.8602 -1.8019
  124OSM    H8T13201   5.701   2.715   6.646  0.6852 -2.2744 -0.7357
  124OSM    C9S13202   5.488   2.648   6.662 -0.3669 -0.5057 -0.0992
  124OSM    H9S13203   5.507   2.539   6.673  1.4313 -0.1903  0.3961
  124OSM    H9T13204   5.392   2.669   6.611 -1.4788  2.8246  2.8946
  124OSM   C10S13205   5.449   2.706   6.801 -0.1044 -0.4225 -0.1136
  124OSM   H10S13206   5.384   2.633   6.853  1.7824 -2.5247 -0.5745
  124OSM   H10T13207   5.392   2.801   6.790 -1.7543 -1.4498 -0.9367
  124OSM   C11S13208   5.575   2.728   6.896  0.4284 -0.6739 -0.3429
  124OSM   H11S13209   5.531   2.780   6.984  2.1694  0.4432 -0.0961
  124OSM   H11T13210   5.639   2.798   6.838 -1.6766  0.9269 -0.8767
  124OSM   C12S13211   5.656   2.611   6.938 -0.5919 -0.3878 -0.6006
  124OSM   H12S13212   5.734   2.655   7.003 -1.4976 -0.9726  0.9394
  124OSM   H12T13213   5.705   2.562   6.851  1.5130 -0.2312  0.4555
  124OSM   C13S13214   5.579   2.508   7.015 -0.3690  0.1632  0.0964
  124OSM   H13S13215   5.505   2.464   6.945 -2.0333  0.5615  1.5431
  124OSM   H13T13216   5.508   2.560   7.082 -1.5153  0.2973 -1.1792
  124OSM   C14S13217   5.658   2.413   7.101 -0.1095 -0.2121  0.9664
  124OSM   H14S13218   5.685   2.461   7.197 -2.1328  0.3696  1.2944
  124OSM   H14T13219   5.744   2.379   7.040  0.3341  0.8730  0.9790
  124OSM   C15S13220   5.567   2.298   7.150 -0.5362 -0.5140 -0.2087
  124OSM   H15S13221   5.487   2.333   7.219 -0.2590  0.5878 -0.4260
  124OSM   H15T13222   5.624   2.224   7.210 -1.5382 -0.8439  0.3545
  124OSM   C16S13223   5.503   2.212   7.040 -0.2453 -0.5651 -0.3480
  124OSM   H16S13224   5.425   2.266   6.982  0.0288 -1.8696 -2.0335
  124OSM   H16T13225   5.456   2.129   7.097  0.5046  0.4521  1.8540
  124OSM   C17S13226   5.601   2.157   6.935 -0.3352 -0.2009  0.3305
  124OSM   H17S13227   5.689   2.115   6.989  1.0985  0.1282 -1.6213
  124OSM   H17T13228   5.633   2.249   6.881 -0.5734  1.1622  2.3710
  124OSM   C18S13229   5.561   2.038   6.840  0.0885  0.3685  0.5443
  124OSM   H18S13230   5.628   2.034   6.751 -0.2008  0.5149  0.3180
  124OSM   H18T13231   5.457   2.049   6.801  0.9679  1.4131 -1.6936
  124OSM   H18U13232   5.564   1.946   6.902  1.4930 -0.5644 -0.8280
  124OSM    C1F13233   5.482   2.836   5.937 -0.6050  1.0171 -1.1515
  124OSM     OF13234   5.447   2.717   5.933  0.9367  0.0913  0.1500
  124OSM    C2F13235   5.376   2.950   5.946 -1.1259 -0.3659  0.3516
  124OSM    H2F13236   5.406   3.025   5.869 -1.0071 -1.0894 -0.3203
  124OSM    H2G13237   5.390   2.988   6.049 -1.5234  0.1667  0.2152
  124OSM    C3F13238   5.227   2.914   5.936  0.1001 -0.4401  0.6332
  124OSM    H3F13239   5.201   2.829   5.868  2.1264 -0.0569 -0.7342
  124OSM    H3G13240   5.159   2.999   5.916 -1.3786 -1.5667  0.7483
  124OSM    C4F13241   5.189   2.864   6.073 -0.1779 -0.1006 -0.5339
  124OSM    H4F13242   5.216   2.942   6.146 -3.3684  0.3469  0.3233
  124OSM    H4G13243   5.230   2.766   6.106 -1.2267 -0.0269  1.0813
  124OSM    C5F13244   5.040   2.851   6.073  0.2688 -0.2359 -0.2842
  124OSM    H5F13245   5.014   2.774   5.997  0.8986 -0.1604 -0.5856
  124OSM    H5G13246   4.997   2.951   6.051  2.3667  0.8334  0.1926
  124OSM    C6F13247   4.985   2.817   6.215  0.1261  0.1464  0.3779
  124OSM    H6F13248   5.001   2.904   6.283  3.1112  1.2292 -1.4879
  124OSM    H6G13249   5.032   2.731   6.267  1.7167  0.6241 -0.1886
  124OSM    C7F13250   4.836   2.797   6.210 -0.1391  0.0501  0.2316
  124OSM    H7F13251   4.811   2.722   6.131  2.2741 -3.6075  2.6462
  124OSM    H7G13252   4.793   2.893   6.173 -0.6464 -1.3489 -3.2831
  124OSM    C8F13253   4.774   2.778   6.349  0.4023  0.5858  0.0637
  124OSM    H8F13254   4.664   2.795   6.343  0.2382 -0.4370  0.0659
  124OSM    H8G13255   4.814   2.863   6.409  0.7384 -0.7539  1.7965
  124OSM    C9F13256   4.806   2.634   6.403 -0.4955 -0.6233  0.2331
  124OSM    H9F13257   4.853   2.565   6.332 -1.1116 -0.0102 -0.8065
  124OSM   C10F13258   4.789   2.594   6.529  0.1025 -0.4618  1.1752
  124OSM   H10F13259   4.822   2.495   6.564  2.7406 -0.2718 -0.5183
  124OSM   C11F13260   4.741   2.677   6.641 -0.5480 -0.3967 -0.1704
  124OSM   H11F13261   4.638   2.643   6.667 -2.1191  1.7742 -2.9902
  124OSM   H11G13262   4.735   2.786   6.619  1.5916 -0.3422 -0.7160
  124OSM   C12F13263   4.833   2.646   6.762 -0.5044  0.4164  0.4514
  124OSM   H12F13264   4.840   2.536   6.776  1.5864  0.1847 -1.5966
  124OSM   H12G13265   4.785   2.681   6.855  1.3399  1.6190  1.0048
  124OSM   C13F13266   4.972   2.709   6.755  0.4073  0.3976  0.6176
  124OSM   H13F13267   4.946   2.801   6.698 -2.4227 -2.3466 -3.0066
  124OSM   H13G13268   5.030   2.647   6.684  2.4396  1.1918  1.5056
  124OSM   C14F13269   5.045   2.729   6.890  0.6607  0.6399 -0.0030
  124OSM   H14F13270   5.152   2.755   6.873  0.1116  2.0711 -1.5775
  124OSM   H14G13271   5.036   2.628   6.935 -4.9718  1.1380  0.7498
  124OSM   C15F13272   4.970   2.832   6.980 -0.6242 -0.0870 -0.1234
  124OSM   H15F13273   4.859   2.829   6.979 -0.8806  1.6707  3.5279
  124OSM   H15G13274   4.993   2.933   6.938 -0.8769 -0.3923 -1.0157
  124OSM   C16F13275   5.029   2.826   7.127 -0.9102 -0.1518  0.2226
  124OSM   H16F13276   5.016   2.721   7.160 -0.3942 -0.4220 -0.4178
  124OSM   H16G13277   4.972   2.892   7.195 -1.1176  0.4831 -0.5475
  124OSM   C17F13278   5.183   2.869   7.157  0.4638 -0.3034 -0.1587
  124OSM   H17F13279   5.188   2.972   7.115  0.4256 -0.0183  0.5255
  124OSM   H17G13280   5.249   2.802   7.098  1.6955 -0.3630  1.2097
  124OSM   C18F13281   5.218   2.877   7.314  0.1836  0.4283  0.7420
  124OSM   H18F13282   5.230   2.772   7.347  0.2250  1.1008  2.9733
  124OSM   H18G13283   5.147   2.948   7.360  0.6341  1.5214 -0.1898
  124OSM   H18H13284   5.315   2.929   7.332 -0.0679  1.4830 -0.7862
  125OSM      N13285   5.543   3.897   5.283  0.5952  0.2430 -0.0686
  125OSM    C1513286   5.455   3.988   5.209 -0.1694  1.1629  0.7134
  125OSM   H15A13287   5.422   4.059   5.283  0.4034  0.7565  1.3670
  125OSM   H15B13288   5.370   3.938   5.165 -0.8007  2.2314  0.6858
  125OSM   H15C13289   5.508   4.046   5.134 -1.3232  1.0650 -0.1991
  125OSM    C1413290   5.611   3.803   5.182  0.2485 -0.2262 -0.3818
  125OSM   H14A13291   5.686   3.756   5.244  0.0149  0.5425  0.5099
  125OSM   H14B13292   5.657   3.854   5.099  0.7453  0.4214  0.2806
  125OSM   H14C13293   5.536   3.734   5.145  0.9916 -1.6223  0.6304
  125OSM    C1313294   5.649   3.980   5.329  0.3084 -0.3844 -0.6424
  125OSM   H13A13295   5.692   4.049   5.258  1.4785 -0.1420  0.2754
  125OSM   H13B13296   5.733   3.924   5.367  0.1128  0.1526  0.6132
  125OSM   H13C13297   5.617   4.044   5.409 -0.4049  0.7914 -1.8169
  125OSM    C1213298   5.479   3.825   5.398 -0.0244 -0.2403  0.4165
  125OSM   H12A13299   5.561   3.772   5.443  2.0321  1.8666 -0.6662
  125OSM   H12B13300   5.412   3.757   5.347 -0.9277  1.9758 -1.5535
  125OSM    C1113301   5.394   3.894   5.508  0.9014 -0.3846  0.7692
  125OSM   H11A13302   5.324   3.820   5.552 -1.1340  0.1344 -1.3835
  125OSM   H11B13303   5.327   3.966   5.456  2.7012  1.2818  0.6342
  125OSM      P13304   5.554   3.907   5.705 -0.2369  0.2991  0.0392
  125OSM    O1313305   5.550   3.766   5.672  0.4833  0.2238 -0.1865
  125OSM    O1413306   5.684   3.976   5.704 -0.1870  0.4525 -0.2209
  125OSM    O1113307   5.480   3.944   5.837  0.4215 -0.2391  0.5523
  125OSM    O1213308   5.462   3.973   5.600 -0.6239 -0.5390 -0.5851
  125OSM    C1S13309   5.444   4.077   5.863  0.3591 -0.8671 -0.1277
  125OSM    H1S13310   5.525   4.147   5.834  0.7572 -1.4259 -0.3804
  125OSM    H1T13311   5.449   4.083   5.974 -2.4164 -2.7822  0.2000
  125OSM     NF13312   5.289   4.262   5.856 -0.0304 -0.2075 -0.0323
  125OSM    HNF13313   5.225   4.283   5.929 -0.3144 -0.3842 -0.2319
  125OSM    C2S13314   5.310   4.127   5.807 -0.2062  0.3388 -0.1494
  125OSM    H2S13315   5.327   4.132   5.697  0.6784  4.3373  0.0253
  125OSM    C3S13316   5.199   4.024   5.839 -0.3491 -0.3616  0.2143
  125OSM    H3S13317   5.227   3.933   5.783 -0.3024  0.8344 -1.7851
  125OSM     O313318   5.073   4.062   5.789  1.0864 -0.5366 -0.6022
  125OSM    HO313319   5.075   4.157   5.771  0.4338 -0.0173  1.7817
  125OSM    C4S13320   5.184   4.002   5.983 -0.0217 -0.5185 -0.3580
  125OSM    H4S13321   5.153   4.091   6.038  1.7134 -1.0078  1.5388
  125OSM    C5S13322   5.196   3.887   6.055 -0.3132 -0.1751 -0.4999
  125OSM    H5S13323   5.210   3.791   6.003  0.2265  0.5792 -1.7942
  125OSM    C6S13324   5.165   3.874   6.200 -0.3614 -0.3123 -0.6946
  125OSM    H6S13325   5.087   3.795   6.197 -0.4184 -0.3589  0.9533
  125OSM    H6T13326   5.118   3.967   6.239  0.2164  0.5248 -1.9433
  125OSM    C7S13327   5.287   3.853   6.294  0.0696  0.3529  0.3089
  125OSM    H7S13328   5.357   3.939   6.299 -0.3494  0.7345 -0.2117
  125OSM    H7T13329   5.338   3.758   6.266  1.2574 -0.6139  5.0019
  125OSM    C8S13330   5.244   3.814   6.435 -0.3921  1.1278  0.3834
  125OSM    H8S13331   5.193   3.715   6.428  0.7279  0.5507  0.0799
  125OSM    H8T13332   5.180   3.895   6.476 -0.3705  1.7144 -0.7115
  125OSM    C9S13333   5.364   3.788   6.528 -0.2081  0.0116 -0.2121
  125OSM    H9S13334   5.432   3.876   6.520  1.0977 -1.0072 -0.7007
  125OSM    H9T13335   5.423   3.712   6.472  0.6165  0.3578  0.1700
  125OSM   C10S13336   5.321   3.753   6.667 -0.2262 -0.5851  0.2140
  125OSM   H10S13337   5.226   3.695   6.660 -0.6843  0.1651  0.1093
  125OSM   H10T13338   5.295   3.853   6.708  0.2912  1.1087 -3.2150
  125OSM   C11S13339   5.436   3.673   6.733 -0.6934  0.0597  0.1491
  125OSM   H11S13340   5.530   3.730   6.718 -0.2026 -0.1311  2.1574
  125OSM   H11T13341   5.456   3.581   6.675 -2.2956  0.6852 -1.4800
  125OSM   C12S13342   5.412   3.626   6.876  0.4867  0.1099 -0.0420
  125OSM   H12S13343   5.336   3.546   6.863  0.1645  0.4682 -0.3765
  125OSM   H12T13344   5.369   3.715   6.926  1.9797  0.4343  0.7248
  125OSM   C13S13345   5.535   3.556   6.934  0.4331 -0.4232  0.1046
  125OSM   H13S13346   5.597   3.494   6.865  0.0237 -0.1423 -0.5303
  125OSM   H13T13347   5.495   3.486   7.011 -2.7072  0.2873 -0.7545
  125OSM   C14S13348   5.625   3.658   7.000 -0.5463 -0.1740 -0.2052
  125OSM   H14S13349   5.559   3.690   7.083 -1.7531 -2.0640 -0.3866
  125OSM   H14T13350   5.651   3.742   6.932 -0.6430 -0.5373 -0.6981
  125OSM   C15S13351   5.764   3.600   7.041  0.0627 -0.2649 -0.7574
  125OSM   H15S13352   5.838   3.683   7.049  0.4027 -0.6622  0.4447
  125OSM   H15T13353   5.801   3.548   6.950  1.6963 -0.5154  0.0142
  125OSM   C16S13354   5.749   3.500   7.165 -0.3016 -0.7047  0.2731
  125OSM   H16S13355   5.726   3.397   7.130  1.5081 -1.0878  0.0707
  125OSM   H16T13356   5.668   3.546   7.224 -1.4542 -2.8830  0.4905
  125OSM   C17S13357   5.888   3.503   7.231  0.6652 -0.1641  0.1806
  125OSM   H17S13358   5.926   3.607   7.242  1.7138 -0.4194 -0.8464
  125OSM   H17T13359   5.959   3.441   7.172 -1.2113 -2.3312  0.0424
  125OSM   C18S13360   5.889   3.441   7.377 -0.4535 -0.0556  0.2775
  125OSM   H18S13361   5.816   3.495   7.441 -0.2266 -3.0811  3.3454
  125OSM   H18T13362   5.987   3.464   7.425 -1.6488  0.5507  2.5530
  125OSM   H18U13363   5.873   3.332   7.364  2.2779 -0.6247  0.9418
  125OSM    C1F13364   5.363   4.363   5.823 -0.5402  0.1898 -0.4730
  125OSM     OF13365   5.432   4.363   5.719 -0.7379  0.3512 -0.3846
  125OSM    C2F13366   5.354   4.478   5.910  0.1541 -0.2902  0.3055
  125OSM    H2F13367   5.253   4.489   5.954 -0.3555 -0.1776 -0.8543
  125OSM    H2G13368   5.384   4.566   5.849  0.1434 -2.0221 -2.4059
  125OSM    C3F13369   5.450   4.461   6.025 -0.8642  0.1259 -0.8168
  125OSM    H3F13370   5.554   4.482   5.992 -1.4530  0.8224 -2.3217
  125OSM    H3G13371   5.448   4.356   6.061  0.3388  0.1722 -0.5802
  125OSM    C4F13372   5.416   4.562   6.138  0.9139  0.2407 -0.5385
  125OSM    H4F13373   5.307   4.541   6.149  1.2746 -0.8396  1.4877
  125OSM    H4G13374   5.437   4.663   6.098 -0.1212  0.8263  0.3246
  125OSM    C5F13375   5.480   4.545   6.278 -0.0761 -0.1321  0.5737
  125OSM    H5F13376   5.425   4.611   6.349 -0.2479 -1.3547  1.6106
  125OSM    H5G13377   5.580   4.593   6.281  0.4229 -1.1478  0.2750
  125OSM    C6F13378   5.472   4.411   6.345  0.0320 -0.7367 -0.2419
  125OSM    H6F13379   5.535   4.343   6.285  1.1249 -0.1907  0.2617
  125OSM    H6G13380   5.366   4.377   6.339 -0.1186 -0.2769 -0.2090
  125OSM    C7F13381   5.527   4.399   6.488 -0.3415  0.6449  0.5321
  125OSM    H7F13382   5.620   4.460   6.491 -0.9698  1.5840  2.4886
  125OSM    H7G13383   5.557   4.293   6.504 -0.7030  0.1518 -1.7671
  125OSM    C8F13384   5.420   4.441   6.597 -0.4258  0.2409 -0.1144
  125OSM    H8F13385   5.334   4.372   6.591 -0.7138  0.3360  2.1199
  125OSM    H8G13386   5.380   4.539   6.565 -2.0588  0.9633  3.6246
  125OSM    C9F13387   5.485   4.438   6.737  0.2813  0.3374 -0.5009
  125OSM    H9F13388   5.580   4.491   6.754  0.7651 -1.2322  2.3337
  125OSM   C10F13389   5.442   4.367   6.840  0.6057  0.2360 -0.3538
  125OSM   H10F13390   5.500   4.354   6.933 -1.1770 -1.9544  0.5800
  125OSM   C11F13391   5.321   4.270   6.838  0.1542 -0.8127  0.2230
  125OSM   H11F13392   5.240   4.307   6.772  0.5082  2.4426  1.4564
  125OSM   H11G13393   5.266   4.281   6.934  0.0507 -0.7448  0.1558
  125OSM   C12F13394   5.343   4.122   6.814 -0.0496  0.2028  0.1279
  125OSM   H12F13395   5.390   4.103   6.715  0.1692  1.6345 -0.0599
  125OSM   H12G13396   5.256   4.053   6.808  1.5147 -1.8342 -0.3503
  125OSM   C13F13397   5.430   4.053   6.912 -0.2787  0.3394 -0.4717
  125OSM   H13F13398   5.531   4.098   6.920 -0.9168  1.4650  2.4967
  125OSM   H13G13399   5.468   3.958   6.870  3.6578  0.2400  2.7089
  125OSM   C14F13400   5.370   4.046   7.056 -0.2282  0.0136  0.6176
  125OSM   H14F13401   5.274   3.991   7.057 -1.0449  1.3547 -0.2423
  125OSM   H14G13402   5.333   4.146   7.089  1.0048  0.5274  0.5319
  125OSM   C15F13403   5.464   3.993   7.160 -1.0254  0.6290  0.4013
  125OSM   H15F13404   5.550   4.060   7.177 -1.7834  1.8669 -0.4121
  125OSM   H15G13405   5.494   3.890   7.132  0.8229  1.3909 -0.5789
  125OSM   C16F13406   5.405   3.975   7.296 -0.2377 -0.4000  0.3069
  125OSM   H16F13407   5.327   3.897   7.302  0.4178 -1.2189 -1.2441
  125OSM   H16G13408   5.354   4.071   7.322  1.8812  1.1473 -0.9203
  125OSM   C17F13409   5.510   3.954   7.399  0.1797  0.2571  0.3283
  125OSM   H17F13410   5.470   3.964   7.502 -0.9281  0.8113 -0.1334
  125OSM   H17G13411   5.585   4.033   7.378 -0.7358  0.7600 -1.1929
  125OSM   C18F13412   5.569   3.808   7.389  0.8963 -0.3098  0.1487
  125OSM   H18F13413   5.489   3.731   7.398  1.9256 -1.5052 -0.5838
  125OSM   H18G13414   5.641   3.794   7.472  0.6830  0.8947  0.5519
  125OSM   H18H13415   5.628   3.795   7.296  1.2812  0.3489  0.3005
  126OSM      N13416   2.002   2.942   5.093 -0.6448  0.6372  0.1202
  126OSM    C1513417   1.986   2.884   4.953 -0.0956  0.3499  0.2462
  126OSM   H15A13418   1.948   2.784   4.957  1.1366 -0.1364  3.4686
  126OSM   H15B13419   2.081   2.863   4.906 -0.2674 -0.2154  0.1558
  126OSM   H15C13420   1.932   2.943   4.881  0.6352 -0.1437 -0.7157
  126OSM    C1413421   2.039   3.086   5.079 -0.0551 -0.0011  0.8268
  126OSM   H14A13422   2.128   3.100   5.019  0.1834 -1.7361  0.7136
  126OSM   H14B13423   2.054   3.140   5.172  0.7234  1.1991  0.0345
  126OSM   H14C13424   1.960   3.133   5.023  0.3571 -0.1793  0.0868
  126OSM    C1313425   1.869   2.938   5.154  0.3746  0.2889  0.5206
  126OSM   H13A13426   1.859   2.844   5.207 -1.3895  0.3425  0.3285
  126OSM   H13B13427   1.795   2.943   5.076  0.1713 -1.8249  0.5257
  126OSM   H13C13428   1.846   3.023   5.216  0.8409  0.5930  0.2773
  126OSM    C1213429   2.104   2.860   5.162 -0.3031 -0.2395 -0.1730
  126OSM   H12A13430   2.204   2.899   5.147 -0.4744  0.0694 -0.5226
  126OSM   H12B13431   2.111   2.765   5.111 -1.7833  0.2857 -1.4270
  126OSM    C1113432   2.089   2.840   5.316  0.5289 -0.5605 -0.4041
  126OSM   H11A13433   2.162   2.766   5.357  3.2899  2.1997 -0.0037
  126OSM   H11B13434   1.985   2.808   5.342 -0.2695  0.6612 -1.9171
  126OSM      P13435   2.240   3.030   5.422 -0.3502 -0.5371 -0.0375
  126OSM    O1313436   2.350   2.945   5.368 -0.0031  0.3029 -0.0453
  126OSM    O1413437   2.249   3.179   5.383 -0.0655 -0.1689  0.0409
  126OSM    O1113438   2.247   3.022   5.581 -0.5945 -0.3707  0.4228
  126OSM    O1213439   2.101   2.970   5.381 -0.4536  0.2526  0.0344
  126OSM    C1S13440   2.241   2.897   5.649  0.4603  0.2497  0.0907
  126OSM    H1S13441   2.334   2.840   5.628  0.7921  1.0558 -0.7356
  126OSM    H1T13442   2.156   2.834   5.614 -1.0547  0.4816  3.0484
  126OSM     NF13443   2.228   2.785   5.874  0.1209  0.8800 -0.1366
  126OSM    HNF13444   2.139   2.768   5.916  0.2326  0.6244  0.0064
  126OSM    C2S13445   2.218   2.912   5.799 -0.2692  0.8119  0.6545
  126OSM    H2S13446   2.303   2.977   5.829  1.0853 -0.6684  0.2090
  126OSM    C3S13447   2.079   2.980   5.823 -0.1171  0.7409 -0.3005
  126OSM    H3S13448   1.995   2.908   5.810  0.3623  0.2660 -0.8901
  126OSM     O313449   2.056   3.091   5.748  0.3166 -0.3939  0.4464
  126OSM    HO313450   2.131   3.093   5.689 -1.0664  0.7837 -1.3976
  126OSM    C4S13451   2.069   3.014   5.969  0.1830 -0.0260  0.4389
  126OSM    H4S13452   2.149   3.080   6.005  1.1619 -0.9929  0.1193
  126OSM    C5S13453   1.980   2.964   6.061  0.3384  0.8317 -0.0058
  126OSM    H5S13454   1.910   2.880   6.050  0.6776  0.6837 -1.1567
  126OSM    C6S13455   1.993   2.998   6.204 -0.7064  0.3032 -0.2539
  126OSM    H6S13456   1.917   3.071   6.238 -0.2315 -0.6396  3.2164
  126OSM    H6T13457   2.089   3.051   6.224 -0.9120  0.5459  0.1046
  126OSM    C7S13458   1.965   2.887   6.311 -0.5000 -0.0881 -0.6157
  126OSM    H7S13459   2.040   2.807   6.291 -1.1796 -0.4756 -1.7043
  126OSM    H7T13460   1.864   2.849   6.288  0.0922 -1.8846 -0.3938
  126OSM    C8S13461   1.964   2.934   6.462  0.4812  0.4890  0.1064
  126OSM    H8S13462   1.880   3.005   6.471  1.1575  1.3218 -0.0518
  126OSM    H8T13463   2.049   3.002   6.485  2.5131 -0.3569 -3.9687
  126OSM    C9S13464   1.956   2.830   6.571  0.1053 -0.3895  0.6920
  126OSM    H9S13465   2.056   2.790   6.598  0.4793  0.9892  1.4284
  126OSM    H9T13466   1.900   2.742   6.533  0.7839 -0.5065 -0.0473
  126OSM   C10S13467   1.884   2.897   6.684 -0.7410 -0.0465  0.2870
  126OSM   H10S13468   1.808   2.970   6.650 -1.2192 -0.2454  0.9245
  126OSM   H10T13469   1.958   2.962   6.735  0.9246 -0.0609 -1.9320
  126OSM   C11S13470   1.815   2.809   6.785  0.0856  0.1700  0.3131
  126OSM   H11S13471   1.883   2.729   6.822 -1.4260 -0.8396  1.0047
  126OSM   H11T13472   1.721   2.771   6.739  2.6474 -2.0307 -3.7068
  126OSM   C12S13473   1.783   2.893   6.910  1.0341  0.0491 -0.0216
  126OSM   H12S13474   1.720   2.979   6.881 -0.3606 -1.9250 -3.4460
  126OSM   H12T13475   1.880   2.923   6.955 -0.0738  0.5863  2.1376
  126OSM   C13S13476   1.711   2.816   7.022  0.7287 -0.0277  0.1485
  126OSM   H13S13477   1.781   2.736   7.053  2.3959  1.6956  1.0045
  126OSM   H13T13478   1.630   2.762   6.969  1.6314 -0.3364 -0.9334
  126OSM   C14S13479   1.662   2.892   7.141  0.0019 -0.1513 -0.2527
  126OSM   H14S13480   1.597   2.968   7.093 -0.2127  0.3277  0.7624
  126OSM   H14T13481   1.747   2.935   7.198  0.0384  0.2373 -0.5985
  126OSM   C15S13482   1.584   2.800   7.237 -0.3814  0.2189  0.1854
  126OSM   H15S13483   1.646   2.708   7.246  0.8214  0.8267 -1.3623
  126OSM   H15T13484   1.488   2.764   7.195 -0.8262 -0.3324  1.6124
  126OSM   C16S13485   1.569   2.852   7.385  0.9707  0.5776  0.5537
  126OSM   H16S13486   1.662   2.890   7.432  1.2295  0.7467 -0.0834
  126OSM   H16T13487   1.543   2.761   7.443  0.3161  1.7883  2.2202
  126OSM   C17S13488   1.461   2.957   7.403  0.0398  0.6117 -0.0815
  126OSM   H17S13489   1.361   2.912   7.388 -0.1227  0.3514  1.5830
  126OSM   H17T13490   1.480   3.031   7.322 -2.0961  0.9838 -0.3004
  126OSM   C18S13491   1.465   3.022   7.541 -0.2387  0.3154 -0.5895
  126OSM   H18S13492   1.428   2.953   7.619 -1.3512  0.0299 -1.3491
  126OSM   H18T13493   1.400   3.112   7.541 -0.4448  0.1988  1.4103
  126OSM   H18U13494   1.569   3.058   7.560 -0.7072  1.1322  0.5028
  126OSM    C1F13495   2.347   2.717   5.887 -0.1641 -0.6744 -0.0491
  126OSM     OF13496   2.450   2.773   5.840 -0.2456 -0.1172 -0.2326
  126OSM    C2F13497   2.363   2.584   5.967 -0.6121 -0.3198 -0.0667
  126OSM    H2F13498   2.432   2.522   5.906 -1.5415 -0.8377 -0.6190
  126OSM    H2G13499   2.262   2.538   5.971  0.1879 -2.0316  1.7038
  126OSM    C3F13500   2.430   2.615   6.096 -0.1525  0.0761 -0.4230
  126OSM    H3F13501   2.516   2.685   6.093  1.2339 -1.4957  0.8075
  126OSM    H3G13502   2.481   2.519   6.121 -2.5656 -1.3493 -0.6172
  126OSM    C4F13503   2.330   2.664   6.210  0.6815  0.2495 -0.0383
  126OSM    H4F13504   2.261   2.578   6.225  1.1249 -0.0399  0.3668
  126OSM    H4G13505   2.278   2.753   6.168 -0.1916 -0.4945 -0.5961
  126OSM    C5F13506   2.418   2.691   6.334 -0.0780 -0.1021 -0.5128
  126OSM    H5F13507   2.511   2.748   6.310 -0.9367  1.3078 -0.5892
  126OSM    H5G13508   2.449   2.597   6.384 -0.7757  0.3400  0.7876
  126OSM    C6F13509   2.345   2.773   6.441 -0.3820 -0.7090  0.1353
  126OSM    H6F13510   2.266   2.705   6.479  0.3476 -0.2125  2.7170
  126OSM    H6G13511   2.305   2.871   6.405 -0.0768 -1.2947 -1.9494
  126OSM    C7F13512   2.428   2.806   6.570 -0.0185  0.0342 -0.2114
  126OSM    H7F13513   2.498   2.889   6.551  0.8652 -0.8107 -0.7203
  126OSM    H7G13514   2.493   2.720   6.598  0.1068  0.7597  1.9625
  126OSM    C8F13515   2.326   2.829   6.684  0.0739 -0.2365  1.2801
  126OSM    H8F13516   2.252   2.746   6.680  1.0032 -1.1026  1.6233
  126OSM    H8G13517   2.265   2.921   6.672  0.8994  0.2227  0.4834
  126OSM    C9F13518   2.399   2.837   6.820  0.6483 -0.8025  0.3163
  126OSM    H9F13519   2.484   2.770   6.835  1.5568 -0.3555 -2.3776
  126OSM   C10F13520   2.374   2.935   6.906 -0.3522 -0.3194 -0.2565
  126OSM   H10F13521   2.433   2.938   6.999 -0.7520  1.3459 -0.0250
  126OSM   C11F13522   2.266   3.046   6.903 -0.4248  0.3269 -0.0611
  126OSM   H11F13523   2.178   3.006   6.848 -0.9998  0.2681  0.8832
  126OSM   H11G13524   2.303   3.133   6.844  1.6732  0.7272  1.7043
  126OSM   C12F13525   2.228   3.104   7.040  0.4954 -0.6918  0.8362
  126OSM   H12F13526   2.143   3.175   7.036  0.4168 -0.7887  0.8080
  126OSM   H12G13527   2.317   3.140   7.096  0.6151 -1.0677  0.8914
  126OSM   C13F13528   2.170   3.000   7.138 -0.6120  0.2337 -0.0872
  126OSM   H13F13529   2.252   2.937   7.179  0.3385  1.8054  0.5116
  126OSM   H13G13530   2.098   2.937   7.081  2.2201 -1.6156 -1.9209
  126OSM   C14F13531   2.093   3.059   7.262 -0.0065  0.0749  1.0838
  126OSM   H14F13532   2.000   3.104   7.220  1.2758  0.2605 -1.8175
  126OSM   H14G13533   2.143   3.149   7.304  0.6602 -0.9627  2.5708
  126OSM   C15F13534   2.072   2.956   7.374 -0.4336 -0.4962  0.1468
  126OSM   H15F13535   2.174   2.941   7.416 -1.0130 -1.2755  1.3123
  126OSM   H15G13536   2.036   2.860   7.332  0.1047 -0.0602 -1.3458
  126OSM   C16F13537   1.987   3.017   7.486  0.1005  0.2797 -0.8143
  126OSM   H16F13538   1.885   2.998   7.445  0.5130  1.1144 -2.2756
  126OSM   H16G13539   2.014   3.121   7.513 -1.1652  0.4956 -0.2985
  126OSM   C17F13540   1.996   2.924   7.610  0.8173 -0.2279  0.2291
  126OSM   H17F13541   1.928   2.966   7.686  1.4077  0.3818  0.4337
  126OSM   H17G13542   2.098   2.933   7.654  0.5001 -0.8892  1.1367
  126OSM   C18F13543   1.958   2.770   7.599  0.7128 -0.3992  0.4306
  126OSM   H18F13544   2.008   2.734   7.506  1.3286  3.0246 -0.6757
  126OSM   H18G13545   1.850   2.752   7.583  0.5881  0.8109 -0.1701
  126OSM   H18H13546   1.975   2.705   7.688 -2.2034 -1.4307  0.3291
  127OSM      N13547   4.803   2.006   5.438  0.1620  0.4262  0.5170
  127OSM    C1513548   4.901   2.099   5.378  0.0271 -0.0451  0.1215
  127OSM   H15A13549   4.931   2.074   5.278  2.0649 -1.7175  1.0686
  127OSM   H15B13550   4.991   2.107   5.437 -0.7188 -0.7708  1.4160
  127OSM   H15C13551   4.858   2.198   5.373 -0.7797 -0.4133 -0.4747
  127OSM    C1413552   4.671   2.018   5.374 -0.0990 -0.0179 -0.1550
  127OSM   H14A13553   4.629   2.117   5.371 -1.2044 -0.4536  0.4869
  127OSM   H14B13554   4.599   1.944   5.407  1.2352 -1.1077  0.4128
  127OSM   H14C13555   4.689   2.001   5.269 -0.6052 -1.7781  0.0056
  127OSM    C1313556   4.849   1.862   5.405 -0.1803  0.6978 -0.1828
  127OSM   H13A13557   4.844   1.831   5.302  1.2215 -0.6330  0.1229
  127OSM   H13B13558   4.785   1.791   5.454  0.8621 -0.4842 -0.4881
  127OSM   H13C13559   4.952   1.845   5.433 -0.7863  1.1604  2.6384
  127OSM    C1213560   4.793   2.015   5.585  0.0239 -0.0374  1.1243
  127OSM   H12A13561   4.798   2.118   5.619 -0.1977  0.8520 -1.3134
  127OSM   H12B13562   4.884   1.964   5.614  1.6289  0.1221 -2.9076
  127OSM    C1113563   4.679   1.948   5.664  0.6441 -0.1315 -0.6741
  127OSM   H11A13564   4.585   2.005   5.649  0.7433  1.1241  2.5496
  127OSM   H11B13565   4.718   1.957   5.768 -3.1055  2.2291  0.7464
  127OSM      P13566   4.546   1.745   5.683 -0.5627 -0.0614 -0.2649
  127OSM    O1313567   4.420   1.813   5.655 -0.4315 -0.1567  0.4487
  127OSM    O1413568   4.550   1.603   5.643 -0.5259 -0.4385 -0.4283
  127OSM    O1113569   4.575   1.754   5.839 -0.5212 -0.1981 -0.2359
  127OSM    O1213570   4.666   1.817   5.622 -0.2524 -0.0928  0.0939
  127OSM    C1S13571   4.472   1.720   5.929 -0.4291 -0.4684  0.0492
  127OSM    H1S13572   4.439   1.616   5.907 -0.2564 -0.5266  0.0594
  127OSM    H1T13573   4.394   1.798   5.921  0.5465  0.4340 -1.2489
  127OSM     NF13574   4.421   1.692   6.179 -0.3402  0.6486 -0.5401
  127OSM    HNF13575   4.366   1.747   6.242  0.0745 -0.6801  1.0598
  127OSM    C2S13576   4.517   1.740   6.078  0.1287 -0.0280  0.1359
  127OSM    H2S13577   4.607   1.682   6.106 -0.7717  0.0689  3.6798
  127OSM    C3S13578   4.551   1.888   6.102  0.2004  0.4469 -0.3338
  127OSM    H3S13579   4.454   1.938   6.080 -0.1233 -0.5441 -1.3000
  127OSM     O313580   4.648   1.959   6.028  0.4403 -0.1528  1.0354
  127OSM    HO313581   4.670   1.899   5.956  1.9233 -1.0082  2.1537
  127OSM    C4S13582   4.594   1.910   6.245  0.3748  0.4598 -0.5204
  127OSM    H4S13583   4.679   1.847   6.274  0.0595  0.9553  1.7088
  127OSM    C5S13584   4.543   1.997   6.335  1.2985  0.3166  0.0011
  127OSM    H5S13585   4.453   2.056   6.310 -0.0946 -1.5484  0.4313
  127OSM    C6S13586   4.583   2.022   6.472  0.0608  0.8206 -0.3881
  127OSM    H6S13587   4.565   2.129   6.493  2.3287  0.9721  1.2658
  127OSM    H6T13588   4.691   1.996   6.478 -0.6253 -2.6414 -0.7705
  127OSM    C7S13589   4.508   1.943   6.578  0.3746  0.1078  0.6321
  127OSM    H7S13590   4.489   1.837   6.551 -0.6148  0.2742  0.6642
  127OSM    H7T13591   4.410   1.993   6.590 -0.0878 -1.3285  3.7634
  127OSM    C8S13592   4.563   1.958   6.716  0.0746  0.6563 -0.4489
  127OSM    H8S13593   4.561   2.066   6.742 -1.4126  0.5407  0.0188
  127OSM    H8T13594   4.666   1.918   6.718 -0.2027 -0.0476  1.5528
  127OSM    C9S13595   4.486   1.878   6.832 -0.2413 -0.2054 -0.5129
  127OSM    H9S13596   4.378   1.866   6.810  0.1008 -2.4315 -1.2122
  127OSM    H9T13597   4.488   1.939   6.925 -3.0901 -0.8591  0.0540
  127OSM   C10S13598   4.562   1.747   6.884  0.7438 -0.7335 -0.1517
  127OSM   H10S13599   4.518   1.707   6.977  1.9655  0.3010  0.9143
  127OSM   H10T13600   4.668   1.776   6.903  0.6190 -1.5448  2.0290
  127OSM   C11S13601   4.585   1.632   6.781  0.6172  0.3496  0.0780
  127OSM   H11S13602   4.624   1.672   6.685 -0.2306 -1.0948 -0.8998
  127OSM   H11T13603   4.499   1.575   6.739  0.7423  0.7286 -0.7202
  127OSM   C12S13604   4.685   1.531   6.839  1.0684 -0.0847 -0.3850
  127OSM   H12S13605   4.749   1.587   6.911  1.9670 -0.9244 -0.5138
  127OSM   H12T13606   4.742   1.478   6.760 -0.3049 -1.5644 -0.4415
  127OSM   C13S13607   4.621   1.416   6.921 -0.2812 -0.3494  0.1857
  127OSM   H13S13608   4.552   1.362   6.851  0.6650  0.3261 -1.3168
  127OSM   H13T13609   4.556   1.456   7.001 -1.3608 -2.1316  0.2670
  127OSM   C14S13610   4.731   1.334   6.989 -0.1630 -0.0813 -0.3374
  127OSM   H14S13611   4.795   1.389   7.062  0.5925 -1.2271 -0.1041
  127OSM   H14T13612   4.807   1.291   6.920  0.3143 -0.3793  0.3601
  127OSM   C15S13613   4.679   1.211   7.066  0.5384  0.0853  0.7385
  127OSM   H15S13614   4.767   1.144   7.075  0.7050  0.1970 -0.0251
  127OSM   H15T13615   4.623   1.161   6.985 -1.5905  3.0523  0.2281
  127OSM   C16S13616   4.597   1.225   7.199 -1.0229  0.5267 -0.3872
  127OSM   H16S13617   4.652   1.296   7.265 -1.0054 -0.7499  1.0183
  127OSM   H16T13618   4.614   1.124   7.242 -0.7297 -0.2581 -2.2508
  127OSM   C17S13619   4.454   1.248   7.173  0.1729 -0.2968 -0.2552
  127OSM   H17S13620   4.419   1.181   7.092  1.1963 -0.5821 -0.4836
  127OSM   H17T13621   4.438   1.351   7.135 -0.6360  0.2315  1.4498
  127OSM   C18S13622   4.365   1.236   7.297  0.1785  0.2330 -0.5399
  127OSM   H18S13623   4.263   1.255   7.259  0.5403  0.5362 -1.3829
  127OSM   H18T13624   4.398   1.315   7.369 -0.1418 -1.0548  1.0719
  127OSM   H18U13625   4.363   1.135   7.342 -2.0221  0.3002 -0.3837
  127OSM    C1F13626   4.385   1.568   6.182 -0.1404  0.3027  0.7503
  127OSM     OF13627   4.448   1.484   6.111  0.0959 -1.0361  0.0834
  127OSM    C2F13628   4.266   1.526   6.263 -0.7306 -0.0274  0.0703
  127OSM    H2F13629   4.172   1.559   6.214 -0.5059  1.7593  0.7700
  127OSM    H2G13630   4.275   1.585   6.357  0.7597 -2.1792  1.3755
  127OSM    C3F13631   4.257   1.374   6.297  0.8848  0.0621 -0.5841
  127OSM    H3F13632   4.358   1.328   6.293  2.0361  2.5215 -1.6954
  127OSM    H3G13633   4.201   1.332   6.211  0.0833  0.9651 -0.5171
  127OSM    C4F13634   4.177   1.347   6.426 -0.2088 -0.3072  0.3805
  127OSM    H4F13635   4.173   1.239   6.449 -0.8540 -0.2759  0.4104
  127OSM    H4G13636   4.070   1.371   6.409 -0.0791 -0.6496 -1.0654
  127OSM    C5F13637   4.226   1.418   6.555 -0.0575 -0.0903  0.1649
  127OSM    H5F13638   4.226   1.528   6.542 -0.3025 -0.1645 -0.5046
  127OSM    H5G13639   4.332   1.386   6.567  0.1600  0.8100  0.7372
  127OSM    C6F13640   4.149   1.392   6.689  0.2521  0.0270 -0.0623
  127OSM    H6F13641   4.115   1.286   6.691  1.5218 -0.4039  1.8227
  127OSM    H6G13642   4.054   1.450   6.688 -0.2750 -0.6856  2.3245
  127OSM    C7F13643   4.221   1.414   6.818 -0.1448  0.1193  0.0079
  127OSM    H7F13644   4.330   1.399   6.802 -0.3977 -2.4144  0.2573
  127OSM    H7G13645   4.191   1.335   6.890 -1.6007  0.3122 -0.3531
  127OSM    C8F13646   4.196   1.547   6.888 -0.7089  0.3485 -0.2980
  127OSM    H8F13647   4.209   1.628   6.813 -1.5905 -0.5032 -1.4000
  127OSM    H8G13648   4.273   1.556   6.968 -0.5233 -0.0639 -0.4286
  127OSM    C9F13649   4.050   1.562   6.941 -0.6999 -0.0057  0.1520
  127OSM    H9F13650   3.976   1.494   6.896 -0.0065 -2.8676  2.9285
  127OSM   C10F13651   4.014   1.617   7.058 -0.8317 -0.8587  0.6977
  127OSM   H10F13652   3.910   1.624   7.093 -1.6011 -0.3883 -1.5552
  127OSM   C11F13653   4.108   1.697   7.145 -0.4688  0.5229  0.0703
  127OSM   H11F13654   4.189   1.730   7.076  0.5948 -0.6235  0.7205
  127OSM   H11G13655   4.150   1.630   7.223 -0.1782  4.0124  3.1752
  127OSM   C12F13656   4.047   1.812   7.231 -0.9610  0.4488 -0.2360
  127OSM   H12F13657   3.960   1.772   7.287 -0.1664  0.2854  0.9059
  127OSM   H12G13658   3.993   1.880   7.161  0.1848  1.3262 -0.2902
  127OSM   C13F13659   4.170   1.883   7.296 -0.4611  0.2534 -0.2556
  127OSM   H13F13660   4.177   1.992   7.275  2.8463  0.1841  0.0219
  127OSM   H13G13661   4.259   1.859   7.234 -1.0365  1.8789 -1.8048
  127OSM   C14F13662   4.192   1.845   7.440  0.8024 -1.2376  0.2532
  127OSM   H14F13663   4.294   1.874   7.473  1.0071  1.5519 -2.4079
  127OSM   H14G13664   4.191   1.733   7.442  1.4159 -1.2579 -0.4844
  127OSM   C15F13665   4.086   1.902   7.542 -0.4490 -0.5553  0.3849
  127OSM   H15F13666   4.095   1.853   7.641  1.1609  0.6338  0.8702
  127OSM   H15G13667   3.991   1.883   7.488 -0.9372  2.1375  0.1684
  127OSM   C16F13668   4.097   2.053   7.554  0.5067 -0.2648 -0.6636
  127OSM   H16F13669   4.111   2.095   7.452 -0.7761  0.2376 -0.6489
  127OSM   H16G13670   4.173   2.096   7.623 -0.8023  2.7825 -0.9646
  127OSM   C17F13671   3.962   2.126   7.595  0.5205 -0.1295  0.6002
  127OSM   H17F13672   3.916   2.070   7.679  0.9995  0.1491  1.0519
  127OSM   H17G13673   3.897   2.117   7.506  0.7031 -0.7925  0.5337
  127OSM   C18F13674   3.980   2.275   7.639  0.1909  0.1401  1.1853
  127OSM   H18F13675   4.072   2.273   7.701  0.6720 -1.8839  0.4739
  127OSM   H18G13676   3.887   2.309   7.689  0.9638  1.2331  1.9265
  127OSM   H18H13677   3.998   2.345   7.554  1.4533  0.6269  1.8376
  128OSM      N13678   4.200   5.588   5.315  0.0349  0.0177  0.0559
  128OSM    C1513679   4.140   5.681   5.415  0.1434  0.4126 -0.5156
  128OSM   H15A13680   4.039   5.652   5.440  0.8033 -1.3984  0.2621
  128OSM   H15B13681   4.135   5.785   5.387  0.0858  0.5244 -0.0938
  128OSM   H15C13682   4.194   5.667   5.507  2.4575  0.0932 -1.8520
  128OSM    C1413683   4.176   5.447   5.355  0.3566  0.1520  0.1088
  128OSM   H14A13684   4.205   5.380   5.275  1.3947 -2.0857  2.2592
  128OSM   H14B13685   4.074   5.430   5.385 -0.4224  3.5037 -0.2746
  128OSM   H14C13686   4.244   5.423   5.435  0.2624 -2.3048 -0.4867
  128OSM    C1313687   4.153   5.605   5.177 -0.6183 -0.4473  0.4865
  128OSM   H13A13688   4.047   5.587   5.174 -0.3836 -1.7977 -0.4600
  128OSM   H13B13689   4.202   5.540   5.105 -0.2395  1.4916 -1.1042
  128OSM   H13C13690   4.169   5.707   5.144 -1.1999 -0.7141 -0.6645
  128OSM    C1213691   4.355   5.613   5.313  0.3785  0.4297 -0.4835
  128OSM   H12A13692   4.368   5.714   5.277  1.5916  0.9793  1.2992
  128OSM   H12B13693   4.404   5.545   5.245  0.1405 -2.2121  1.8136
  128OSM    C1113694   4.438   5.597   5.443 -0.3947  0.2917  0.3571
  128OSM   H11A13695   4.401   5.665   5.522 -0.7083 -1.2298  1.5693
  128OSM   H11B13696   4.537   5.636   5.412  0.0062 -1.7194 -1.1417
  128OSM      P13697   4.568   5.370   5.475 -0.0889  0.3483  0.3556
  128OSM    O1313698   4.523   5.232   5.514 -0.8361  0.4241  0.0828
  128OSM    O1413699   4.629   5.389   5.341  0.7961 -0.2086  0.3041
  128OSM    O1113700   4.678   5.424   5.574  0.1916  0.4167  0.1025
  128OSM    O1213701   4.438   5.461   5.492 -0.4531 -0.3338 -0.4776
  128OSM    C1S13702   4.661   5.405   5.718  0.9322  0.0622  0.4639
  128OSM    H1S13703   4.624   5.302   5.738  1.2435 -0.3383 -0.9325
  128OSM    H1T13704   4.597   5.482   5.766  1.6798  1.4642 -0.7075
  128OSM     NF13705   4.813   5.361   5.913  1.2013 -0.7350  0.0813
  128OSM    HNF13706   4.826   5.422   5.990 -2.2864  0.6116 -0.2506
  128OSM    C2S13707   4.801   5.431   5.783  0.2495 -0.2817 -0.1168
  128OSM    H2S13708   4.882   5.389   5.719 -0.4080  0.2948 -1.3398
  128OSM    C3S13709   4.806   5.582   5.799 -0.5482  0.4857 -0.5316
  128OSM    H3S13710   4.734   5.615   5.877  0.9480 -0.2775  1.2467
  128OSM     O313711   4.779   5.656   5.688 -0.3059  0.1907  0.5237
  128OSM    HO313712   4.740   5.602   5.619 -0.5349  1.5621 -0.4641
  128OSM    C4S13713   4.946   5.616   5.857  0.8555  0.7637  0.1677
  128OSM    H4S13714   5.033   5.579   5.802  0.6933 -1.1544  1.1271
  128OSM    C5S13715   4.960   5.678   5.974  0.5450 -0.3701  0.7865
  128OSM    H5S13716   4.866   5.704   6.025 -0.6606  0.9494 -1.9149
  128OSM    C6S13717   5.088   5.720   6.044 -0.5771 -0.5129 -0.1980
  128OSM    H6S13718   5.082   5.831   6.049 -2.4295 -0.5819 -0.2021
  128OSM    H6T13719   5.173   5.699   5.975  1.4754 -1.7050  2.5152
  128OSM    C7S13720   5.109   5.649   6.176  0.3174 -0.3622 -0.1117
  128OSM    H7S13721   5.208   5.681   6.214 -0.0336  0.7006 -0.0497
  128OSM    H7T13722   5.098   5.540   6.154 -1.3717 -0.0437 -1.0559
  128OSM    C8S13723   5.007   5.681   6.283 -0.9448 -0.1207  0.0826
  128OSM    H8S13724   4.910   5.635   6.253 -1.6742 -1.0233  3.4638
  128OSM    H8T13725   4.999   5.791   6.298  2.9864  0.6475 -2.1317
  128OSM    C9S13726   5.038   5.605   6.412  0.2595 -0.4289  0.1128
  128OSM    H9S13727   5.138   5.643   6.440 -0.9774  0.9620  3.1016
  128OSM    H9T13728   5.041   5.496   6.393  2.2033 -0.5447  0.9251
  128OSM   C10S13729   4.953   5.629   6.529  0.6944 -0.3865 -0.3936
  128OSM   H10S13730   4.844   5.614   6.513  0.3353  1.4333  0.0772
  128OSM   H10T13731   4.969   5.731   6.570  0.2346  0.1702 -1.5298
  128OSM   C11S13732   4.990   5.532   6.641 -0.4478 -0.5962  0.2243
  128OSM   H11S13733   5.087   5.552   6.692 -0.3934  1.6735 -0.6686
  128OSM   H11T13734   5.007   5.432   6.596  0.3308 -0.7463  0.8139
  128OSM   C12S13735   4.878   5.515   6.742 -0.0687 -0.6142 -0.1625
  128OSM   H12S13736   4.793   5.468   6.688 -0.0443 -1.0029  0.1330
  128OSM   H12T13737   4.844   5.616   6.775  1.1233 -0.4199  0.5304
  128OSM   C13S13738   4.910   5.430   6.865 -0.5368 -0.0708  0.0337
  128OSM   H13S13739   4.992   5.469   6.928 -0.3254 -2.6262  1.4957
  128OSM   H13T13740   4.937   5.330   6.825 -1.5145 -0.2973 -0.1046
  128OSM   C14S13741   4.794   5.404   6.961  0.8585 -0.0313  0.0891
  128OSM   H14S13742   4.828   5.331   7.037  1.3351  1.4599  1.3598
  128OSM   H14T13743   4.718   5.354   6.897 -0.0006  1.8089 -0.3902
  128OSM   C15S13744   4.747   5.533   7.030  0.0983  0.3157  0.1076
  128OSM   H15S13745   4.711   5.615   6.964 -0.5472 -0.9035 -1.0850
  128OSM   H15T13746   4.838   5.570   7.083  0.3533 -0.7144  0.4089
  128OSM   C16S13747   4.639   5.515   7.140 -0.0615  0.3603  0.5573
  128OSM   H16S13748   4.669   5.435   7.210  0.8204  0.5201  0.3732
  128OSM   H16T13749   4.550   5.477   7.086  1.1044  0.6073 -1.6763
  128OSM   C17S13750   4.619   5.655   7.198  0.2888 -0.1243  0.0706
  128OSM   H17S13751   4.576   5.700   7.106  0.9495 -2.1974 -1.3075
  128OSM   H17T13752   4.717   5.695   7.232 -0.9028  1.5122  1.8203
  128OSM   C18S13753   4.517   5.657   7.327  0.7095  0.0306  0.1628
  128OSM   H18S13754   4.429   5.591   7.307  1.9660 -1.1185 -1.8785
  128OSM   H18T13755   4.502   5.762   7.360  1.7874 -0.1820  1.4083
  128OSM   H18U13756   4.572   5.600   7.404  1.0098  0.6131  0.3821
  128OSM    C1F13757   4.807   5.227   5.916 -0.2054 -0.2374  0.0736
  128OSM     OF13758   4.820   5.147   5.821  0.3264  0.0340 -0.5458
  128OSM    C2F13759   4.792   5.168   6.055  0.0997  0.7329  0.0063
  128OSM    H2F13760   4.869   5.088   6.066 -1.6735 -0.7991  2.5718
  128OSM    H2G13761   4.691   5.122   6.068  0.1838  0.3654 -0.6079
  128OSM    C3F13762   4.800   5.273   6.173  0.3903  0.2093  0.2020
  128OSM    H3F13763   4.727   5.356   6.165 -0.6442 -0.5487  1.3709
  128OSM    H3G13764   4.899   5.322   6.156 -0.3952  1.7134 -0.2032
  128OSM    C4F13765   4.789   5.201   6.309  0.1009 -0.4912  0.6483
  128OSM    H4F13766   4.859   5.115   6.298  0.7005  0.2530 -2.2762
  128OSM    H4G13767   4.681   5.173   6.317 -0.9729  2.7318 -0.9034
  128OSM    C5F13768   4.818   5.286   6.431 -0.0587 -0.6967  0.2235
  128OSM    H5F13769   4.795   5.393   6.415  2.4099  0.2924  2.4577
  128OSM    H5G13770   4.928   5.292   6.442 -0.1432  1.1602  0.2975
  128OSM    C6F13771   4.737   5.240   6.557  0.1333 -0.1753 -0.0800
  128OSM    H6F13772   4.795   5.267   6.648 -0.7743  1.0987  0.1409
  128OSM    H6G13773   4.723   5.130   6.547 -2.7354 -0.2154  2.8616
  128OSM    C7F13774   4.596   5.299   6.563  0.5388 -0.2451 -0.1326
  128OSM    H7F13775   4.542   5.298   6.466 -1.6437  1.1357  0.9941
  128OSM    H7G13776   4.618   5.407   6.571 -1.5388  0.0701  3.6188
  128OSM    C8F13777   4.510   5.248   6.676  0.6131 -0.4181  0.1991
  128OSM    H8F13778   4.430   5.324   6.686  2.5784  1.6066  1.2857
  128OSM    H8G13779   4.571   5.260   6.768 -0.5648  0.8212  0.8530
  128OSM    C9F13780   4.460   5.105   6.665  0.8585  0.7040 -0.2588
  128OSM    H9F13781   4.505   5.049   6.582  1.0765 -0.4454  0.6176
  128OSM   C10F13782   4.368   5.049   6.750  0.2922  0.3744  0.2381
  128OSM   H10F13783   4.348   4.941   6.738  0.6657  0.1994  1.0656
  128OSM   C11F13784   4.303   5.110   6.871 -0.0307 -0.5455 -0.2510
  128OSM   H11F13785   4.194   5.101   6.850  0.0956 -2.4879 -0.3176
  128OSM   H11G13786   4.318   5.220   6.874 -1.6330 -0.2810 -0.9518
  128OSM   C12F13787   4.335   5.033   7.000 -0.3176  0.1754 -0.6341
  128OSM   H12F13788   4.445   5.019   7.007 -0.0916  1.9865 -0.1539
  128OSM   H12G13789   4.291   4.931   6.985  2.0658 -0.9422 -0.3885
  128OSM   C13F13790   4.283   5.084   7.135 -0.1556 -0.7679  0.7263
  128OSM   H13F13791   4.329   5.185   7.143  1.2798 -0.9706 -2.9058
  128OSM   H13G13792   4.307   5.024   7.226  3.1635 -1.3115 -0.3516
  128OSM   C14F13793   4.137   5.109   7.130 -0.3137 -1.0952 -0.2197
  128OSM   H14F13794   4.072   5.026   7.097 -1.4203 -0.5517  0.5649
  128OSM   H14G13795   4.121   5.188   7.053  1.6998 -0.5073 -0.1145
  128OSM   C15F13796   4.084   5.177   7.259  0.3001  0.5309 -0.0077
  128OSM   H15F13797   3.973   5.177   7.253  0.3324  1.6457 -0.9395
  128OSM   H15G13798   4.126   5.279   7.255  0.4285  0.5101  0.6899
  128OSM   C16F13799   4.113   5.097   7.384 -0.0727  0.1879  0.3633
  128OSM   H16F13800   4.214   5.120   7.424  1.2556 -2.2474 -1.2893
  128OSM   H16G13801   4.123   4.988   7.365 -1.4994  0.0177  0.4617
  128OSM   C17F13802   3.997   5.119   7.486  0.1512 -0.0748 -0.9225
  128OSM   H17F13803   3.902   5.097   7.433 -1.3543  3.2310  0.1504
  128OSM   H17G13804   3.997   5.229   7.500  0.8045 -0.2936  0.9705
  128OSM   C18F13805   4.017   5.051   7.621 -0.0613 -0.1141 -0.4408
  128OSM   H18F13806   4.115   5.078   7.667  0.2893  0.5872 -1.5803
  128OSM   H18G13807   4.003   4.941   7.621 -0.0212 -0.1235  0.0754
  128OSM   H18H13808   3.935   5.092   7.684  1.3279  2.6591 -0.2708
  129OSM      N13809   2.654   2.115   5.665  0.3573 -0.8086  0.3112
  129OSM    C1513810   2.686   2.221   5.765  0.5734 -0.6536 -0.5492
  129OSM   H15A13811   2.660   2.314   5.718  0.3603 -1.9535 -3.1599
  129OSM   H15B13812   2.787   2.226   5.803  0.3880 -3.4676  0.5691
  129OSM   H15C13813   2.627   2.207   5.855 -1.0284  0.6517 -1.3462
  129OSM    C1413814   2.530   2.160   5.595  0.0946 -0.3132  0.5138
  129OSM   H14A13815   2.504   2.087   5.520 -1.2206  0.0423  0.6002
  129OSM   H14B13816   2.540   2.247   5.532 -0.6776 -0.7755 -0.2681
  129OSM   H14C13817   2.442   2.175   5.657  0.3124 -0.8174  0.9550
  129OSM    C1313818   2.768   2.116   5.566  0.1501  0.0135  0.2923
  129OSM   H13A13819   2.756   2.038   5.492 -1.3829  0.5639 -0.0778
  129OSM   H13B13820   2.862   2.099   5.616 -0.0722 -1.4255  0.2689
  129OSM   H13C13821   2.776   2.209   5.511  0.7015 -0.2880 -0.1535
  129OSM    C1213822   2.644   1.980   5.740  0.1892  0.7931  0.2948
  129OSM   H12A13823   2.620   1.895   5.678 -1.9448 -1.6055  4.0371
  129OSM   H12B13824   2.562   1.985   5.810 -2.3579 -1.6683 -2.2408
  129OSM    C1113825   2.774   1.937   5.812  0.0434 -0.6733 -0.2399
  129OSM   H11A13826   2.758   1.853   5.882  0.0339  1.6779  2.8216
  129OSM   H11B13827   2.805   2.015   5.885  0.3406 -1.6228  0.6711
  129OSM      P13828   2.875   1.774   5.644 -0.5993  0.0997  0.1401
  129OSM    O1313829   2.762   1.770   5.548  0.0902 -0.0885 -0.1871
  129OSM    O1413830   3.005   1.765   5.574  0.6407 -0.3692  0.2036
  129OSM    O1113831   2.859   1.660   5.750 -0.1525 -0.1925  0.2616
  129OSM    O1213832   2.874   1.910   5.719  0.1603 -0.4741  0.4841
  129OSM    C1S13833   2.970   1.657   5.847  0.2769  0.2209  0.1373
  129OSM    H1S13834   3.015   1.755   5.873  1.8341  0.2574 -2.3077
  129OSM    H1T13835   3.057   1.603   5.802 -0.2692 -0.6540  0.1036
  129OSM     NF13836   3.023   1.592   6.074  0.4098  0.1537  0.0254
  129OSM    HNF13837   3.087   1.517   6.092  2.6768  2.2820  1.4817
  129OSM    C2S13838   2.930   1.574   5.971  0.3367 -0.1740  0.0428
  129OSM    H2S13839   2.833   1.615   6.007  0.8068 -0.4635  1.7100
  129OSM    C3S13840   2.909   1.424   5.921 -0.1321 -0.2180  0.2870
  129OSM    H3S13841   3.002   1.374   5.888 -0.3739 -0.6672  0.2785
  129OSM     O313842   2.808   1.394   5.824  0.0872 -0.1900 -0.0746
  129OSM    HO313843   2.780   1.481   5.794 -1.1393 -0.3756  0.4867
  129OSM    C4S13844   2.872   1.346   6.047 -0.0012 -0.2595 -0.2925
  129OSM    H4S13845   2.790   1.383   6.109  1.2576 -1.3026  2.1325
  129OSM    C5S13846   2.944   1.251   6.099 -0.0076  0.4243 -0.1166
  129OSM    H5S13847   3.033   1.210   6.049  0.6159  0.9304  0.5634
  129OSM    C6S13848   2.910   1.186   6.231 -0.1206 -0.2229  0.7382
  129OSM    H6S13849   2.996   1.120   6.257 -0.5166 -1.2199 -0.3588
  129OSM    H6T13850   2.826   1.116   6.210  1.1753 -1.3774 -0.9567
  129OSM    C7S13851   2.855   1.282   6.348 -0.6142 -0.3142  0.5691
  129OSM    H7S13852   2.751   1.306   6.318  0.0630  0.2053 -1.5199
  129OSM    H7T13853   2.906   1.380   6.348 -0.6639 -0.2611  2.1061
  129OSM    C8S13854   2.862   1.221   6.489  0.7053 -0.2180 -0.6903
  129OSM    H8S13855   2.961   1.172   6.505  0.1280 -1.1290  0.2100
  129OSM    H8T13856   2.793   1.134   6.494  0.4179  0.0723  0.5044
  129OSM    C9S13857   2.811   1.319   6.598 -0.1915  0.3277 -0.1137
  129OSM    H9S13858   2.717   1.360   6.556 -0.7281 -0.6902  0.0615
  129OSM    H9T13859   2.885   1.401   6.607  0.8473 -0.7460  1.5621
  129OSM   C10S13860   2.793   1.248   6.730 -0.8016  0.1919  0.3916
  129OSM   H10S13861   2.882   1.187   6.755  0.5474  0.3969 -3.3437
  129OSM   H10T13862   2.705   1.180   6.725  0.6327 -1.6930 -0.1718
  129OSM   C11S13863   2.759   1.337   6.850 -0.5392  0.2467  0.0092
  129OSM   H11S13864   2.667   1.397   6.834  0.6000  1.9672 -0.4383
  129OSM   H11T13865   2.846   1.404   6.871  0.0076 -0.6498  0.6701
  129OSM   C12S13866   2.731   1.261   6.988 -0.3824  0.2823  0.8261
  129OSM   H12S13867   2.818   1.201   7.024  0.9931  0.2506 -2.2533
  129OSM   H12T13868   2.648   1.189   6.971 -0.7782  0.8511  0.3156
  129OSM   C13S13869   2.702   1.370   7.095 -0.0682 -0.5464  0.1223
  129OSM   H13S13870   2.615   1.429   7.060  0.5053  0.8103  0.8820
  129OSM   H13T13871   2.776   1.452   7.110 -1.2582  0.3251  1.6339
  129OSM   C14S13872   2.673   1.314   7.238 -0.6418 -0.5047  0.0181
  129OSM   H14S13873   2.768   1.267   7.271 -1.0135 -1.9904 -0.9378
  129OSM   H14T13874   2.598   1.233   7.251  0.9007 -2.2092 -1.2547
  129OSM   C15S13875   2.640   1.419   7.346  0.5068  1.2444  0.1723
  129OSM   H15S13876   2.558   1.485   7.312 -0.5261 -0.4921 -0.8581
  129OSM   H15T13877   2.728   1.486   7.359  0.1925  1.5855  0.5735
  129OSM   C16S13878   2.610   1.352   7.482  0.4032  0.2966  0.1955
  129OSM   H16S13879   2.700   1.308   7.530  0.5966 -0.1246 -0.5393
  129OSM   H16T13880   2.528   1.277   7.474 -0.1007  0.6868  1.3987
  129OSM   C17S13881   2.563   1.459   7.582 -0.3565  1.1686 -0.4358
  129OSM   H17S13882   2.464   1.502   7.555 -1.7907 -1.6106  0.0378
  129OSM   H17T13883   2.635   1.543   7.592  0.0223  0.5142  4.3055
  129OSM   C18S13884   2.542   1.405   7.724  0.1753 -0.3945 -0.2532
  129OSM   H18S13885   2.477   1.315   7.725 -2.2314  1.2486 -1.0836
  129OSM   H18T13886   2.486   1.490   7.770  2.4388  0.7781  0.5029
  129OSM   H18U13887   2.635   1.393   7.784 -0.1366 -0.1189  0.3011
  129OSM    C1F13888   3.035   1.710   6.138 -0.7202 -1.1048  0.1908
  129OSM     OF13889   2.968   1.807   6.103  0.1564 -0.3438 -0.5912
  129OSM    C2F13890   3.132   1.710   6.251 -0.0995 -0.1122 -0.9445
  129OSM    H2F13891   3.236   1.720   6.213  0.6754 -1.1600  0.7760
  129OSM    H2G13892   3.137   1.615   6.308  0.2195  0.2440 -0.3784
  129OSM    C3F13893   3.118   1.827   6.350  0.6240  0.2757  0.7137
  129OSM    H3F13894   3.088   1.921   6.298  1.6811 -0.3860 -1.1793
  129OSM    H3G13895   3.214   1.856   6.398  0.1620  1.6509  0.8529
  129OSM    C4F13896   3.022   1.791   6.469  0.0933  0.3887  0.2358
  129OSM    H4F13897   3.065   1.706   6.527 -0.9388  0.4797  1.1745
  129OSM    H4G13898   2.929   1.744   6.430  1.5672 -3.0644  0.4864
  129OSM    C5F13899   2.995   1.904   6.560  0.2163  0.8422  0.0055
  129OSM    H5F13900   2.937   1.977   6.499 -0.8682 -0.4326 -0.5390
  129OSM    H5G13901   3.085   1.966   6.583  1.1737 -0.7158  0.6085
  129OSM    C6F13902   2.916   1.858   6.685  0.4291  0.1899  0.3023
  129OSM    H6F13903   2.857   1.768   6.661  0.5235  0.0174  0.7046
  129OSM    H6G13904   2.841   1.938   6.705  0.7281  0.8869 -1.2088
  129OSM    C7F13905   3.007   1.827   6.802  0.1251  1.0287 -0.8102
  129OSM    H7F13906   3.077   1.911   6.821 -0.5626  0.9217  3.1006
  129OSM    H7G13907   3.073   1.740   6.779  0.2281  1.2192 -1.2390
  129OSM    C8F13908   2.939   1.818   6.941  0.7401  0.2284  1.1949
  129OSM    H8F13909   2.887   1.916   6.945 -2.2555 -1.0350 -2.0953
  129OSM    H8G13910   3.020   1.830   7.017  0.7912  1.2688  0.9986
  129OSM    C9F13911   2.844   1.707   6.963 -0.1757  0.4901  0.6933
  129OSM    H9F13912   2.871   1.619   6.903 -1.2031  0.9298 -0.4538
  129OSM   C10F13913   2.725   1.720   7.035 -0.1301  0.1517 -0.7089
  129OSM   H10F13914   2.662   1.631   7.045  0.4398 -0.3630 -1.5435
  129OSM   C11F13915   2.661   1.840   7.107 -0.7027 -0.1175 -0.1181
  129OSM   H11F13916   2.570   1.807   7.162  0.2033  0.1399  1.5827
  129OSM   H11G13917   2.632   1.922   7.038 -1.3412  0.6845  1.0643
  129OSM   C12F13918   2.754   1.906   7.210 -0.0637  0.6716  0.4891
  129OSM   H12F13919   2.852   1.926   7.162 -0.6712  1.4177 -0.4854
  129OSM   H12G13920   2.782   1.845   7.299  2.2465  1.0641  0.0855
  129OSM   C13F13921   2.681   2.034   7.261  0.4976 -0.0658 -0.1833
  129OSM   H13F13922   2.585   2.003   7.307  2.1416 -0.7737  3.0853
  129OSM   H13G13923   2.674   2.105   7.175  3.0806 -0.3154 -0.6935
  129OSM   C14F13924   2.761   2.122   7.364 -0.1023  0.8913 -0.2504
  129OSM   H14F13925   2.860   2.158   7.328 -0.4422  0.8799 -1.2377
  129OSM   H14G13926   2.786   2.045   7.439 -0.4850  0.2657 -0.7545
  129OSM   C15F13927   2.680   2.233   7.437 -0.1380  0.4976  0.2119
  129OSM   H15F13928   2.581   2.201   7.475  0.4983 -0.3842  1.1591
  129OSM   H15G13929   2.651   2.306   7.358 -1.7891 -0.5605 -0.2197
  129OSM   C16F13930   2.759   2.309   7.550  0.5435  0.0169  0.0395
  129OSM   H16F13931   2.781   2.229   7.624  0.2274 -1.0231 -0.9689
  129OSM   H16G13932   2.693   2.388   7.592  1.3407  1.6218 -1.5754
  129OSM   C17F13933   2.891   2.374   7.499 -0.1485 -0.7330  0.6014
  129OSM   H17F13934   2.949   2.292   7.451  1.7853  1.8501 -1.7630
  129OSM   H17G13935   2.937   2.401   7.596 -0.6608  0.3869  0.5482
  129OSM   C18F13936   2.895   2.499   7.409 -0.1856 -0.1719  0.0812
  129OSM   H18F13937   2.810   2.564   7.440 -0.4341 -0.8070  0.7305
  129OSM   H18G13938   2.874   2.462   7.306 -5.3225  2.9248 -0.3548
  129OSM   H18H13939   2.992   2.553   7.413 -1.4712  2.3154  0.0878
  130OSM      N13940   6.220   4.966   5.307  0.3304 -0.1639  0.6179
  130OSM    C1513941   6.115   4.874   5.250 -0.2357 -0.6163 -0.6275
  130OSM   H15A13942   6.066   4.912   5.162  0.9534  1.7598 -0.3555
  130OSM   H15B13943   6.041   4.857   5.326  0.2701  1.6173  0.4579
  130OSM   H15C13944   6.143   4.771   5.234 -1.6848 -1.0569 -0.3782
  130OSM    C1413945   6.300   4.887   5.405 -0.3962 -0.6411 -0.1792
  130OSM   H14A13946   6.325   4.788   5.369  0.9533  0.3226 -2.0377
  130OSM   H14B13947   6.232   4.888   5.489 -1.2733  1.5772 -0.8202
  130OSM   H14C13948   6.387   4.946   5.426 -2.1884  1.3611  2.3231
  130OSM    C1313949   6.310   5.007   5.190 -0.7984  0.0462  0.7896
  130OSM   H13A13950   6.252   5.060   5.116 -1.9479 -1.8213  0.3014
  130OSM   H13B13951   6.351   4.925   5.133  0.9087  2.2865 -1.4422
  130OSM   H13C13952   6.392   5.074   5.214  0.1986 -0.8012 -0.1609
  130OSM    C1213953   6.153   5.090   5.361 -0.1624  0.9147  0.3699
  130OSM   H12A13954   6.107   5.147   5.282  2.0982  0.6881 -1.2090
  130OSM   H12B13955   6.238   5.144   5.400  0.7172 -0.6700  0.7692
  130OSM    C1113956   6.061   5.080   5.491 -0.7119 -0.2573  0.1082
  130OSM   H11A13957   6.033   5.182   5.523 -2.8550 -0.1771 -1.7437
  130OSM   H11B13958   6.120   5.034   5.573  0.8717 -1.6627 -1.7325
  130OSM      P13959   5.830   4.980   5.563 -0.2745 -0.3996 -0.2979
  130OSM    O1313960   5.703   5.016   5.504  0.8525  0.1958 -0.0649
  130OSM    O1413961   5.850   4.838   5.608 -0.0530 -0.2335  0.1868
  130OSM    O1113962   5.865   5.080   5.673  0.7100  0.0863  0.0386
  130OSM    O1213963   5.950   5.001   5.465 -0.3813 -0.2898  0.0986
  130OSM    C1S13964   5.831   5.054   5.812 -0.7413 -0.1795  0.1767
  130OSM    H1S13965   5.860   4.952   5.844 -0.6436  0.2823  1.6437
  130OSM    H1T13966   5.724   5.072   5.835 -0.8158  0.5723 -0.6888
  130OSM     NF13967   5.881   5.101   6.055 -0.2844  0.0133 -0.0143
  130OSM    HNF13968   5.851   5.176   6.112  0.5771  0.8546 -0.6399
  130OSM    C2S13969   5.917   5.135   5.919  0.2730  0.8514 -0.5923
  130OSM    H2S13970   6.022   5.109   5.894  0.3134 -2.0608  2.0274
  130OSM    C3S13971   5.893   5.287   5.883  0.3530  0.5406  0.5476
  130OSM    H3S13972   5.782   5.290   5.879  0.3472 -0.6243 -0.9837
  130OSM     O313973   5.937   5.317   5.748  0.5917  0.2413 -0.5029
  130OSM    HO313974   5.928   5.234   5.699  0.2079 -1.0184  1.6003
  130OSM    C4S13975   5.952   5.385   5.973  0.2879 -0.4153  0.3159
  130OSM    H4S13976   6.059   5.374   5.997  0.0488  0.4443  1.9167
  130OSM    C5S13977   5.885   5.468   6.054  0.2950  0.1670 -0.0945
  130OSM    H5S13978   5.775   5.481   6.047  0.6213  3.4739 -1.3689
  130OSM    C6S13979   5.946   5.560   6.156 -0.3250 -0.1318  0.3870
  130OSM    H6S13980   5.920   5.665   6.131  0.0152 -0.3758 -1.0998
  130OSM    H6T13981   6.056   5.546   6.149  0.0510  1.4438  2.3912
  130OSM    C7S13982   5.890   5.525   6.296  0.0044 -0.1808  0.5533
  130OSM    H7S13983   5.779   5.523   6.291  0.0448 -0.3287 -0.5056
  130OSM    H7T13984   5.922   5.613   6.355  0.5685  2.0440 -2.7963
  130OSM    C8S13985   5.938   5.395   6.351  0.1074 -0.3148  0.2025
  130OSM    H8S13986   6.049   5.397   6.358  0.1596 -0.9121 -0.3356
  130OSM    H8T13987   5.911   5.306   6.290  2.6258 -0.5713 -0.6952
  130OSM    C9S13988   5.877   5.375   6.492 -0.4133 -0.2150  0.3426
  130OSM    H9S13989   5.772   5.343   6.480  0.0496 -1.1786 -1.5135
  130OSM    H9T13990   5.879   5.471   6.549 -1.9614 -0.2582  0.5082
  130OSM   C10S13991   5.969   5.285   6.573 -0.5846  0.9131  0.0279
  130OSM   H10S13992   6.073   5.324   6.581 -0.0399 -0.2917 -0.8939
  130OSM   H10T13993   5.992   5.192   6.517 -1.1813 -0.4370  1.9208
  130OSM   C11S13994   5.905   5.237   6.704  0.4117  0.0014  0.5019
  130OSM   H11S13995   5.979   5.173   6.757  1.7371  2.0437  1.2496
  130OSM   H11T13996   5.812   5.179   6.687  0.9996 -0.3954 -1.5708
  130OSM   C12S13997   5.876   5.356   6.795 -0.0938  0.3967  1.2460
  130OSM   H12S13998   5.801   5.423   6.748 -0.8059 -0.4449  1.1726
  130OSM   H12T13999   5.973   5.410   6.804  0.5047 -0.8422  2.7164
  130OSM   C13S14000   5.830   5.303   6.938 -0.3530 -0.0186  0.3910
  130OSM   H13S14001   5.815   5.395   6.999 -0.0896  1.0934 -1.1538
  130OSM   H13T14002   5.917   5.246   6.977 -1.4770 -0.9165  1.7048
  130OSM   C14S14003   5.706   5.216   6.948  0.0466  0.2486 -0.5123
  130OSM   H14S14004   5.711   5.128   6.881 -1.4317 -1.9096  2.0478
  130OSM   H14T14005   5.619   5.281   6.922 -0.0954  1.2252  2.0585
  130OSM   C15S14006   5.677   5.169   7.091 -0.3260  0.6340  0.4910
  130OSM   H15S14007   5.757   5.099   7.124 -0.5377  0.0544 -0.1870
  130OSM   H15T14008   5.580   5.115   7.095  0.1860 -0.2235  2.8769
  130OSM   C16S14009   5.664   5.270   7.198 -0.8527 -0.6700  0.7764
  130OSM   H16S14010   5.647   5.371   7.155  2.1108 -0.5996 -0.5311
  130OSM   H16T14011   5.754   5.269   7.263 -0.0582 -2.6970 -0.2725
  130OSM   C17S14012   5.549   5.237   7.295 -0.0546  0.2500  0.7973
  130OSM   H17S14013   5.576   5.139   7.340  0.7514  0.9762  1.9539
  130OSM   H17T14014   5.460   5.223   7.230  0.1947 -0.8389  0.6741
  130OSM   C18S14015   5.537   5.334   7.403  0.1665 -0.6228  0.9198
  130OSM   H18S14016   5.538   5.441   7.373 -0.1204 -0.5675  1.1002
  130OSM   H18T14017   5.623   5.314   7.470  0.7751 -1.1049  0.0149
  130OSM   H18U14018   5.447   5.323   7.468  0.8711 -0.7156  1.9082
  130OSM    C1F14019   5.892   4.985   6.109 -0.8987 -0.4131  0.1054
  130OSM     OF14020   5.971   4.910   6.064 -0.4187  0.2848  0.0695
  130OSM    C2F14021   5.811   4.952   6.229  0.0465 -0.1470  0.2181
  130OSM    H2F14022   5.754   4.858   6.210  0.7246 -0.5587  0.1629
  130OSM    H2G14023   5.742   5.035   6.254 -1.4922 -1.5292  0.7322
  130OSM    C3F14024   5.896   4.919   6.354  0.2527  0.4014 -0.5726
  130OSM    H3F14025   5.931   5.019   6.388  0.3591  0.7629 -1.7203
  130OSM    H3G14026   5.972   4.839   6.342 -1.9765 -1.7476 -1.1091
  130OSM    C4F14027   5.805   4.870   6.465 -0.1619 -0.3922  0.0391
  130OSM    H4F14028   5.771   4.768   6.440  0.8887 -0.6403 -0.4163
  130OSM    H4G14029   5.713   4.932   6.480  1.2217  1.9620 -0.6269
  130OSM    C5F14030   5.886   4.865   6.602  0.5469  0.0787  0.5569
  130OSM    H5F14031   5.906   4.966   6.642  1.0974  1.7629 -3.4607
  130OSM    H5G14032   5.986   4.822   6.582  0.5544  0.8718 -1.3615
  130OSM    C6F14033   5.812   4.778   6.698 -0.6447  0.3363 -0.9614
  130OSM    H6F14034   5.814   4.671   6.667  2.8540 -0.7986  2.3139
  130OSM    H6G14035   5.707   4.811   6.717 -0.7665 -0.6554  0.2322
  130OSM    C7F14036   5.861   4.788   6.842  0.1445 -0.1182 -0.4555
  130OSM    H7F14037   5.871   4.894   6.875 -1.7538 -0.0576  0.0673
  130OSM    H7G14038   5.963   4.746   6.837 -0.8223 -2.6233 -0.4768
  130OSM    C8F14039   5.775   4.693   6.936 -0.9148 -0.4558  0.5129
  130OSM    H8F14040   5.843   4.678   7.022 -1.2120  1.1698  1.0703
  130OSM    H8G14041   5.762   4.595   6.885  1.5388 -1.8173  2.3317
  130OSM    C9F14042   5.648   4.764   6.971 -1.0692  0.4701 -0.3843
  130OSM    H9F14043   5.590   4.787   6.880 -1.7138  0.6513  0.0653
  130OSM   C10F14044   5.604   4.804   7.090 -0.2482 -0.1294  0.1123
  130OSM   H10F14045   5.520   4.876   7.093 -1.1294 -1.0721 -1.0171
  130OSM   C11F14046   5.674   4.788   7.224  0.0792 -0.8952  0.0492
  130OSM   H11F14047   5.723   4.878   7.267  1.2072 -1.3087 -0.3524
  130OSM   H11G14048   5.756   4.713   7.218  1.1969 -0.0568  3.1040
  130OSM   C12F14049   5.565   4.737   7.322 -0.3950 -0.0954  0.0687
  130OSM   H12F14050   5.530   4.637   7.288  1.5110 -1.0252  0.6763
  130OSM   H12G14051   5.474   4.799   7.332 -1.0771 -1.2620  1.4864
  130OSM   C13F14052   5.613   4.705   7.465  0.6500 -0.2514  0.9688
  130OSM   H13F14053   5.524   4.662   7.516 -0.7835  1.2063 -0.1825
  130OSM   H13G14054   5.626   4.797   7.526  1.8953 -0.8243  1.5782
  130OSM   C14F14055   5.736   4.607   7.479  0.0443 -0.5301 -0.6612
  130OSM   H14F14056   5.746   4.597   7.590 -1.8501 -1.9893 -0.5779
  130OSM   H14G14057   5.823   4.666   7.444 -1.0150  2.2893  1.0976
  130OSM   C15F14058   5.734   4.461   7.424 -0.1783  0.2975 -0.2657
  130OSM   H15F14059   5.835   4.416   7.434 -1.4619 -2.7762  0.0939
  130OSM   H15G14060   5.697   4.456   7.319 -0.4620  1.0181 -0.2089
  130OSM   C16F14061   5.636   4.369   7.505  0.7073 -0.0976 -0.4726
  130OSM   H16F14062   5.637   4.276   7.445 -0.9214  0.9350 -2.2379
  130OSM   H16G14063   5.538   4.422   7.507  0.7942  0.0368  0.1901
  130OSM   C17F14064   5.683   4.325   7.647  0.5373  0.2863 -0.3056
  130OSM   H17F14065   5.679   4.410   7.719 -1.3446  0.6046 -0.7436
  130OSM   H17G14066   5.777   4.264   7.647 -1.1281 -2.4635  0.9156
  130OSM   C18F14067   5.582   4.221   7.697  0.1516  0.2465 -0.1055
  130OSM   H18F14068   5.480   4.259   7.677  0.8530  1.8922 -0.7465
  130OSM   H18G14069   5.605   4.207   7.804  0.3020  0.1618 -0.1479
  130OSM   H18H14070   5.592   4.121   7.649 -0.4725  0.9146 -1.7247
  131OSM      N14071   3.086   1.312   5.449  0.0828  0.3044 -0.3776
  131OSM    C1514072   3.091   1.350   5.299 -0.1756  0.4486  0.0881
  131OSM   H15A14073   2.994   1.346   5.251  0.0670  2.8115 -0.6902
  131OSM   H15B14074   3.172   1.294   5.255 -0.2794  0.9457 -0.7660
  131OSM   H15C14075   3.108   1.456   5.287  1.8427 -0.0025 -1.5648
  131OSM    C1414076   2.982   1.394   5.518  0.5702 -0.9014 -0.0569
  131OSM   H14A14077   2.886   1.386   5.469 -0.8454  0.3730  2.3609
  131OSM   H14B14078   3.015   1.497   5.524  0.3059 -0.7312 -1.2675
  131OSM   H14C14079   2.963   1.357   5.617  0.8520 -0.7072  0.0717
  131OSM    C1314080   3.050   1.165   5.473 -0.4184  0.3488 -0.6178
  131OSM   H13A14081   3.118   1.100   5.419 -2.2129 -1.0632 -1.2970
  131OSM   H13B14082   2.948   1.140   5.448 -0.4244 -1.3333  0.8609
  131OSM   H13C14083   3.048   1.143   5.579 -0.7544  1.2550 -0.4264
  131OSM    C1214084   3.224   1.347   5.514  0.6892 -0.2164  0.4721
  131OSM   H12A14085   3.243   1.453   5.504  0.6833 -0.0218  2.2022
  131OSM   H12B14086   3.303   1.306   5.452  1.4205  0.8207  0.6855
  131OSM    C1114087   3.256   1.307   5.663  0.2848 -0.2395  0.0003
  131OSM   H11A14088   3.243   1.197   5.668  0.2325 -0.3202 -1.3915
  131OSM   H11B14089   3.188   1.355   5.737 -0.8829 -0.6504 -0.7783
  131OSM      P14090   3.449   1.464   5.765  0.2782 -0.1522 -0.0650
  131OSM    O1314091   3.596   1.481   5.765  0.4656  0.3093 -0.0109
  131OSM    O1414092   3.378   1.587   5.720  0.2162 -0.0344 -0.2048
  131OSM    O1114093   3.405   1.425   5.909  0.3152 -0.0177  0.2657
  131OSM    O1214094   3.397   1.339   5.683 -0.0609  0.5502  0.0843
  131OSM    C1S14095   3.443   1.290   5.955  0.2068 -0.2408  0.3685
  131OSM    H1S14096   3.546   1.261   5.924  0.1284  0.3434 -0.4687
  131OSM    H1T14097   3.369   1.210   5.935  0.3093 -0.4293  0.7249
  131OSM     NF14098   3.530   1.147   6.142 -0.1330 -0.6097 -0.1373
  131OSM    HNF14099   3.470   1.069   6.160  1.6330 -1.7952  1.0012
  131OSM    C2S14100   3.458   1.275   6.108 -0.5018 -0.3988  0.0577
  131OSM    H2S14101   3.526   1.359   6.136  0.3981 -1.2372  0.4610
  131OSM    C3S14102   3.314   1.279   6.178  0.3282  0.4504  0.5485
  131OSM    H3S14103   3.267   1.186   6.140 -0.0383  0.4348  1.0330
  131OSM     O314104   3.237   1.388   6.129 -0.2323 -0.3619 -0.5008
  131OSM    HO314105   3.281   1.407   6.046 -0.5550 -1.3614 -0.9231
  131OSM    C4S14106   3.308   1.275   6.334 -0.0756 -0.0604  0.2005
  131OSM    H4S14107   3.341   1.372   6.373 -0.6428  0.9401 -1.6892
  131OSM    C5S14108   3.261   1.173   6.407 -0.7090 -0.1368  0.2988
  131OSM    H5S14109   3.213   1.095   6.346 -1.3606  0.3551  0.1679
  131OSM    C6S14110   3.258   1.166   6.560  0.5262  0.5442 -0.2041
  131OSM    H6S14111   3.350   1.118   6.598 -0.3159  0.4424  1.8787
  131OSM    H6T14112   3.174   1.099   6.589  0.4530  0.6471 -0.1790
  131OSM    C7S14113   3.243   1.298   6.644  0.4434  0.5687  0.3202
  131OSM    H7S14114   3.150   1.341   6.600 -0.9265 -2.6027 -0.1834
  131OSM    H7T14115   3.335   1.359   6.642  1.1976 -0.5615 -0.9948
  131OSM    C8S14116   3.219   1.280   6.794 -0.5105  0.2432  0.4647
  131OSM    H8S14117   3.307   1.233   6.844  1.3376  1.7988 -1.1625
  131OSM    H8T14118   3.132   1.211   6.802 -0.5850  0.1278 -1.1042
  131OSM    C9S14119   3.185   1.421   6.845 -1.1136  0.4259  0.7007
  131OSM    H9S14120   3.098   1.470   6.798 -1.0971 -0.7349 -0.6156
  131OSM    H9T14121   3.269   1.493   6.837  0.4879 -1.3967  0.1621
  131OSM   C10S14122   3.141   1.408   6.993  0.1155 -0.7377  0.9269
  131OSM   H10S14123   3.050   1.345   6.996  1.2646 -2.4257  1.8186
  131OSM   H10T14124   3.108   1.508   7.028 -1.1465 -0.5802 -0.5969
  131OSM   C11S14125   3.245   1.357   7.091  0.0829 -0.3063  1.0190
  131OSM   H11S14126   3.341   1.402   7.059 -0.4815 -0.6714 -1.3848
  131OSM   H11T14127   3.258   1.246   7.084  1.9111 -0.0959  0.4629
  131OSM   C12S14128   3.212   1.404   7.233  0.4769  0.9963  0.2139
  131OSM   H12S14129   3.207   1.514   7.250 -0.5232  0.6016  2.9557
  131OSM   H12T14130   3.295   1.367   7.297  2.3828  1.0755 -2.0658
  131OSM   C13S14131   3.075   1.352   7.287 -0.5299 -0.2331  0.5325
  131OSM   H13S14132   3.058   1.243   7.272 -0.6200 -0.1660  0.1353
  131OSM   H13T14133   2.993   1.404   7.233 -1.0870  1.7930  3.1096
  131OSM   C14S14134   3.061   1.387   7.438 -0.4439  0.4698 -0.6095
  131OSM   H14S14135   2.955   1.379   7.469 -0.0328 -2.6787  0.3401
  131OSM   H14T14136   3.100   1.491   7.447  0.9466 -0.0619 -0.1064
  131OSM   C15S14137   3.144   1.297   7.529 -0.1667 -0.7673 -0.4787
  131OSM   H15S14138   3.254   1.315   7.521  0.3882 -3.7336 -0.6265
  131OSM   H15T14139   3.134   1.196   7.484  0.2086 -0.8467 -0.3907
  131OSM   C16S14140   3.087   1.309   7.674  0.3554  0.0070  1.2418
  131OSM   H16S14141   2.978   1.290   7.672 -0.0912  2.3871  0.5398
  131OSM   H16T14142   3.098   1.410   7.719 -2.3079  1.1497 -0.4611
  131OSM   C17S14143   3.159   1.207   7.766 -0.6018  0.3948 -0.5074
  131OSM   H17S14144   3.270   1.207   7.757 -0.3854 -1.7769  1.2461
  131OSM   H17T14145   3.133   1.104   7.733  1.2188  0.2905 -1.7821
  131OSM   C18S14146   3.141   1.220   7.918 -0.0401  0.1037  0.3903
  131OSM   H18S14147   3.157   1.324   7.955  0.1415  0.3636 -0.3962
  131OSM   H18T14148   3.212   1.166   7.985  0.5207  1.6329  1.0708
  131OSM   H18U14149   3.037   1.194   7.946  0.1223 -0.1082  0.8119
  131OSM    C1F14150   3.658   1.127   6.118  0.1153  0.2418  0.2036
  131OSM     OF14151   3.727   1.214   6.069  0.0216  0.9359 -0.1889
  131OSM    C2F14152   3.714   0.995   6.148 -0.3507 -0.0152 -0.4321
  131OSM    H2F14153   3.738   0.933   6.059  2.0410 -1.7607  1.2827
  131OSM    H2G14154   3.637   0.933   6.199  1.0776 -0.8226  0.8275
  131OSM    C3F14155   3.837   1.003   6.238 -0.1670  0.1407 -0.0153
  131OSM    H3F14156   3.930   1.032   6.185 -0.3923  0.0866 -0.4398
  131OSM    H3G14157   3.833   0.900   6.279 -1.0886  0.4144  0.6165
  131OSM    C4F14158   3.802   1.098   6.358 -0.2969  0.3322  0.7040
  131OSM    H4F14159   3.699   1.084   6.397 -1.3933  1.4119 -1.6289
  131OSM    H4G14160   3.818   1.203   6.326  2.3303 -0.3543 -0.5129
  131OSM    C5F14161   3.894   1.073   6.479  0.1115  0.4803 -1.1134
  131OSM    H5F14162   3.999   1.085   6.444  0.2871 -2.1529 -1.6915
  131OSM    H5G14163   3.872   0.967   6.505 -1.0678  1.1362  0.7365
  131OSM    C6F14164   3.857   1.168   6.592  0.3016  0.1748  0.5617
  131OSM    H6F14165   3.748   1.184   6.583  0.3521 -0.4885 -2.0329
  131OSM    H6G14166   3.902   1.267   6.568 -0.1372 -0.3891 -3.2698
  131OSM    C7F14167   3.895   1.127   6.736 -0.0049 -0.1818 -0.5633
  131OSM    H7F14168   4.002   1.098   6.736 -0.1941 -0.9003 -0.0200
  131OSM    H7G14169   3.843   1.033   6.765  0.5282 -0.0871  0.7798
  131OSM    C8F14170   3.866   1.237   6.840  0.8542  0.0364 -0.2886
  131OSM    H8F14171   3.886   1.333   6.787  0.9197 -0.6680 -1.6029
  131OSM    H8G14172   3.944   1.226   6.918  0.1950  0.2541  0.4139
  131OSM    C9F14173   3.738   1.219   6.914  0.1834 -0.3855 -0.5564
  131OSM    H9F14174   3.651   1.227   6.847 -0.1489  2.8421  0.1242
  131OSM   C10F14175   3.723   1.198   7.045  0.1874  0.2743  0.7874
  131OSM   H10F14176   3.620   1.170   7.072 -0.0264 -0.1440 -0.4061
  131OSM   C11F14177   3.834   1.207   7.140 -0.1596 -0.2294 -0.5876
  131OSM   H11F14178   3.865   1.310   7.166 -0.4506  0.3775 -2.5197
  131OSM   H11G14179   3.921   1.152   7.097 -1.1681 -0.9459 -1.7846
  131OSM   C12F14180   3.793   1.136   7.273 -0.1171 -0.0004  0.0109
  131OSM   H12F14181   3.765   1.032   7.243  3.5502 -0.4862 -2.3913
  131OSM   H12G14182   3.711   1.192   7.324 -0.1532 -1.0572  1.1500
  131OSM   C13F14183   3.906   1.131   7.378 -0.1206 -0.3291 -0.0522
  131OSM   H13F14184   4.000   1.123   7.318 -0.9912 -0.9013 -1.3923
  131OSM   H13G14185   3.909   1.040   7.441 -1.2299  0.2625  0.8747
  131OSM   C14F14186   3.910   1.272   7.445 -0.0863  0.1932 -0.2083
  131OSM   H14F14187   3.834   1.275   7.526 -0.2154 -0.7590 -0.2789
  131OSM   H14G14188   3.867   1.349   7.377 -0.7928  1.6905  1.8252
  131OSM   C15F14189   4.044   1.320   7.491  0.4253  0.5337 -0.6031
  131OSM   H15F14190   4.065   1.429   7.485  0.3873  0.5772  0.0294
  131OSM   H15G14191   4.133   1.277   7.440  0.6087  0.4222 -0.1879
  131OSM   C16F14192   4.059   1.271   7.632 -0.0417 -0.2526 -0.5255
  131OSM   H16F14193   4.055   1.161   7.620 -2.4597 -0.2187 -0.6521
  131OSM   H16G14194   3.978   1.311   7.697  1.3898  2.2836 -0.1381
  131OSM   C17F14195   4.185   1.319   7.701 -0.4485  0.1815 -0.0342
  131OSM   H17F14196   4.263   1.307   7.623  2.4036  1.9203  2.3352
  131OSM   H17G14197   4.220   1.254   7.784 -1.3837  0.9596  1.0043
  131OSM   C18F14198   4.198   1.465   7.741  0.8644  0.1229  0.2839
  131OSM   H18F14199   4.281   1.525   7.698  2.1705 -2.5099 -1.1245
  131OSM   H18G14200   4.224   1.468   7.849  2.1847 -0.1491 -0.0057
  131OSM   H18H14201   4.110   1.532   7.743  0.6532  0.1226 -3.2547
  132OSM      N14202   5.273   1.211   5.291  0.4759 -0.2602 -0.4767
  132OSM    C1514203   5.247   1.079   5.346 -0.0217  0.2721 -0.1117
  132OSM   H15A14204   5.219   1.003   5.274 -0.2542 -0.0367  0.2962
  132OSM   H15B14205   5.160   1.104   5.405  0.8102  0.5548  1.0220
  132OSM   H15C14206   5.323   1.037   5.411  0.7520  0.5221 -0.8469
  132OSM    C1414207   5.400   1.206   5.206  0.3222  0.0455 -0.0108
  132OSM   H14A14208   5.398   1.268   5.118 -1.1223 -0.8839 -0.6723
  132OSM   H14B14209   5.403   1.111   5.154 -1.4448  0.7355 -1.5292
  132OSM   H14C14210   5.487   1.231   5.264 -0.6466  1.8627  0.7631
  132OSM    C1314211   5.168   1.254   5.194 -0.6969 -0.0397 -0.2403
  132OSM   H13A14212   5.149   1.175   5.123  1.8546  0.8365 -2.0682
  132OSM   H13B14213   5.198   1.348   5.151 -0.1152 -0.4753 -0.8127
  132OSM   H13C14214   5.075   1.276   5.244 -0.0745 -2.3896  2.1622
  132OSM    C1214215   5.290   1.316   5.395 -0.5721 -0.2651  0.5671
  132OSM   H12A14216   5.306   1.411   5.346 -2.0787 -1.4145 -2.3605
  132OSM   H12B14217   5.381   1.296   5.449  0.0314 -0.7023 -0.5978
  132OSM    C1114218   5.173   1.328   5.495 -0.0891 -0.0669 -0.2800
  132OSM   H11A14219   5.191   1.398   5.579  1.3518 -0.9802  0.2127
  132OSM   H11B14220   5.164   1.230   5.547 -0.5856 -0.9508 -1.9355
  132OSM      P14221   5.016   1.503   5.385 -0.0668 -0.2284 -0.0325
  132OSM    O1314222   5.131   1.554   5.308 -0.3959  0.5188 -0.0781
  132OSM    O1414223   4.884   1.501   5.318 -0.2935 -0.4573  0.2560
  132OSM    O1114224   5.013   1.580   5.518  0.1919  0.3064 -0.2378
  132OSM    O1214225   5.050   1.357   5.427 -0.1290 -0.2689 -0.1703
  132OSM    C1S14226   4.902   1.570   5.603 -0.5003  0.2282 -0.6812
  132OSM    H1S14227   4.823   1.497   5.572  0.2918 -1.5509  1.2178
  132OSM    H1T14228   4.853   1.668   5.617  2.0486  1.4058  0.7078
  132OSM     NF14229   4.830   1.514   5.824 -0.1582  0.3059  0.1492
  132OSM    HNF14230   4.769   1.589   5.850  0.4155  1.4241 -1.5373
  132OSM    C2S14231   4.944   1.556   5.753  0.4189  0.1627  0.0939
  132OSM    H2S14232   5.024   1.478   5.755 -0.6378 -1.2602 -4.2524
  132OSM    C3S14233   5.008   1.697   5.795  0.1771 -0.0242 -1.0172
  132OSM    H3S14234   4.937   1.779   5.772 -0.3695  0.2107  1.2605
  132OSM     O314235   5.132   1.728   5.733 -0.2825 -0.1875 -0.6419
  132OSM    HO314236   5.142   1.667   5.659 -0.9736 -1.2392  0.1130
  132OSM    C4S14237   5.044   1.684   5.939 -0.2122 -0.1528  0.3024
  132OSM    H4S14238   5.112   1.600   5.961  0.0869 -0.1686 -0.6529
  132OSM    C5S14239   4.994   1.751   6.042 -0.5420 -0.0793  0.5140
  132OSM    H5S14240   4.916   1.828   6.031  1.0260  1.6391  0.8845
  132OSM    C6S14241   5.052   1.720   6.180  0.2729 -0.0400  0.7931
  132OSM    H6S14242   5.151   1.770   6.189 -0.8051  2.4522 -0.4728
  132OSM    H6T14243   5.085   1.614   6.186  1.3773  0.2925  0.8298
  132OSM    C7S14244   4.960   1.761   6.296 -0.3092  0.0835  0.0846
  132OSM    H7S14245   4.881   1.683   6.300  1.9220 -2.5823 -2.9272
  132OSM    H7T14246   4.917   1.863   6.287  0.8962  0.6751  0.7860
  132OSM    C8S14247   5.042   1.755   6.425  0.3087  0.3840  0.0857
  132OSM    H8S14248   5.105   1.847   6.417  1.0509 -0.1070  0.1915
  132OSM    H8T14249   5.105   1.664   6.431 -0.8832 -0.5233 -0.7071
  132OSM    C9S14250   4.965   1.772   6.559  0.1524 -0.2121  0.5663
  132OSM    H9S14251   4.879   1.702   6.555  0.9727 -1.2137 -2.9624
  132OSM    H9T14252   4.902   1.864   6.563 -0.1872 -0.3930 -0.4366
  132OSM   C10S14253   5.051   1.758   6.678  0.2135 -0.2622 -0.2680
  132OSM   H10S14254   5.133   1.825   6.711 -0.4469  1.5320 -2.0140
  132OSM   H10T14255   5.104   1.661   6.679  1.3899  0.3565  1.0089
  132OSM   C11S14256   4.967   1.757   6.811 -0.4674 -0.0935 -0.4053
  132OSM   H11S14257   4.910   1.662   6.805 -1.3494  0.4736 -1.7935
  132OSM   H11T14258   4.895   1.842   6.812 -0.2046  0.1312  0.7655
  132OSM   C12S14259   5.057   1.741   6.940  0.5787  0.2315  0.2940
  132OSM   H12S14260   5.118   1.832   6.957 -0.4431  2.1733 -4.6280
  132OSM   H12T14261   5.128   1.660   6.912  1.0879  0.8739 -0.3014
  132OSM   C13S14262   4.995   1.703   7.071  0.1180  0.1305  0.5370
  132OSM   H13S14263   5.066   1.671   7.150  0.9455  0.3932 -0.0859
  132OSM   H13T14264   4.928   1.617   7.051 -1.1062  0.8205  1.5110
  132OSM   C14S14265   4.909   1.825   7.113 -0.3237  0.6112 -0.4807
  132OSM   H14S14266   4.833   1.857   7.039  0.1287  1.8062 -0.4508
  132OSM   H14T14267   4.981   1.907   7.135  2.9266 -2.3274  0.7244
  132OSM   C15S14268   4.833   1.791   7.242  0.1557 -0.1819  0.3038
  132OSM   H15S14269   4.790   1.881   7.291 -1.2106 -0.8631  0.4105
  132OSM   H15T14270   4.908   1.740   7.305  0.5062 -1.3323 -0.9807
  132OSM   C16S14271   4.713   1.693   7.230 -0.4323  0.2225  0.0290
  132OSM   H16S14272   4.753   1.596   7.193  0.9370  1.5925 -2.3259
  132OSM   H16T14273   4.638   1.732   7.157 -0.4859  0.9241  0.4572
  132OSM   C17S14274   4.647   1.664   7.368 -1.2239 -0.3406  0.2415
  132OSM   H17S14275   4.639   1.762   7.420  0.7356  0.1339 -0.2942
  132OSM   H17T14276   4.723   1.603   7.422 -0.9591  0.9762  1.4222
  132OSM   C18S14277   4.517   1.589   7.349 -0.6205 -0.5241  0.0984
  132OSM   H18S14278   4.520   1.483   7.316 -0.0489 -0.6438  0.5408
  132OSM   H18T14279   4.451   1.645   7.279  2.5404  2.3192 -0.8687
  132OSM   H18U14280   4.462   1.586   7.445 -1.3683 -1.5723 -0.3338
  132OSM    C1F14281   4.796   1.385   5.839 -0.0032 -0.1933 -0.5510
  132OSM     OF14282   4.871   1.292   5.804  0.1329 -0.7453  0.6415
  132OSM    C2F14283   4.662   1.353   5.890  0.3815  0.2225  0.6326
  132OSM    H2F14284   4.608   1.300   5.809 -0.1664  1.0183  0.4602
  132OSM    H2G14285   4.600   1.445   5.904 -0.4222 -0.4391  1.5346
  132OSM    C3F14286   4.667   1.276   6.018 -0.1520  1.2130 -0.7325
  132OSM    H3F14287   4.730   1.186   5.998 -0.3742  1.0506 -0.6964
  132OSM    H3G14288   4.567   1.244   6.053 -0.2386 -1.0303 -2.7636
  132OSM    C4F14289   4.732   1.353   6.133 -0.0293  0.0264 -0.2254
  132OSM    H4F14290   4.701   1.459   6.128  0.3680  0.1380 -0.3519
  132OSM    H4G14291   4.841   1.361   6.111  0.1456  0.6432  0.7986
  132OSM    C5F14292   4.702   1.298   6.283  0.2095 -0.2191  0.3144
  132OSM    H5F14293   4.593   1.301   6.302 -0.3647 -0.1446 -2.5891
  132OSM    H5G14294   4.756   1.372   6.346  0.3874  0.6215 -0.7837
  132OSM    C6F14295   4.765   1.165   6.316  0.5608  0.0295 -0.3723
  132OSM    H6F14296   4.872   1.166   6.285  1.6043  2.0979  2.8565
  132OSM    H6G14297   4.717   1.082   6.260  2.8651 -0.8611 -1.1208
  132OSM    C7F14298   4.777   1.143   6.466  0.6422  0.6651  0.0301
  132OSM    H7F14299   4.675   1.142   6.510  1.8377 -1.4312  3.1337
  132OSM    H7G14300   4.823   1.236   6.504  1.1371  0.6068 -0.4180
  132OSM    C8F14301   4.858   1.010   6.503  0.5959 -1.0520 -0.0557
  132OSM    H8F14302   4.889   1.027   6.609  1.0328 -3.3891  0.2450
  132OSM    H8G14303   4.954   1.010   6.449 -1.0534 -0.3727 -3.2106
  132OSM    C9F14304   4.775   0.885   6.475  0.3704  0.0481 -0.3491
  132OSM    H9F14305   4.732   0.884   6.374 -0.7515  0.0613  0.1160
  132OSM   C10F14306   4.751   0.782   6.554  0.8458  0.3208  0.0342
  132OSM   H10F14307   4.685   0.703   6.517 -0.3727  1.5303 -0.4793
  132OSM   C11F14308   4.800   0.773   6.692 -0.1504 -0.1525  0.4282
  132OSM   H11F14309   4.865   0.859   6.716 -0.2833 -0.0120  0.2843
  132OSM   H11G14310   4.867   0.689   6.720  2.7564  1.0271 -2.3959
  132OSM   C12F14311   4.686   0.788   6.798 -0.2497 -0.2446 -0.4282
  132OSM   H12F14312   4.622   0.697   6.803  1.0643 -1.1195  1.9905
  132OSM   H12G14313   4.626   0.875   6.763 -0.2730 -0.2033 -0.2870
  132OSM   C13F14314   4.745   0.818   6.941 -0.0096 -0.4426  0.0978
  132OSM   H13F14315   4.795   0.916   6.928 -2.1389  0.5508 -1.2740
  132OSM   H13G14316   4.818   0.737   6.961  1.8585  0.5353 -2.3052
  132OSM   C14F14317   4.642   0.817   7.055  0.4780 -0.0251 -0.3350
  132OSM   H14F14318   4.573   0.733   7.034  0.5732 -1.0229  2.8782
  132OSM   H14G14319   4.580   0.907   7.075 -1.9543 -1.5396 -0.6543
  132OSM   C15F14320   4.715   0.790   7.191  0.4712 -0.6639 -0.1895
  132OSM   H15F14321   4.790   0.868   7.214 -0.1400 -0.6430  1.9354
  132OSM   H15G14322   4.752   0.686   7.200  0.9663 -0.5559 -0.9275
  132OSM   C16F14323   4.624   0.812   7.314  0.6861  0.4259  0.3147
  132OSM   H16F14324   4.567   0.907   7.308  0.4361  0.8394  5.1303
  132OSM   H16G14325   4.694   0.831   7.398  0.8947 -1.0884  0.5262
  132OSM   C17F14326   4.523   0.702   7.348 -0.1312 -0.0479  0.1480
  132OSM   H17F14327   4.559   0.598   7.330  0.0599 -0.2202  1.4682
  132OSM   H17G14328   4.428   0.709   7.290 -1.5808  0.1172  2.4249
  132OSM   C18F14329   4.489   0.712   7.497  0.3435 -0.0158  0.0798
  132OSM   H18F14330   4.583   0.699   7.554  1.9945  1.0309 -2.2409
  132OSM   H18G14331   4.418   0.635   7.533  0.1836 -0.0911 -0.3847
  132OSM   H18H14332   4.443   0.813   7.511 -0.1773 -0.1130 -0.8437
  133OSM      N14333   5.574   1.894   5.027 -0.2224  0.7962 -0.5590
  133OSM    C1514334   5.629   1.800   5.133 -0.2547  0.1755 -0.5094
  133OSM   H15A14335   5.605   1.697   5.115 -0.9552 -0.0821  1.6611
  133OSM   H15B14336   5.597   1.817   5.235  0.5486  4.9724 -0.8157
  133OSM   H15C14337   5.737   1.796   5.139 -0.2560 -3.0793 -0.8797
  133OSM    C1414338   5.638   1.863   4.897 -0.4127 -0.9738  0.6772
  133OSM   H14A14339   5.599   1.941   4.834  0.1188 -1.4109 -0.2060
  133OSM   H14B14340   5.603   1.766   4.865 -0.3747 -0.4248 -1.1003
  133OSM   H14C14341   5.746   1.872   4.900 -0.5828  1.8205  1.6258
  133OSM    C1314342   5.426   1.875   5.027  0.4584  0.0115  0.2429
  133OSM   H13A14343   5.388   1.940   4.949 -0.5490  0.8775  1.4286
  133OSM   H13B14344   5.375   1.910   5.115 -1.0288 -0.2082 -0.5049
  133OSM   H13C14345   5.405   1.770   5.013 -0.6873  0.5531 -2.8284
  133OSM    C1214346   5.614   2.040   5.057 -0.2395 -0.0787 -0.8634
  133OSM   H12A14347   5.546   2.117   5.023  0.3258  0.9052  0.1624
  133OSM   H12B14348   5.707   2.060   5.006 -0.8937 -0.7654 -2.3743
  133OSM    C1114349   5.610   2.093   5.204 -1.0991 -0.0349 -0.1541
  133OSM   H11A14350   5.630   2.202   5.204 -1.1075 -0.0325 -0.3137
  133OSM   H11B14351   5.697   2.053   5.261 -1.1233 -0.0907 -0.1570
  133OSM      P14352   5.472   2.061   5.412 -0.1932  0.1816 -0.0866
  133OSM    O1314353   5.327   2.067   5.445 -0.4974 -0.4488 -0.3163
  133OSM    O1414354   5.550   1.948   5.467 -0.8083 -0.2391  0.4135
  133OSM    O1114355   5.532   2.198   5.456  0.2629  0.7929  0.2606
  133OSM    O1214356   5.480   2.069   5.259  0.3866 -0.3194  0.0052
  133OSM    C1S14357   5.652   2.212   5.526 -0.3706 -0.2147 -0.1155
  133OSM    H1S14358   5.717   2.294   5.491  1.1630 -0.7406  1.3398
  133OSM    H1T14359   5.718   2.128   5.495  0.2285  0.8968 -1.9973
  133OSM     NF14360   5.648   2.093   5.745  0.5295  0.4409  0.0707
  133OSM    HNF14361   5.573   2.031   5.726  2.1266 -1.1359 -1.5367
  133OSM    C2S14362   5.639   2.229   5.680 -0.2332  0.6839 -0.9079
  133OSM    H2S14363   5.726   2.278   5.728 -0.4753 -1.2488  1.7089
  133OSM    C3S14364   5.512   2.305   5.712  0.6339 -0.5422 -0.9462
  133OSM    H3S14365   5.421   2.248   5.682 -0.3303 -0.0737  0.9688
  133OSM     O314366   5.491   2.434   5.651 -0.1804 -0.9684  0.0518
  133OSM    HO314367   5.570   2.463   5.606  0.3302 -0.2187  1.3980
  133OSM    C4S14368   5.488   2.310   5.855  0.0124  0.1292 -0.7485
  133OSM    H4S14369   5.422   2.226   5.882  0.0508  0.5670  0.7800
  133OSM    C5S14370   5.559   2.384   5.946  0.0669 -0.8073  0.1959
  133OSM    H5S14371   5.648   2.442   5.919  0.2945  0.7867  3.7779
  133OSM    C6S14372   5.549   2.378   6.099  0.0805 -0.1005 -0.1665
  133OSM    H6S14373   5.471   2.304   6.125  0.4058  0.1036  1.4921
  133OSM    H6T14374   5.519   2.478   6.137  2.0974  1.7180 -2.9257
  133OSM    C7S14375   5.681   2.340   6.155 -0.0759  0.1044  0.0686
  133OSM    H7S14376   5.685   2.354   6.265  3.1226 -1.8109  0.3401
  133OSM    H7T14377   5.763   2.410   6.127 -1.5795  1.4044 -1.2908
  133OSM    C8S14378   5.710   2.192   6.129  0.2682  0.8575 -0.7485
  133OSM    H8S14379   5.818   2.189   6.156 -0.2700 -2.1360  1.6728
  133OSM    H8T14380   5.698   2.152   6.027 -2.0567 -0.3394 -0.0800
  133OSM    C9S14381   5.640   2.094   6.226 -0.6463  0.9709  0.5144
  133OSM    H9S14382   5.630   2.127   6.332  1.5616  0.8108  0.8254
  133OSM    H9T14383   5.710   2.008   6.227  0.2757  1.7034  1.5492
  133OSM   C10S14384   5.506   2.029   6.178 -0.3100 -0.0889 -0.3605
  133OSM   H10S14385   5.521   2.019   6.068  3.2339 -0.1078 -0.0159
  133OSM   H10T14386   5.420   2.095   6.204 -0.8320 -0.2725 -1.5734
  133OSM   C11S14387   5.468   1.895   6.242 -0.6572 -0.1658 -0.4352
  133OSM   H11S14388   5.539   1.819   6.203  0.5165  0.3045  0.7076
  133OSM   H11T14389   5.369   1.863   6.204 -1.3779  1.9206 -0.4773
  133OSM   C12S14390   5.482   1.887   6.398 -0.0704  0.4445  0.2572
  133OSM   H12S14391   5.397   1.946   6.438 -0.9076 -0.3222 -0.3411
  133OSM   H12T14392   5.581   1.915   6.439  0.3734 -1.7979  0.8510
  133OSM   C13S14393   5.444   1.743   6.448  0.0202 -0.3186 -0.3942
  133OSM   H13S14394   5.534   1.678   6.442  0.0843 -0.5307  2.0705
  133OSM   H13T14395   5.360   1.717   6.380  1.1903  1.5159 -2.6909
  133OSM   C14S14396   5.396   1.735   6.592 -0.1825 -0.2353 -0.1348
  133OSM   H14S14397   5.296   1.781   6.608  0.4704  0.7220  1.3231
  133OSM   H14T14398   5.474   1.796   6.643 -0.1705  1.5054 -2.0930
  133OSM   C15S14399   5.397   1.598   6.655 -0.1982 -0.1528  0.1494
  133OSM   H15S14400   5.356   1.517   6.591 -1.3333 -0.2919  1.0131
  133OSM   H15T14401   5.328   1.614   6.742 -1.0316 -2.5576  0.0053
  133OSM   C16S14402   5.530   1.555   6.711 -0.2429 -0.0925 -0.0277
  133OSM   H16S14403   5.571   1.639   6.771 -1.1074 -0.7382  1.5090
  133OSM   H16T14404   5.613   1.521   6.645  0.9860 -1.8330  2.2677
  133OSM   C17S14405   5.534   1.435   6.812  0.5941 -0.5402 -0.2439
  133OSM   H17S14406   5.494   1.348   6.756 -1.0871  0.2387 -0.3345
  133OSM   H17T14407   5.451   1.468   6.878 -0.3386 -1.3433 -0.9822
  133OSM   C18S14408   5.669   1.421   6.876 -0.1204  0.1212 -0.6071
  133OSM   H18S14409   5.675   1.504   6.949 -0.5785  0.0534 -0.4926
  133OSM   H18T14410   5.756   1.409   6.808 -0.0579 -1.3797 -0.2834
  133OSM   H18U14411   5.664   1.327   6.935  0.0466  0.9806  0.8272
  133OSM    C1F14412   5.766   2.039   5.780  0.0523 -0.2856  0.0481
  133OSM     OF14413   5.868   2.105   5.760 -0.9174  0.2529  0.3218
  133OSM    C2F14414   5.771   1.900   5.832  1.1032 -0.1973  1.5172
  133OSM    H2F14415   5.794   1.832   5.748  0.4095  1.7280 -0.3371
  133OSM    H2G14416   5.678   1.867   5.883 -0.5888  1.5200 -0.2298
  133OSM    C3F14417   5.879   1.879   5.936 -1.0549 -0.7225 -0.6453
  133OSM    H3F14418   5.880   1.957   6.015  1.5621 -1.9490  0.6494
  133OSM    H3G14419   5.979   1.900   5.894  0.3739  1.5628  3.3685
  133OSM    C4F14420   5.867   1.738   5.998  0.0418 -0.0185  0.3679
  133OSM    H4F14421   5.917   1.668   5.929 -1.3969 -0.2566 -0.4793
  133OSM    H4G14422   5.761   1.706   6.007  0.1559 -0.2111  1.1029
  133OSM    C5F14423   5.941   1.715   6.130  0.0605 -0.5599  0.0339
  133OSM    H5F14424   6.001   1.802   6.163  4.2480 -1.9338 -3.0849
  133OSM    H5G14425   6.018   1.638   6.106 -0.3989 -0.8261 -0.6322
  133OSM    C6F14426   5.846   1.655   6.236  0.4762 -0.1873 -0.2420
  133OSM    H6F14427   5.785   1.579   6.183 -1.5079  1.7229 -0.8372
  133OSM    H6G14428   5.763   1.727   6.254  0.7362  0.1357 -0.3316
  133OSM    C7F14429   5.906   1.586   6.360 -0.1691 -0.6799 -0.1040
  133OSM    H7F14430   5.992   1.519   6.336  0.1532 -0.5845  0.7591
  133OSM    H7G14431   5.824   1.526   6.405 -1.2920 -0.1098 -1.3298
  133OSM    C8F14432   5.970   1.684   6.457  0.1751  0.4275  0.2063
  133OSM    H8F14433   6.046   1.737   6.396  2.4808 -0.6756  1.9764
  133OSM    H8G14434   6.020   1.622   6.533 -2.5726 -1.6901  0.4706
  133OSM    C9F14435   5.872   1.774   6.526  0.2130 -0.1663 -0.2634
  133OSM    H9F14436   5.789   1.809   6.464 -0.8327  0.0066  1.1822
  133OSM   C10F14437   5.875   1.818   6.653  0.0009  0.6444 -0.4323
  133OSM   H10F14438   5.801   1.895   6.682  0.2551  1.7411 -2.4934
  133OSM   C11F14439   5.984   1.801   6.759 -0.3993  0.3077 -0.3113
  133OSM   H11F14440   6.082   1.839   6.723  1.2041 -1.7216  1.6616
  133OSM   H11G14441   6.000   1.692   6.767  0.7049  0.5115  0.5543
  133OSM   C12F14442   5.954   1.851   6.905 -0.0400  0.3569  0.5914
  133OSM   H12F14443   5.934   1.959   6.884 -1.0543 -0.3987 -3.0381
  133OSM   H12G14444   6.045   1.845   6.968 -0.1012 -1.2824  0.5586
  133OSM   C13F14445   5.833   1.779   6.974  0.2204  0.4462  0.5470
  133OSM   H13F14446   5.862   1.671   6.974  1.4309  0.7514  0.8655
  133OSM   H13G14447   5.743   1.799   6.913 -1.7129  0.4887  3.2636
  133OSM   C14F14448   5.817   1.833   7.119 -0.5565 -0.5870 -0.0908
  133OSM   H14F14449   5.788   1.940   7.124 -1.3635 -0.6588 -2.2034
  133OSM   H14G14450   5.918   1.819   7.161 -0.2040 -0.2935 -0.8268
  133OSM   C15F14451   5.714   1.750   7.196  0.2774  0.6261  0.3778
  133OSM   H15F14452   5.743   1.776   7.300  0.2026 -0.3766  0.6513
  133OSM   H15G14453   5.728   1.641   7.181  5.1775  0.9921  0.6865
  133OSM   C16F14454   5.570   1.797   7.172  0.1027 -0.0965  0.3144
  133OSM   H16F14455   5.534   1.766   7.072  0.1353  0.3673  0.1563
  133OSM   H16G14456   5.575   1.907   7.188 -1.1546  0.0089  0.0691
  133OSM   C17F14457   5.465   1.740   7.274  1.0736  0.9023 -0.1323
  133OSM   H17F14458   5.379   1.810   7.271 -0.4573 -0.8869 -3.3604
  133OSM   H17G14459   5.508   1.742   7.376 -0.4788  1.4786  0.5338
  133OSM   C18F14460   5.424   1.596   7.243 -0.7617  0.0268  0.5763
  133OSM   H18F14461   5.341   1.563   7.309 -0.4078  0.4125  1.2243
  133OSM   H18G14462   5.512   1.534   7.272 -0.2911 -0.0276 -0.9153
  133OSM   H18H14463   5.400   1.590   7.135  0.8308 -1.9845  0.2776
  134OSM      N14464   6.234   5.624   5.640  0.8807  0.4589 -0.0459
  134OSM    C1514465   6.364   5.629   5.572  0.2455 -0.4902 -0.4918
  134OSM   H15A14466   6.356   5.592   5.471 -1.7684  1.3765 -1.0832
  134OSM   H15B14467   6.433   5.561   5.620 -0.5438 -2.7346 -2.3434
  134OSM   H15C14468   6.400   5.730   5.564  1.3349 -0.9448 -1.7333
  134OSM    C1414469   6.226   5.703   5.761 -0.4982  0.5716  0.0652
  134OSM   H14A14470   6.230   5.810   5.746 -1.0629  0.4766 -0.8454
  134OSM   H14B14471   6.318   5.686   5.815  0.8941  1.5287 -1.8993
  134OSM   H14C14472   6.132   5.684   5.811 -0.1318  0.2281  0.6432
  134OSM    C1314473   6.135   5.683   5.545  0.1709  0.3953  0.4590
  134OSM   H13A14474   6.142   5.649   5.443 -0.5264 -3.3252  1.4961
  134OSM   H13B14475   6.141   5.790   5.531  0.1360  0.3927  0.4265
  134OSM   H13C14476   6.033   5.661   5.571  0.8104 -1.5052  1.5979
  134OSM    C1214477   6.200   5.479   5.666 -0.2349 -0.0195  0.3202
  134OSM   H12A14478   6.212   5.420   5.577  0.0203 -3.1546  2.3094
  134OSM   H12B14479   6.097   5.469   5.699  0.0427 -1.6453  0.7707
  134OSM    C1114480   6.290   5.406   5.770 -0.2712  0.5258  0.2562
  134OSM   H11A14481   6.232   5.318   5.804 -0.9180  0.3577 -1.2221
  134OSM   H11B14482   6.320   5.477   5.849 -1.9029 -0.2722  1.6453
  134OSM      P14483   6.430   5.233   5.623  0.5614 -0.4567  0.3318
  134OSM    O1314484   6.349   5.265   5.503  0.0701 -1.0414 -0.2748
  134OSM    O1414485   6.570   5.188   5.601 -0.1025  0.2111  0.4940
  134OSM    O1114486   6.352   5.114   5.701  0.1231  0.0836  0.3912
  134OSM    O1214487   6.418   5.355   5.723 -0.2088 -0.0849  0.0998
  134OSM    C1S14488   6.412   5.093   5.833  0.7225  0.3609 -0.1031
  134OSM    H1S14489   6.439   5.187   5.885  0.7326  0.6316 -0.5892
  134OSM    H1T14490   6.508   5.038   5.830  1.8995  2.0097  2.7382
  134OSM     NF14491   6.341   5.013   6.057  0.1161 -0.4741 -0.9593
  134OSM    HNF14492   6.386   4.939   6.107 -1.5596 -0.8474  0.0888
  134OSM    C2S14493   6.314   5.002   5.920  0.3849  0.8707 -0.1769
  134OSM    H2S14494   6.211   5.033   5.892  0.2391 -0.5889 -1.3591
  134OSM    C3S14495   6.325   4.856   5.861  0.2357  0.3124  0.2852
  134OSM    H3S14496   6.428   4.825   5.888 -0.0383 -0.9105 -0.0231
  134OSM     O314497   6.305   4.848   5.716 -0.4002 -0.1550 -0.4290
  134OSM    HO314498   6.299   4.940   5.691  0.9187 -0.1669 -0.8734
  134OSM    C4S14499   6.225   4.763   5.928  0.7045  0.0227 -0.1383
  134OSM    H4S14500   6.120   4.795   5.935  0.8082  0.1253  1.2073
  134OSM    C5S14501   6.261   4.648   5.985  0.1741 -0.3926  0.0728
  134OSM    H5S14502   6.367   4.623   5.994  0.6637  1.2183 -0.8124
  134OSM    C6S14503   6.169   4.554   6.057  0.0063  0.1022  0.1279
  134OSM    H6S14504   6.180   4.456   6.005 -0.1108  0.8124 -1.2996
  134OSM    H6T14505   6.062   4.584   6.053  0.2526  1.1324  1.1329
  134OSM    C7S14506   6.203   4.541   6.214  0.5200 -0.3675  0.5901
  134OSM    H7S14507   6.196   4.644   6.255 -0.4290 -0.3214  0.3345
  134OSM    H7T14508   6.308   4.509   6.228  0.4922 -0.7052  0.0479
  134OSM    C8S14509   6.122   4.430   6.274  0.0983 -0.1829 -0.2116
  134OSM    H8S14510   6.155   4.338   6.221  0.9699  0.1662 -0.2946
  134OSM    H8T14511   6.016   4.449   6.249 -0.1163 -0.5533  0.3881
  134OSM    C9S14512   6.142   4.405   6.422  0.0624 -0.2741 -0.1615
  134OSM    H9S14513   6.251   4.410   6.443  0.4528  0.0457 -2.1076
  134OSM    H9T14514   6.101   4.304   6.447  0.5273 -0.0612  1.6358
  134OSM   C10S14515   6.060   4.501   6.503 -0.5967  0.6432  0.6152
  134OSM   H10S14516   5.953   4.508   6.474 -0.2282  0.1114 -0.9803
  134OSM   H10T14517   6.098   4.605   6.488  0.3038  0.3633  0.8980
  134OSM   C11S14518   6.056   4.484   6.655  0.1556 -0.1157 -0.5095
  134OSM   H11S14519   5.965   4.422   6.673 -1.2928  1.4003 -2.2438
  134OSM   H11T14520   6.031   4.583   6.699 -0.6502  0.3443 -1.9546
  134OSM   C12S14521   6.181   4.430   6.724  0.2864  0.2201  0.3807
  134OSM   H12S14522   6.253   4.512   6.705 -0.1547  0.6914  0.7073
  134OSM   H12T14523   6.210   4.337   6.671  0.3784  0.0402  0.7454
  134OSM   C13S14524   6.167   4.387   6.870 -0.0614  0.5151  1.4330
  134OSM   H13S14525   6.270   4.363   6.904  0.3957 -0.7035 -0.6744
  134OSM   H13T14526   6.107   4.294   6.863  0.8791 -0.0008 -0.3293
  134OSM   C14S14527   6.103   4.486   6.974 -0.2015 -0.9074  0.5791
  134OSM   H14S14528   5.997   4.464   6.996 -0.8797  1.8923  0.3727
  134OSM   H14T14529   6.129   4.586   6.933 -0.1508 -1.5052 -0.9085
  134OSM   C15S14530   6.186   4.475   7.107 -0.1384 -0.1118  0.7257
  134OSM   H15S14531   6.281   4.527   7.080 -1.3997  0.4170 -3.4928
  134OSM   H15T14532   6.209   4.369   7.128  0.7900 -0.2433 -0.7812
  134OSM   C16S14533   6.116   4.525   7.229  0.5453  0.3418 -0.2574
  134OSM   H16S14534   6.189   4.522   7.313  0.1856  2.1283  0.1555
  134OSM   H16T14535   6.025   4.465   7.247  0.7303  0.2918  0.5717
  134OSM   C17S14536   6.080   4.675   7.211 -0.0599 -0.0621  0.3916
  134OSM   H17S14537   5.969   4.680   7.206 -0.1317 -1.7902 -0.5023
  134OSM   H17T14538   6.132   4.705   7.117  1.3713 -1.5691  0.6731
  134OSM   C18S14539   6.135   4.778   7.309  0.5105 -0.0156  0.2228
  134OSM   H18S14540   6.245   4.776   7.327  0.4075  1.8397  1.2396
  134OSM   H18T14541   6.096   4.766   7.412  0.3988  1.9166  0.4460
  134OSM   H18U14542   6.107   4.877   7.268 -0.3369 -0.1299  0.5020
  134OSM    C1F14543   6.304   5.122   6.132 -0.4987  0.5874 -0.0204
  134OSM     OF14544   6.233   5.210   6.085 -0.2231 -0.0581  0.7489
  134OSM    C2F14545   6.359   5.111   6.264 -0.3122 -0.4326 -0.2268
  134OSM    H2F14546   6.438   5.189   6.266 -0.9096  0.1702  0.7025
  134OSM    H2G14547   6.408   5.015   6.291  1.7726  0.6315  0.0177
  134OSM    C3F14548   6.252   5.120   6.375  0.2696  0.7137 -0.7335
  134OSM    H3F14549   6.174   5.047   6.342 -0.0478 -0.2149  1.8327
  134OSM    H3G14550   6.204   5.220   6.381  0.1580  0.5789  1.3235
  134OSM    C4F14551   6.287   5.061   6.512 -0.2411 -0.6058 -0.3032
  134OSM    H4F14552   6.202   5.086   6.578 -0.3530 -0.1330 -0.6262
  134OSM    H4G14553   6.371   5.122   6.551 -1.5505  0.1991  1.3734
  134OSM    C5F14554   6.298   4.909   6.509  0.7531 -0.2542  0.4728
  134OSM    H5F14555   6.360   4.874   6.424  1.5229  0.2127  0.8347
  134OSM    H5G14556   6.197   4.868   6.491  0.7751 -0.0493 -0.1695
  134OSM    C6F14557   6.359   4.846   6.639  0.1164 -0.2990  0.0315
  134OSM    H6F14558   6.460   4.890   6.655  0.6971 -0.2828 -3.1160
  134OSM    H6G14559   6.379   4.737   6.628 -1.1501 -0.3987 -1.7631
  134OSM    C7F14560   6.266   4.861   6.759 -0.1700 -0.3162  0.2495
  134OSM    H7F14561   6.162   4.826   6.737 -0.2816  0.0107  0.2469
  134OSM    H7G14562   6.249   4.970   6.767 -1.0676 -0.4181 -0.1442
  134OSM    C8F14563   6.314   4.796   6.892  0.1535  0.4020  0.0941
  134OSM    H8F14564   6.353   4.698   6.859  0.3952  0.4846  0.1313
  134OSM    H8G14565   6.228   4.792   6.962  1.1505  1.1782  1.4112
  134OSM    C9F14566   6.425   4.877   6.962 -0.4576  0.3779  0.6984
  134OSM    H9F14567   6.409   4.986   6.965  0.9567  0.6649 -0.8393
  134OSM   C10F14568   6.542   4.830   7.015  0.2184 -0.4315 -0.0981
  134OSM   H10F14569   6.611   4.905   7.057  0.2231 -0.8632  0.6717
  134OSM   C11F14570   6.585   4.692   7.015 -0.0966  0.2500  0.1648
  134OSM   H11F14571   6.512   4.625   6.965  0.4841  0.4016 -0.9304
  134OSM   H11G14572   6.609   4.662   7.119 -0.6184  0.0196  0.2175
  134OSM   C12F14573   6.716   4.676   6.936 -0.0494  0.0051 -0.1385
  134OSM   H12F14574   6.741   4.569   6.952 -0.4753 -0.1317 -0.3519
  134OSM   H12G14575   6.789   4.742   6.987  0.7661 -0.1362 -1.0888
  134OSM   C13F14576   6.713   4.716   6.795  0.1968 -0.5376 -0.5515
  134OSM   H13F14577   6.682   4.823   6.793 -2.0927 -1.1427 -0.3508
  134OSM   H13G14578   6.627   4.665   6.746  0.0834 -0.0021 -0.9138
  134OSM   C14F14579   6.840   4.681   6.716  0.2810 -0.2848 -0.2649
  134OSM   H14F14580   6.852   4.570   6.712  0.4307 -0.2479 -1.8012
  134OSM   H14G14581   6.937   4.727   6.745  0.1650  0.9310 -1.6829
  134OSM   C15F14582   6.814   4.721   6.572  0.6682  0.5199 -0.5747
  134OSM   H15F14583   6.790   4.829   6.565  2.2332  0.9879  0.7749
  134OSM   H15G14584   6.719   4.674   6.537 -0.1202  1.4479  0.2504
  134OSM   C16F14585   6.937   4.688   6.480  0.4217  0.3326  0.4573
  134OSM   H16F14586   6.962   4.581   6.497 -0.6680  0.3323  2.3158
  134OSM   H16G14587   7.024   4.747   6.516 -0.0212 -0.0634  2.2774
  134OSM   C17F14588   6.914   4.721   6.336 -0.1548 -0.0130 -0.0724
  134OSM   H17F14589   6.872   4.823   6.320  2.6744  0.9501 -2.2573
  134OSM   H17G14590   6.835   4.651   6.300 -1.0865  0.2282  1.4138
  134OSM   C18F14591   7.034   4.703   6.247 -0.0372  0.3106 -0.0933
  134OSM   H18F14592   7.021   4.744   6.144 -1.1113  2.5428  0.8573
  134OSM   H18G14593   7.058   4.594   6.250 -0.5606  0.2176  1.0470
  134OSM   H18H14594   7.119   4.755   6.297  0.6482  1.9749 -2.7809
  135OSM      N14595   5.597   5.468   5.517  0.0696  0.4748  0.0249
  135OSM    C1514596   5.641   5.504   5.374 -0.1924  0.0989  0.8595
  135OSM   H15A14597   5.736   5.554   5.386  0.0200  0.6203 -2.2244
  135OSM   H15B14598   5.563   5.571   5.342 -1.1541 -0.2649  2.3379
  135OSM   H15C14599   5.653   5.418   5.310  4.0515 -0.0986  1.6484
  135OSM    C1414600   5.452   5.430   5.514 -0.3573 -0.4231 -0.4760
  135OSM   H14A14601   5.398   5.494   5.447 -0.9278 -0.1988  0.1813
  135OSM   H14B14602   5.415   5.442   5.615  1.9385 -0.9529  0.5080
  135OSM   H14C14603   5.432   5.328   5.483  1.9330 -1.1910  0.3851
  135OSM    C1314604   5.672   5.333   5.547  0.8386 -0.5741  0.1745
  135OSM   H13A14605   5.641   5.255   5.480 -1.6631 -1.7192  2.4561
  135OSM   H13B14606   5.632   5.301   5.642 -0.7691  2.1857  0.5519
  135OSM   H13C14607   5.779   5.343   5.551  0.8590 -0.3486 -0.8152
  135OSM    C1214608   5.625   5.577   5.617  0.3729  0.4772 -0.5913
  135OSM   H12A14609   5.581   5.534   5.706  0.5741  1.4753  0.0038
  135OSM   H12B14610   5.562   5.663   5.602  0.4153  1.1383  2.3811
  135OSM    C1114611   5.769   5.611   5.630 -0.1890  0.4177  0.1214
  135OSM   H11A14612   5.841   5.534   5.596 -0.6534  0.1801 -0.3299
  135OSM   H11B14613   5.790   5.629   5.737  0.4230 -1.0868  0.2657
  135OSM      P14614   5.771   5.864   5.575 -0.3489 -0.6204  0.1527
  135OSM    O1314615   5.844   5.958   5.483 -0.2950 -0.1205 -0.2191
  135OSM    O1414616   5.627   5.884   5.584  0.3676 -0.8609 -0.2264
  135OSM    O1114617   5.842   5.885   5.718  0.0254  0.8480  0.7149
  135OSM    O1214618   5.803   5.719   5.542 -0.1890 -0.2312 -0.2037
  135OSM    C1S14619   5.752   5.916   5.819  0.1412  0.2905 -0.9164
  135OSM    H1S14620   5.667   5.846   5.828 -0.8863  1.5480 -0.5351
  135OSM    H1T14621   5.718   6.021   5.828 -2.8513 -0.8090  3.1586
  135OSM     NF14622   5.729   5.902   6.062 -0.0351  0.0304  0.0767
  135OSM    HNF14623   5.719   5.991   6.105 -0.9740  0.4751 -0.9959
  135OSM    C2S14624   5.827   5.893   5.957  0.3562 -0.7216 -0.0356
  135OSM    H2S14625   5.877   5.794   5.952  1.3373 -0.2024 -0.8938
  135OSM    C3S14626   5.940   5.999   5.966 -0.6834 -0.4506  0.3009
  135OSM    H3S14627   5.909   6.105   5.974 -2.2129 -0.7312 -1.2216
  135OSM     O314628   6.019   6.006   5.847  0.0276  0.6811  0.2538
  135OSM    HO314629   5.960   5.978   5.777  0.2392 -1.9832  1.0356
  135OSM    C4S14630   6.019   5.978   6.097  0.2449  0.1638 -0.6257
  135OSM    H4S14631   5.962   6.009   6.186 -3.6937 -0.1998 -2.8099
  135OSM    C5S14632   6.139   5.923   6.112 -0.2319  0.1974  0.1012
  135OSM    H5S14633   6.198   5.895   6.024 -0.8903 -1.3201  0.1082
  135OSM    C6S14634   6.217   5.909   6.242  0.4533  0.1316  0.2961
  135OSM    H6S14635   6.149   5.853   6.310  1.2288 -0.5009  0.5605
  135OSM    H6T14636   6.243   6.007   6.286  0.0182  0.9575 -1.2221
  135OSM    C7S14637   6.354   5.844   6.240  0.6030  0.6102 -0.4072
  135OSM    H7S14638   6.411   5.845   6.336 -0.0427 -1.1054  0.0277
  135OSM    H7T14639   6.416   5.911   6.176 -1.1863  1.4238 -1.3558
  135OSM    C8S14640   6.346   5.696   6.197 -0.0658 -0.2599  0.0034
  135OSM    H8S14641   6.450   5.668   6.168 -0.7776 -1.6002 -1.4241
  135OSM    H8T14642   6.279   5.675   6.111  0.0587 -2.0259  0.2921
  135OSM    C9S14643   6.310   5.591   6.297  0.2329  0.3067 -0.2513
  135OSM    H9S14644   6.310   5.490   6.253 -1.3373 -0.3495  1.1174
  135OSM    H9T14645   6.203   5.616   6.319 -0.1333 -1.9687  0.8502
  135OSM   C10S14646   6.379   5.585   6.434  0.4566  0.0896 -0.2170
  135OSM   H10S14647   6.386   5.687   6.477  2.6916  0.1924 -0.6836
  135OSM   H10T14648   6.482   5.545   6.420 -0.0958 -0.9654 -1.4633
  135OSM   C11S14649   6.301   5.499   6.542 -0.2701  0.7608  0.2169
  135OSM   H11S14650   6.296   5.393   6.507  0.0663  1.2835 -1.5513
  135OSM   H11T14651   6.195   5.529   6.543 -0.2858  0.8532 -1.2561
  135OSM   C12S14652   6.365   5.500   6.680 -0.4687  0.5005 -0.3501
  135OSM   H12S14653   6.358   5.600   6.729 -0.1782  0.6932 -0.6994
  135OSM   H12T14654   6.474   5.475   6.679 -0.5064  0.3522 -0.7911
  135OSM   C13S14655   6.305   5.393   6.774  0.6313  0.6513 -0.3975
  135OSM   H13S14656   6.344   5.292   6.748  0.4978  0.0547  1.5082
  135OSM   H13T14657   6.195   5.395   6.765  0.5307 -0.2690  0.4283
  135OSM   C14S14658   6.354   5.403   6.923  0.3317  0.0686 -1.0291
  135OSM   H14S14659   6.309   5.497   6.963 -0.2354 -1.2467  1.6508
  135OSM   H14T14660   6.465   5.408   6.930  0.2760 -0.9831  1.6089
  135OSM   C15S14661   6.307   5.274   7.005 -0.4809  0.1465 -0.1499
  135OSM   H15S14662   6.394   5.210   7.029  0.6207  0.7908 -2.1692
  135OSM   H15T14663   6.236   5.218   6.941  0.1700  0.2063 -0.9409
  135OSM   C16S14664   6.228   5.311   7.128  0.1835 -0.1088  0.2434
  135OSM   H16S14665   6.125   5.336   7.095 -0.0344  0.9889  1.6435
  135OSM   H16T14666   6.269   5.396   7.187  0.9431  1.0281 -1.7992
  135OSM   C17S14667   6.209   5.198   7.231 -0.0434  0.0149  0.5657
  135OSM   H17S14668   6.149   5.117   7.185  0.1667 -0.3833  0.9724
  135OSM   H17T14669   6.152   5.244   7.315  0.8946  0.1084  1.1694
  135OSM   C18S14670   6.347   5.137   7.278  0.2442 -0.5501 -0.0398
  135OSM   H18S14671   6.419   5.217   7.307 -0.7923  0.3327  0.1495
  135OSM   H18T14672   6.388   5.088   7.187 -0.1265 -0.4954 -0.2385
  135OSM   H18U14673   6.348   5.059   7.358  0.2161  0.7863  1.3169
  135OSM    C1F14674   5.647   5.794   6.084 -0.4674  0.2410 -0.6958
  135OSM     OF14675   5.648   5.695   6.008  0.1125 -0.2047  0.9056
  135OSM    C2F14676   5.557   5.806   6.203  0.1560 -0.4285  0.1245
  135OSM    H2F14677   5.451   5.801   6.168  0.9786  0.8123 -2.8360
  135OSM    H2G14678   5.569   5.911   6.240 -0.9896 -0.6112  1.0800
  135OSM    C3F14679   5.576   5.705   6.322 -0.4899 -0.5119  0.2038
  135OSM    H3F14680   5.684   5.708   6.346 -0.3922  1.5281 -0.2989
  135OSM    H3G14681   5.546   5.609   6.276 -2.9980 -0.4683  1.5689
  135OSM    C4F14682   5.508   5.708   6.457 -0.2811 -0.0171  0.0283
  135OSM    H4F14683   5.403   5.680   6.435 -0.3252  0.3264 -0.2033
  135OSM    H4G14684   5.512   5.809   6.504  3.3225  0.0770 -0.2053
  135OSM    C5F14685   5.576   5.615   6.557  0.2879 -1.3115 -0.0868
  135OSM    H5F14686   5.681   5.647   6.572  0.1646 -0.9176 -0.0701
  135OSM    H5G14687   5.586   5.511   6.518 -0.0141 -1.2166 -0.4267
  135OSM    C6F14688   5.509   5.600   6.699 -0.5786  0.0882  0.3430
  135OSM    H6F14689   5.583   5.556   6.770  0.1670 -1.0997 -1.1303
  135OSM    H6G14690   5.430   5.525   6.678  0.4050 -0.0582 -3.4874
  135OSM    C7F14691   5.459   5.737   6.762  0.0598  0.4474 -0.4787
  135OSM    H7F14692   5.381   5.783   6.698 -1.1684 -0.6883  0.1501
  135OSM    H7G14693   5.533   5.819   6.754 -0.4576  0.8670 -1.0754
  135OSM    C8F14694   5.399   5.736   6.904  0.9440  0.3592  0.1794
  135OSM    H8F14695   5.424   5.835   6.948  0.6788  0.5643 -0.1260
  135OSM    H8G14696   5.437   5.655   6.969 -1.0960 -1.7286 -1.0961
  135OSM    C9F14697   5.247   5.722   6.901  0.0188 -0.2950 -0.1088
  135OSM    H9F14698   5.194   5.701   6.807 -1.9847 -0.9001  1.0851
  135OSM   C10F14699   5.167   5.708   7.012  0.4812 -0.1896 -0.1759
  135OSM   H10F14700   5.060   5.687   7.006  0.5100 -0.0262 -1.6543
  135OSM   C11F14701   5.217   5.722   7.157  0.4676  0.2968  0.2020
  135OSM   H11F14702   5.149   5.791   7.212  2.7654  1.8536  1.2676
  135OSM   H11G14703   5.320   5.762   7.169  1.7388 -3.0559  1.8718
  135OSM   C12F14704   5.213   5.589   7.233  0.7362  0.6018  0.0399
  135OSM   H12F14705   5.276   5.605   7.322  0.6368  2.9259 -0.2609
  135OSM   H12G14706   5.252   5.501   7.177  1.8256  1.8215 -1.2027
  135OSM   C13F14707   5.076   5.546   7.281  0.3721 -0.2839 -0.2334
  135OSM   H13F14708   5.044   5.447   7.240 -0.2267 -1.9010  3.7073
  135OSM   H13G14709   4.998   5.620   7.255  1.2266 -0.0083 -2.1763
  135OSM   C14F14710   5.088   5.520   7.434  0.1292  0.2168  0.1220
  135OSM   H14F14711   5.143   5.604   7.482  1.5821 -0.7091  0.1702
  135OSM   H14G14712   5.147   5.426   7.448 -1.2404 -1.0422 -1.9865
  135OSM   C15F14713   4.948   5.506   7.499  0.2631 -0.4599 -0.1371
  135OSM   H15F14714   4.885   5.439   7.437  0.5234 -1.1185  0.3061
  135OSM   H15G14715   4.908   5.609   7.485 -0.8764 -1.1803 -2.7689
  135OSM   C16F14716   4.944   5.456   7.641  0.1285  0.3895  0.5771
  135OSM   H16F14717   5.002   5.528   7.702  0.4559  1.6344 -1.1308
  135OSM   H16G14718   4.990   5.355   7.639  1.5342  0.9926  1.3079
  135OSM   C17F14719   4.797   5.447   7.694 -0.4531 -0.1012  0.0926
  135OSM   H17F14720   4.736   5.368   7.647  0.5475 -0.7033 -0.2284
  135OSM   H17G14721   4.739   5.540   7.676 -0.8302 -0.3427  0.0599
  135OSM   C18F14722   4.790   5.409   7.841  0.4770  0.0539 -0.0952
  135OSM   H18F14723   4.825   5.305   7.859 -2.6152 -1.0976 -0.0868
  135OSM   H18G14724   4.689   5.424   7.885  0.3442 -0.1600 -0.3213
  135OSM   H18H14725   4.856   5.474   7.902  1.1888 -1.8753  1.3033
  136OSM      N14726   4.042   6.665   5.495 -0.7811 -0.4730 -0.7717
  136OSM    C1514727   4.008   6.769   5.599 -0.0044 -0.1243  0.4097
  136OSM   H15A14728   3.997   6.864   5.550 -2.7186 -0.1469  0.8440
  136OSM   H15B14729   4.085   6.778   5.675 -1.6698  1.9783  1.9705
  136OSM   H15C14730   3.922   6.735   5.654 -0.8498 -1.4325 -1.6163
  136OSM    C1414731   3.936   6.670   5.388 -0.0412  0.0938  0.4781
  136OSM   H14A14732   3.839   6.655   5.433 -2.4146  2.3919 -3.2838
  136OSM   H14B14733   3.950   6.595   5.311 -0.5980  0.2895  0.1864
  136OSM   H14C14734   3.927   6.764   5.337  0.4103  0.8637  1.7625
  136OSM    C1314735   4.176   6.711   5.439 -0.3865 -1.1625 -0.5630
  136OSM   H13A14736   4.196   6.634   5.365 -1.5784 -2.4023  0.3573
  136OSM   H13B14737   4.260   6.710   5.507 -0.0180  1.7704 -0.8698
  136OSM   H13C14738   4.174   6.808   5.393 -1.4231 -1.5180 -1.3101
  136OSM    C1214739   4.038   6.528   5.565  0.6435 -0.3417  0.0398
  136OSM   H12A14740   3.934   6.511   5.586  0.8919  0.0219  1.6923
  136OSM   H12B14741   4.078   6.540   5.664 -1.8822  0.1094  1.0751
  136OSM    C1114742   4.087   6.401   5.494 -0.0019 -0.8270  0.4195
  136OSM   H11A14743   4.024   6.382   5.404 -0.3146  0.3105  0.3861
  136OSM   H11B14744   4.065   6.316   5.562 -0.0160 -0.8362  0.4032
  136OSM      P14745   4.356   6.355   5.508 -0.0178  0.2094  0.2374
  136OSM    O1314746   4.368   6.210   5.474 -0.5733 -0.2006  0.2524
  136OSM    O1414747   4.459   6.447   5.458 -0.3716  0.6662 -0.0572
  136OSM    O1114748   4.340   6.376   5.659  0.0291 -0.3298  0.7351
  136OSM    O1214749   4.222   6.407   5.451 -0.2853 -0.2582  0.1821
  136OSM    C1S14750   4.346   6.498   5.731 -0.1793 -0.1043  0.3962
  136OSM    H1S14751   4.263   6.569   5.712  0.4899  0.3476 -0.9556
  136OSM    H1T14752   4.439   6.555   5.711  1.4248 -2.1764  1.5230
  136OSM     NF14753   4.277   6.584   5.958  0.4266  0.6202 -0.6870
  136OSM    HNF14754   4.345   6.612   6.025  0.0680  0.3461 -0.2084
  136OSM    C2S14755   4.321   6.466   5.882 -0.3932 -0.3576  0.5585
  136OSM    H2S14756   4.236   6.395   5.882 -0.9032  0.2271  1.3276
  136OSM    C3S14757   4.448   6.387   5.947  0.2136 -0.4389  0.2608
  136OSM    H3S14758   4.539   6.451   5.948 -0.3435  0.4594  3.1669
  136OSM     O314759   4.488   6.278   5.866 -0.3861  0.3586 -0.3505
  136OSM    HO314760   4.437   6.288   5.785 -0.5326 -0.5244 -0.3777
  136OSM    C4S14761   4.413   6.341   6.086  0.2721  1.2011 -1.0533
  136OSM    H4S14762   4.444   6.399   6.174 -0.1641  0.1438 -0.1769
  136OSM    C5S14763   4.348   6.222   6.099  0.4478  0.3059  0.1926
  136OSM    H5S14764   4.318   6.151   6.020 -1.4601  1.5228 -0.2590
  136OSM    C6S14765   4.313   6.163   6.234 -0.5520 -0.3064  0.0639
  136OSM    H6S14766   4.371   6.071   6.257  0.9425  0.3670 -0.8443
  136OSM    H6T14767   4.208   6.129   6.217 -1.2568  1.8899 -0.1865
  136OSM    C7S14768   4.311   6.255   6.355  1.3258 -0.3722 -0.2199
  136OSM    H7S14769   4.260   6.349   6.324  1.4433 -0.7991 -1.8003
  136OSM    H7T14770   4.416   6.286   6.375  0.6585  1.8195  0.1516
  136OSM    C8S14771   4.236   6.183   6.475 -1.0452 -0.3785 -0.4727
  136OSM    H8S14772   4.312   6.117   6.522 -0.0892  0.8313 -0.2568
  136OSM    H8T14773   4.144   6.125   6.451 -1.3847 -0.0490  0.0236
  136OSM    C9S14774   4.197   6.282   6.585  0.0014 -0.4279  0.0150
  136OSM    H9S14775   4.127   6.358   6.544  0.3034  0.4340  1.0483
  136OSM    H9T14776   4.289   6.337   6.611 -0.1194 -0.4523  0.4994
  136OSM   C10S14777   4.138   6.221   6.714 -0.5138 -0.7030 -0.0036
  136OSM   H10S14778   4.207   6.143   6.753 -2.3820 -1.7614  1.3484
  136OSM   H10T14779   4.043   6.170   6.687 -1.4940 -0.1867  2.2576
  136OSM   C11S14780   4.102   6.333   6.816 -0.0329 -0.2930 -0.4056
  136OSM   H11S14781   4.027   6.403   6.773 -0.2898  0.0021  0.5033
  136OSM   H11T14782   4.189   6.391   6.855 -0.2616 -1.0592  1.3019
  136OSM   C12S14783   4.051   6.275   6.949  0.1644 -1.0369  0.3360
  136OSM   H12S14784   4.132   6.203   6.975  0.3791 -0.8013  0.3247
  136OSM   H12T14785   3.955   6.220   6.945 -1.9515  2.2563  1.6366
  136OSM   C13S14786   4.027   6.381   7.064  0.2821 -0.0973  1.0425
  136OSM   H13S14787   3.999   6.481   7.025 -1.8921 -1.5795 -1.5317
  136OSM   H13T14788   4.130   6.400   7.102  0.6344 -2.6758  1.6239
  136OSM   C14S14789   3.956   6.333   7.184 -0.2446  0.2885 -0.8589
  136OSM   H14S14790   3.992   6.232   7.214  1.2468  1.4008  1.3534
  136OSM   H14T14791   3.848   6.315   7.168 -0.2802  0.1073 -0.4257
  136OSM   C15S14792   3.969   6.424   7.304 -0.1661 -0.5078  0.4104
  136OSM   H15S14793   3.939   6.527   7.277  0.4680 -0.3862  0.1568
  136OSM   H15T14794   4.078   6.427   7.327  0.6530  0.0732 -3.0501
  136OSM   C16S14795   3.886   6.372   7.423  0.0944  0.1982  0.2215
  136OSM   H16S14796   3.928   6.274   7.453  1.2119 -0.1775 -2.2948
  136OSM   H16T14797   3.785   6.344   7.385  0.8612 -0.8449 -1.1425
  136OSM   C17S14798   3.870   6.467   7.541  0.4011  0.2014 -0.0339
  136OSM   H17S14799   3.969   6.489   7.585 -0.4171 -1.2258  2.7810
  136OSM   H17T14800   3.814   6.412   7.620 -0.3760  1.1439  0.0985
  136OSM   C18S14801   3.783   6.587   7.515 -0.2989 -0.1136  0.8218
  136OSM   H18S14802   3.765   6.638   7.612  1.0993 -1.3481  1.7762
  136OSM   H18T14803   3.680   6.558   7.485  0.2377 -1.3509  0.0949
  136OSM   H18U14804   3.830   6.640   7.430  1.9485 -1.1110  1.3822
  136OSM    C1F14805   4.154   6.639   5.937 -0.0920 -0.7900 -0.0645
  136OSM     OF14806   4.081   6.604   5.846 -0.2259 -0.0546  0.1008
  136OSM    C2F14807   4.128   6.757   6.024  0.7892 -0.0745  0.4515
  136OSM    H2F14808   4.096   6.845   5.964 -1.3566 -1.0628  0.0281
  136OSM    H2G14809   4.221   6.789   6.076  1.8322 -0.7512 -0.9184
  136OSM    C3F14810   4.016   6.739   6.126 -0.1628 -0.8156 -0.1983
  136OSM    H3F14811   3.920   6.691   6.099 -1.0281  0.9289 -0.3862
  136OSM    H3G14812   3.992   6.847   6.143  0.6581 -0.4590 -1.1821
  136OSM    C4F14813   4.072   6.688   6.264  0.2874 -0.6833  0.2189
  136OSM    H4F14814   4.162   6.744   6.298  1.7470 -3.2230  0.8075
  136OSM    H4G14815   4.091   6.580   6.250 -1.2945 -0.8716 -0.7010
  136OSM    C5F14816   3.959   6.695   6.375 -0.3302  0.5088  0.8333
  136OSM    H5F14817   3.978   6.616   6.450 -2.0270 -1.6167 -0.8499
  136OSM    H5G14818   3.865   6.688   6.317  0.0635  1.5494  0.0333
  136OSM    C6F14819   3.956   6.826   6.450 -0.4753 -0.3853 -0.4843
  136OSM    H6F14820   3.935   6.906   6.376 -1.5558  0.4086  0.6448
  136OSM    H6G14821   4.051   6.844   6.504 -0.7787 -2.4915  0.8802
  136OSM    C7F14822   3.851   6.835   6.569 -0.2192  0.5013  0.0427
  136OSM    H7F14823   3.867   6.749   6.637 -1.3652  1.0846  1.0792
  136OSM    H7G14824   3.749   6.821   6.527 -0.2138 -1.5388  0.6090
  136OSM    C8F14825   3.873   6.963   6.650  0.7363 -0.5578  0.5958
  136OSM    H8F14826   3.907   7.047   6.586  0.1053 -0.6274  0.1606
  136OSM    H8G14827   3.956   6.931   6.717  2.7204 -0.3406 -1.6185
  136OSM    C9F14828   3.742   7.001   6.708  0.2276  0.5271 -0.6027
  136OSM    H9F14829   3.670   7.055   6.644  0.6791 -1.4493 -2.9218
  136OSM   C10F14830   3.686   6.951   6.823  0.1765 -0.1216  0.1756
  136OSM   H10F14831   3.586   6.988   6.853 -0.3053 -0.1787 -1.2543
  136OSM   C11F14832   3.744   6.856   6.919  0.2267  0.2636  0.2100
  136OSM   H11F14833   3.776   6.912   7.009  0.2100 -1.1855  1.1646
  136OSM   H11G14834   3.836   6.809   6.879  1.0329  1.0512  1.1042
  136OSM   C12F14835   3.656   6.731   6.944  0.0007 -0.0839 -0.4534
  136OSM   H12F14836   3.724   6.649   6.975 -1.1170 -0.2413  1.7773
  136OSM   H12G14837   3.608   6.695   6.850 -2.5080 -0.9133  1.0738
  136OSM   C13F14838   3.549   6.749   7.057 -0.5216 -0.2510  0.0432
  136OSM   H13F14839   3.518   6.644   7.075  0.0247 -0.4858 -0.3486
  136OSM   H13G14840   3.464   6.812   7.022  1.1397  1.3695 -1.2558
  136OSM   C14F14841   3.604   6.803   7.191  0.3447  0.2177  0.0670
  136OSM   H14F14842   3.643   6.906   7.178  1.5567 -0.3812 -1.2506
  136OSM   H14G14843   3.688   6.734   7.213  3.7294  3.9981  0.0369
  136OSM   C15F14844   3.488   6.800   7.298 -0.3324  0.3619 -0.4897
  136OSM   H15F14845   3.406   6.859   7.253  1.3680  2.4616 -0.9806
  136OSM   H15G14846   3.525   6.847   7.392  0.8825 -1.4738  0.0086
  136OSM   C16F14847   3.434   6.659   7.342  0.1095  0.1141  0.0549
  136OSM   H16F14848   3.527   6.607   7.373 -0.4693 -0.7691  0.3439
  136OSM   H16G14849   3.384   6.605   7.258 -0.8133 -0.9212  1.2436
  136OSM   C17F14850   3.340   6.652   7.459  0.3824 -0.5426 -0.8606
  136OSM   H17F14851   3.397   6.691   7.546 -0.4921  2.3912 -1.4835
  136OSM   H17G14852   3.299   6.550   7.476 -0.4123 -0.7613 -3.6387
  136OSM   C18F14853   3.228   6.759   7.443  0.1348  0.2011  0.4000
  136OSM   H18F14854   3.262   6.864   7.429  0.1752  0.5639  2.8381
  136OSM   H18G14855   3.153   6.751   7.524  1.2787  0.7446  1.5512
  136OSM   H18H14856   3.159   6.734   7.360  1.4852 -1.4681 -0.2840
  137OSM      N14857   0.669   4.086   5.517  0.4540 -0.0641  0.7050
  137OSM    C1514858   0.616   4.063   5.377  0.1229  0.0535 -0.1704
  137OSM   H15A14859   0.684   4.006   5.315 -0.6756 -0.7988 -0.2795
  137OSM   H15B14860   0.578   4.152   5.331 -0.8013 -0.3726 -0.2510
  137OSM   H15C14861   0.529   4.000   5.378 -0.7979  1.2447 -1.6768
  137OSM    C1414862   0.706   3.953   5.572 -0.2987  0.9130  0.0976
  137OSM   H14A14863   0.616   3.897   5.596  0.3663 -0.5908 -0.7550
  137OSM   H14B14864   0.760   3.964   5.664 -2.8738  1.0515  1.6822
  137OSM   H14C14865   0.759   3.893   5.500 -1.2767 -0.2268  0.2914
  137OSM    C1314866   0.796   4.170   5.517  0.5079 -0.5535 -0.0094
  137OSM   H13A14867   0.841   4.183   5.614 -0.3336 -0.0920  0.3405
  137OSM   H13B14868   0.764   4.267   5.480 -0.2654 -0.3653  1.0952
  137OSM   H13C14869   0.861   4.130   5.441 -0.0769 -1.1899 -0.1805
  137OSM    C1214870   0.561   4.148   5.607 -0.4543  0.1724  0.3715
  137OSM   H12A14871   0.611   4.191   5.692  1.9366 -0.8810 -0.4006
  137OSM   H12B14872   0.502   4.071   5.655 -2.4753  1.8712  0.7185
  137OSM    C1114873   0.468   4.255   5.546  0.4287  0.1756  0.1417
  137OSM   H11A14874   0.386   4.274   5.617  1.7600  0.0148  1.7838
  137OSM   H11B14875   0.408   4.221   5.458  0.0700  1.9495 -0.3227
  137OSM      P14876   0.555   4.490   5.621  0.3545 -0.4939  0.2937
  137OSM    O1314877   0.600   4.618   5.556  0.6379  0.9468 -0.0251
  137OSM    O1414878   0.425   4.493   5.696  0.1521 -0.2224  0.3275
  137OSM    O1114879   0.662   4.424   5.711  0.2679 -0.0569  0.3355
  137OSM    O1214880   0.536   4.375   5.513  0.1340 -0.1363  0.0027
  137OSM    C1S14881   0.794   4.476   5.724  0.1920 -0.6302  0.1114
  137OSM    H1S14882   0.810   4.568   5.663  0.2647 -0.7249 -0.0139
  137OSM    H1T14883   0.865   4.402   5.682 -1.6826 -1.6119 -1.4918
  137OSM     NF14884   0.953   4.573   5.897  0.4424  1.0179  0.1397
  137OSM    HNF14885   1.031   4.512   5.885 -1.3133 -1.3120 -0.3478
  137OSM    C2S14886   0.830   4.500   5.874 -1.2187  0.4768 -0.1264
  137OSM    H2S14887   0.745   4.552   5.924  0.2785  0.0710  3.0925
  137OSM    C3S14888   0.828   4.364   5.952  0.3500  0.3261 -0.6419
  137OSM    H3S14889   0.914   4.307   5.911  0.1885  0.8034 -1.6821
  137OSM     O314890   0.705   4.291   5.934 -0.8610 -0.2580  0.2925
  137OSM    HO314891   0.668   4.352   5.870  1.6457  0.9251 -0.1554
  137OSM    C4S14892   0.868   4.372   6.094 -0.1666  0.0274 -0.0033
  137OSM    H4S14893   0.796   4.426   6.158 -0.0215 -1.2839  1.3449
  137OSM    C5S14894   0.973   4.312   6.152 -0.4103 -0.1362 -1.0910
  137OSM    H5S14895   1.055   4.278   6.088  0.1600  0.5183 -0.7200
  137OSM    C6S14896   1.011   4.330   6.301  0.2358 -0.4832 -0.6354
  137OSM    H6S14897   1.120   4.346   6.313 -0.0572 -0.2506  3.0479
  137OSM    H6T14898   0.987   4.239   6.360 -1.1529  0.4161  0.2539
  137OSM    C7S14899   0.945   4.449   6.372 -0.3190 -0.2647  0.2810
  137OSM    H7S14900   0.834   4.452   6.377 -0.2590  0.5013  2.3498
  137OSM    H7T14901   0.973   4.539   6.313 -0.0689  0.5859  1.6456
  137OSM    C8S14902   0.985   4.471   6.523 -0.2177 -0.2583 -0.1416
  137OSM    H8S14903   0.992   4.576   6.558 -0.4202  0.5069 -2.2414
  137OSM    H8T14904   1.092   4.441   6.526  0.2566  1.2804 -0.7772
  137OSM    C9S14905   0.907   4.387   6.630 -0.2679  0.5919  0.3499
  137OSM    H9S14906   0.899   4.281   6.596  0.5315  0.6773 -0.1471
  137OSM    H9T14907   0.805   4.431   6.636  0.2703  1.6639  3.4610
  137OSM   C10S14908   0.972   4.385   6.767  0.4139  0.3691 -0.4299
  137OSM   H10S14909   0.978   4.485   6.816  1.3828 -0.6193  1.6156
  137OSM   H10T14910   1.076   4.346   6.769 -0.2330 -1.5575  1.9444
  137OSM   C11S14911   0.890   4.291   6.858  0.2402 -0.2298 -0.2479
  137OSM   H11S14912   0.886   4.195   6.802 -0.8945 -0.9539  1.0349
  137OSM   H11T14913   0.783   4.320   6.859  0.1671 -0.5156  0.1363
  137OSM   C12S14914   0.953   4.287   6.994  0.8081  0.4142  0.1727
  137OSM   H12S14915   0.965   4.390   7.034 -1.2336  0.4822  0.7449
  137OSM   H12T14916   1.052   4.238   6.984 -0.3119 -2.0781  0.6042
  137OSM   C13S14917   0.878   4.202   7.097  0.1015 -0.4036 -0.7798
  137OSM   H13S14918   0.867   4.095   7.072 -0.1814 -0.5859  0.0789
  137OSM   H13T14919   0.774   4.241   7.109  0.7708  1.2268  0.1818
  137OSM   C14S14920   0.959   4.191   7.231  0.2339 -0.2885 -0.5521
  137OSM   H14S14921   1.066   4.162   7.217  0.4931  1.1928 -1.9014
  137OSM   H14T14922   0.915   4.106   7.288  1.7140 -0.3091  0.6448
  137OSM   C15S14923   0.953   4.318   7.317 -0.2796 -0.1106  0.4017
  137OSM   H15S14924   0.850   4.341   7.355 -0.8485 -0.5865 -0.8146
  137OSM   H15T14925   0.997   4.403   7.261  1.8861 -0.6448  1.2063
  137OSM   C16S14926   1.049   4.312   7.440 -0.5976  0.1919 -0.0876
  137OSM   H16S14927   1.026   4.393   7.511  0.7326  1.2466 -0.8106
  137OSM   H16T14928   1.154   4.334   7.410  1.2329 -0.9335  4.5429
  137OSM   C17S14929   1.054   4.178   7.514 -0.0702  0.0783  0.6740
  137OSM   H17S14930   1.072   4.087   7.453 -1.9223 -1.9104  2.9098
  137OSM   H17T14931   0.956   4.154   7.560  0.0744  0.4962  1.2139
  137OSM   C18S14932   1.163   4.182   7.626 -0.0752  1.1310  0.3460
  137OSM   H18S14933   1.185   4.084   7.673  0.0074  0.8009 -0.3697
  137OSM   H18T14934   1.132   4.261   7.698 -2.4194  0.4907  0.1326
  137OSM   H18U14935   1.258   4.217   7.581  1.2346 -2.4451  0.0422
  137OSM    C1F14936   0.958   4.698   5.889  0.0955 -0.8422  1.0493
  137OSM     OF14937   0.854   4.764   5.889  0.5598 -0.2407  0.3678
  137OSM    C2F14938   1.101   4.763   5.895 -0.0805 -0.3131 -0.1709
  137OSM    H2F14939   1.107   4.872   5.919  1.1141 -0.6368  1.0963
  137OSM    H2G14940   1.151   4.759   5.796 -0.2251  0.6104 -0.2981
  137OSM    C3F14941   1.189   4.698   6.003 -0.1715 -0.7877  0.4448
  137OSM    H3F14942   1.285   4.754   6.011  0.0869 -1.1204 -0.2416
  137OSM    H3G14943   1.213   4.595   5.969 -0.1010 -0.2147 -1.3642
  137OSM    C4F14944   1.129   4.687   6.143 -0.3034  0.3883  0.3107
  137OSM    H4F14945   1.062   4.599   6.149 -0.2324  0.2834 -0.4342
  137OSM    H4G14946   1.064   4.777   6.146  0.3029  1.0362 -2.9011
  137OSM    C5F14947   1.226   4.692   6.259  0.0389  0.5350 -0.3769
  137OSM    H5F14948   1.319   4.740   6.221  2.2752 -1.9873  1.5123
  137OSM    H5G14949   1.250   4.589   6.293  2.3189  0.7637 -1.0545
  137OSM    C6F14950   1.174   4.773   6.384  0.1299  0.4761  0.6852
  137OSM    H6F14951   1.075   4.732   6.414  0.4445  0.2505  1.4177
  137OSM    H6G14952   1.151   4.878   6.354 -0.1715 -0.1740 -1.5833
  137OSM    C7F14953   1.268   4.774   6.501  0.7311 -0.2606 -0.2007
  137OSM    H7F14954   1.371   4.796   6.466  0.4134 -0.6469 -1.4285
  137OSM    H7G14955   1.262   4.670   6.540 -1.8814  0.2950  1.0667
  137OSM    C8F14956   1.231   4.875   6.613 -0.0705 -0.2415  0.5442
  137OSM    H8F14957   1.122   4.869   6.630  0.1651 -0.4974  2.0670
  137OSM    H8G14958   1.245   4.974   6.564  0.4891 -0.9636 -0.8080
  137OSM    C9F14959   1.318   4.849   6.734  0.5592  0.3822 -0.2095
  137OSM    H9F14960   1.423   4.879   6.721  0.8965  0.0204  1.4379
  137OSM   C10F14961   1.285   4.775   6.845 -0.0591 -1.0416 -0.2502
  137OSM   H10F14962   1.361   4.766   6.925  0.1301 -0.0408 -0.3072
  137OSM   C11F14963   1.167   4.686   6.864 -0.4316  0.1724  0.0855
  137OSM   H11F14964   1.208   4.583   6.869  2.6763  1.2144 -1.2383
  137OSM   H11G14965   1.098   4.696   6.779  1.8319  0.5846 -1.8058
  137OSM   C12F14966   1.090   4.716   6.992  0.3327  0.1158 -0.2791
  137OSM   H12F14967   1.006   4.646   7.005 -0.5277  1.2798  0.6901
  137OSM   H12G14968   1.047   4.818   6.983 -0.5775 -0.1497  0.8762
  137OSM   C13F14969   1.167   4.707   7.127 -0.2942  0.0616  0.3225
  137OSM   H13F14970   1.256   4.774   7.128 -0.3631  0.1535  1.0390
  137OSM   H13G14971   1.215   4.607   7.133 -0.9056 -0.3244 -0.9180
  137OSM   C14F14972   1.075   4.719   7.248 -0.2447  0.5281 -0.0651
  137OSM   H14F14973   0.978   4.665   7.240 -0.7723  0.9445  2.6757
  137OSM   H14G14974   1.049   4.825   7.270  0.5116  0.8677 -0.7582
  137OSM   C15F14975   1.152   4.668   7.376 -0.2226  0.6159 -0.7638
  137OSM   H15F14976   1.249   4.721   7.387  0.0553 -0.0956  0.4254
  137OSM   H15G14977   1.183   4.562   7.362 -2.2216 -0.1153 -0.0336
  137OSM   C16F14978   1.073   4.683   7.506  0.1841  0.0146  0.7609
  137OSM   H16F14979   0.976   4.630   7.500  1.0032 -1.5198  0.3865
  137OSM   H16G14980   1.056   4.793   7.506  2.5985  0.4590  1.3575
  137OSM   C17F14981   1.144   4.662   7.640 -0.0918  0.3192  0.1451
  137OSM   H17F14982   1.250   4.694   7.633 -0.1792  0.3014 -3.0753
  137OSM   H17G14983   1.147   4.551   7.652  1.4503  0.1137 -1.6868
  137OSM   C18F14984   1.072   4.740   7.754 -0.4419 -0.2662  0.7732
  137OSM   H18F14985   1.094   4.848   7.737  0.8536 -0.6418 -0.0537
  137OSM   H18G14986   1.120   4.718   7.852  1.0888 -1.0403 -0.1314
  137OSM   H18H14987   0.961   4.729   7.756 -0.3379 -2.0953 -0.5022
  138OSM      N14988   2.035   5.496   5.220  0.0630  0.1728  0.0976
  138OSM    C1514989   1.959   5.521   5.094 -0.3186  0.7725 -0.5024
  138OSM   H15A14990   1.999   5.464   5.011 -0.2962  0.0456  0.0004
  138OSM   H15B14991   1.969   5.627   5.075 -2.0225  1.3149  1.2897
  138OSM   H15C14992   1.857   5.486   5.098 -0.2894  0.7169 -0.2306
  138OSM    C1414993   2.041   5.348   5.247  0.2832 -0.7866 -0.2720
  138OSM   H14A14994   2.097   5.302   5.168 -0.0100 -0.4030 -0.7145
  138OSM   H14B14995   1.938   5.314   5.251 -0.1072  0.4286  1.5924
  138OSM   H14C14996   2.096   5.324   5.336  0.5413 -3.8100 -1.1443
  138OSM    C1314997   2.172   5.551   5.195  0.4682  0.0232 -0.3694
  138OSM   H13A14998   2.230   5.519   5.281  1.5289  0.7638 -0.7846
  138OSM   H13B14999   2.163   5.658   5.182  0.9456  0.2369  0.8832
  138OSM   H13C15000   2.219   5.509   5.107  0.0738  1.0213 -1.0795
  138OSM    C1215001   1.968   5.570   5.331  0.3430 -0.3917  0.3415
  138OSM   H12A15002   2.028   5.553   5.419  0.2489  0.2338  0.5313
  138OSM   H12B15003   1.872   5.525   5.350 -0.0511  0.1444 -0.3576
  138OSM    C1115004   1.949   5.716   5.304 -0.1098 -0.1698  0.9264
  138OSM   H11A15005   1.881   5.719   5.216 -1.6218 -1.6214  1.9787
  138OSM   H11B15006   2.050   5.759   5.284  0.6058 -1.5707  1.3927
  138OSM      P15007   1.747   5.824   5.425  0.2155 -0.1228  0.1419
  138OSM    O1315008   1.720   5.964   5.379  0.3791  0.1988  0.1470
  138OSM    O1415009   1.659   5.721   5.370  0.3150 -0.8548 -0.1498
  138OSM    O1115010   1.725   5.832   5.584  0.7772  0.4916  0.6495
  138OSM    O1215011   1.899   5.781   5.415 -0.3148 -0.1209  0.2481
  138OSM    C1S15012   1.726   5.712   5.654 -0.2762  0.5374 -0.0758
  138OSM    H1S15013   1.823   5.658   5.653 -0.0574  0.6934  2.9790
  138OSM    H1T15014   1.643   5.651   5.612  1.1518 -0.6206 -1.3217
  138OSM     NF15015   1.772   5.663   5.896  0.2394  0.0876  0.2039
  138OSM    HNF15016   1.715   5.605   5.954  0.0274 -0.6341 -0.7088
  138OSM    C2S15017   1.698   5.750   5.804  0.1324 -0.3180  0.0710
  138OSM    H2S15018   1.743   5.851   5.817  0.3841 -0.1895 -1.5829
  138OSM    C3S15019   1.541   5.755   5.819 -0.0108 -0.3722 -0.2771
  138OSM    H3S15020   1.506   5.650   5.807 -0.1806 -0.6282  1.9672
  138OSM     O315021   1.475   5.827   5.719 -0.0269  0.1659  0.0341
  138OSM    HO315022   1.537   5.825   5.646  0.2200 -1.1716  0.2511
  138OSM    C4S15023   1.505   5.797   5.957 -0.1541 -0.2541  0.2013
  138OSM    H4S15024   1.525   5.713   6.025  1.9253 -0.9686 -1.2123
  138OSM    C5S15025   1.465   5.916   6.012 -0.0553  0.7023  0.6238
  138OSM    H5S15026   1.457   5.995   5.935 -0.1052 -0.6679 -0.8276
  138OSM    C6S15027   1.442   5.947   6.152  0.4645 -0.0728 -0.0647
  138OSM    H6S15028   1.351   6.008   6.164  1.0835  0.7508  0.5526
  138OSM    H6T15029   1.527   6.006   6.193 -0.1809 -0.0526  1.3171
  138OSM    C7S15030   1.447   5.836   6.253  0.0700  0.8082  0.2505
  138OSM    H7S15031   1.525   5.758   6.242 -0.8508 -0.1553  0.3479
  138OSM    H7T15032   1.349   5.784   6.261  0.8831 -0.7042  0.8109
  138OSM    C8S15033   1.465   5.901   6.390 -0.2456  0.3073  0.1259
  138OSM    H8S15034   1.365   5.949   6.395 -0.8421 -0.4845 -2.3886
  138OSM    H8T15035   1.555   5.966   6.386 -0.0272 -0.0104 -0.2329
  138OSM    C9S15036   1.491   5.793   6.501  0.4614 -0.7129  0.7483
  138OSM    H9S15037   1.595   5.758   6.484  0.5004 -1.8509  3.0260
  138OSM    H9T15038   1.428   5.703   6.482 -0.0261 -0.1063 -0.6727
  138OSM   C10S15039   1.485   5.842   6.644 -0.5388  0.0221 -0.5128
  138OSM   H10S15040   1.387   5.890   6.661  0.0427  1.5907 -1.3692
  138OSM   H10T15041   1.567   5.915   6.662 -0.9427  0.5291 -0.7157
  138OSM   C11S15042   1.505   5.726   6.739 -0.0382  0.7897 -0.2778
  138OSM   H11S15043   1.598   5.666   6.726  0.1568  0.7630  1.1231
  138OSM   H11T15044   1.418   5.659   6.722  1.2849 -1.9355  2.7589
  138OSM   C12S15045   1.514   5.770   6.886 -0.2127 -0.5195 -0.2420
  138OSM   H12S15046   1.429   5.839   6.901  0.2781 -0.1620  1.0311
  138OSM   H12T15047   1.607   5.831   6.897  0.6247 -1.8770  0.4715
  138OSM   C13S15048   1.498   5.643   6.973  0.2573 -0.4733  0.4722
  138OSM   H13S15049   1.578   5.577   6.934  0.2895  0.0228 -0.3236
  138OSM   H13T15050   1.407   5.588   6.942  1.1226 -0.3668 -2.5239
  138OSM   C14S15051   1.520   5.672   7.127 -0.2500 -0.0950 -0.5437
  138OSM   H14S15052   1.427   5.725   7.158 -0.4419 -2.0530  2.7106
  138OSM   H14T15053   1.609   5.733   7.151 -1.1417  0.5055  1.4864
  138OSM   C15S15054   1.520   5.548   7.217 -0.1061 -0.0998  0.2646
  138OSM   H15S15055   1.619   5.500   7.203  0.8446  1.6289  0.7643
  138OSM   H15T15056   1.449   5.463   7.205  2.4180 -3.1579  4.5665
  138OSM   C16S15057   1.539   5.564   7.377  0.2284  0.4033 -0.3205
  138OSM   H16S15058   1.639   5.609   7.395  1.0453 -0.6844 -1.9497
  138OSM   H16T15059   1.543   5.463   7.421 -0.7939  0.0442 -1.0145
  138OSM   C17S15060   1.423   5.643   7.442  0.3412  0.1626  0.1319
  138OSM   H17S15061   1.328   5.586   7.444 -0.5707  1.5694 -1.2420
  138OSM   H17T15062   1.397   5.738   7.391 -0.9302  0.2205  0.8508
  138OSM   C18S15063   1.450   5.673   7.592  0.3057 -0.0485 -0.7490
  138OSM   H18S15064   1.366   5.733   7.634 -0.2872 -1.0570 -0.4441
  138OSM   H18T15065   1.547   5.719   7.620 -0.2574  1.6936 -1.5632
  138OSM   H18U15066   1.450   5.577   7.649 -0.5191  0.9401  1.0062
  138OSM    C1F15067   1.902   5.674   5.922  0.5937  0.5476 -0.0072
  138OSM     OF15068   1.972   5.736   5.843 -0.1535 -0.0305 -0.3905
  138OSM    C2F15069   1.947   5.601   6.039  0.6808  0.5231 -0.9453
  138OSM    H2F15070   2.050   5.618   6.076 -0.0733 -1.8767  2.7997
  138OSM    H2G15071   1.928   5.493   6.022  1.8467  0.1170  0.1652
  138OSM    C3F15072   1.874   5.639   6.173 -1.1096 -0.5791 -0.5437
  138OSM    H3F15073   1.776   5.586   6.170 -1.9002  0.8234 -0.9275
  138OSM    H3G15074   1.837   5.744   6.167 -1.0451 -0.5606 -0.6257
  138OSM    C4F15075   1.936   5.590   6.298 -0.1198 -0.3167 -0.2287
  138OSM    H4F15076   2.041   5.626   6.307 -0.9100  1.8106  1.1582
  138OSM    H4G15077   1.943   5.479   6.292 -1.8844 -0.6260  2.1270
  138OSM    C5F15078   1.855   5.621   6.428 -0.3225 -0.5445  0.0233
  138OSM    H5F15079   1.757   5.569   6.428 -0.4022 -0.4974 -1.9926
  138OSM    H5G15080   1.824   5.726   6.445 -0.8718 -0.5183 -1.0689
  138OSM    C6F15081   1.950   5.594   6.543  0.5057 -0.1714 -0.6217
  138OSM    H6F15082   2.038   5.661   6.536 -1.7759  3.0759 -0.6176
  138OSM    H6G15083   1.993   5.494   6.524  1.7417 -0.3807  2.7220
  138OSM    C7F15084   1.880   5.599   6.679 -0.0558 -0.3059  0.0348
  138OSM    H7F15085   1.808   5.515   6.685  1.8286 -1.9218  1.9474
  138OSM    H7G15086   1.810   5.685   6.684 -1.7225 -1.6133  0.1212
  138OSM    C8F15087   1.973   5.603   6.797 -0.1490  0.5480  0.2031
  138OSM    H8F15088   2.038   5.693   6.796  0.2053  0.3144 -1.4819
  138OSM    H8G15089   2.041   5.516   6.797 -0.6281  0.1568  1.4858
  138OSM    C9F15090   1.895   5.604   6.923 -0.4916  0.1603 -0.6942
  138OSM    H9F15091   1.793   5.644   6.921 -2.4677 -4.0605  1.9693
  138OSM   C10F15092   1.933   5.550   7.042  0.1420  0.9613  0.0738
  138OSM   H10F15093   1.862   5.541   7.125 -0.9806  1.0720 -0.8586
  138OSM   C11F15094   2.065   5.476   7.066 -0.2738  0.2576 -0.2010
  138OSM   H11F15095   2.135   5.489   6.981 -0.1275  1.6972  0.1226
  138OSM   H11G15096   2.042   5.368   7.079  4.9934 -0.9465  1.1623
  138OSM   C12F15097   2.128   5.516   7.203  0.3776  0.4686 -0.2111
  138OSM   H12F15098   2.057   5.489   7.285  1.3727 -2.7226 -0.2508
  138OSM   H12G15099   2.140   5.626   7.206  1.1230  0.3765  1.0251
  138OSM   C13F15100   2.258   5.450   7.242 -0.3195  0.4471 -0.2683
  138OSM   H13F15101   2.317   5.468   7.149 -2.1559 -1.4676 -1.9142
  138OSM   H13G15102   2.257   5.341   7.264 -0.4388  0.5660  0.3306
  138OSM   C14F15103   2.323   5.508   7.363 -0.6410  0.4516 -0.3082
  138OSM   H14F15104   2.340   5.617   7.368  1.7046  0.2683 -2.2621
  138OSM   H14G15105   2.423   5.461   7.367 -0.7037  0.2848 -0.6388
  138OSM   C15F15106   2.263   5.468   7.499  1.0817 -0.3138 -0.1316
  138OSM   H15F15107   2.209   5.373   7.478 -1.5771  1.3804 -1.5286
  138OSM   H15G15108   2.188   5.545   7.529  1.6369  1.0422 -2.0805
  138OSM   C16F15109   2.371   5.451   7.617 -0.2869  0.0148  0.2915
  138OSM   H16F15110   2.407   5.554   7.638  0.2016 -0.3337  1.1866
  138OSM   H16G15111   2.449   5.387   7.571 -2.6736 -1.8683 -1.4020
  138OSM   C17F15112   2.332   5.378   7.745 -0.1812 -0.8939 -0.7567
  138OSM   H17F15113   2.287   5.278   7.728 -1.2211 -1.2156  3.0876
  138OSM   H17G15114   2.249   5.431   7.795  0.6492  0.2012 -0.4967
  138OSM   C18F15115   2.455   5.355   7.834 -0.2998 -0.8320  0.0626
  138OSM   H18F15116   2.529   5.287   7.785 -0.2489  0.1095 -1.2397
  138OSM   H18G15117   2.424   5.312   7.931  0.1329 -0.6395  0.2899
  138OSM   H18H15118   2.499   5.454   7.859 -1.8730  0.2871 -1.3683
  139OSM      N15119   5.428   6.431   5.311 -0.0281  0.1021  0.1194
  139OSM    C1515120   5.396   6.569   5.253 -0.3791 -0.4982  0.5532
  139OSM   H15A15121   5.369   6.563   5.149 -0.6828  2.7960  0.3304
  139OSM   H15B15122   5.478   6.639   5.260 -0.5276 -0.3486  0.8400
  139OSM   H15C15123   5.315   6.608   5.314  1.3367  0.3255  2.4324
  139OSM    C1415124   5.324   6.330   5.265  0.3265 -0.2185  0.4795
  139OSM   H14A15125   5.225   6.369   5.287  0.4024 -0.7921  1.9685
  139OSM   H14B15126   5.342   6.234   5.310  1.5747 -0.5276 -0.6262
  139OSM   H14C15127   5.321   6.332   5.158  0.0168  1.9013  0.4749
  139OSM    C1315128   5.555   6.375   5.243  1.0793 -0.5224  0.0633
  139OSM   H13A15129   5.537   6.374   5.137 -2.0000  2.0430  0.4177
  139OSM   H13B15130   5.587   6.277   5.276 -0.3602 -1.8612 -2.3199
  139OSM   H13C15131   5.624   6.457   5.257 -0.1256  0.7609 -1.3379
  139OSM    C1215132   5.444   6.434   5.457  0.1349  0.4817 -0.1872
  139OSM   H12A15133   5.502   6.521   5.484 -0.7838  1.3236 -0.8524
  139OSM   H12B15134   5.506   6.351   5.488 -0.6951 -0.3067 -0.5998
  139OSM    C1115135   5.318   6.429   5.543 -0.7237 -0.2125 -0.0265
  139OSM   H11A15136   5.343   6.384   5.642 -0.8557 -1.4571 -0.5307
  139OSM   H11B15137   5.250   6.351   5.501  0.2020 -0.9976 -0.1144
  139OSM      P15138   5.321   6.683   5.616 -0.3896 -0.1575  0.2217
  139OSM    O1315139   5.424   6.739   5.515 -0.2488 -0.6162 -0.4304
  139OSM    O1415140   5.234   6.778   5.675  0.4430 -0.3594  0.6351
  139OSM    O1115141   5.409   6.623   5.736  0.0567 -0.2533 -0.1776
  139OSM    O1215142   5.248   6.550   5.560 -0.1881 -0.1037  0.3680
  139OSM    C1S15143   5.524   6.692   5.797 -0.7583  0.4093 -0.0671
  139OSM    H1S15144   5.602   6.739   5.733 -0.0136  0.0180  0.5453
  139OSM    H1T15145   5.583   6.624   5.861  1.3503  0.8031 -1.4742
  139OSM     NF15146   5.579   6.882   5.946 -0.2398  0.1317  0.7671
  139OSM    HNF15147   5.624   6.849   6.028  0.0647  0.6961  0.8346
  139OSM    C2S15148   5.474   6.808   5.895 -0.2425  0.0183 -0.1820
  139OSM    H2S15149   5.402   6.869   5.836  0.2674  0.7455 -0.0641
  139OSM    C3S15150   5.392   6.746   6.010 -0.1470  1.2164 -0.4908
  139OSM    H3S15151   5.447   6.670   6.069 -3.3005 -0.2050  0.8634
  139OSM     O315152   5.269   6.679   5.966 -0.1668 -0.2955  0.2678
  139OSM    HO315153   5.301   6.642   5.884 -0.0238  0.2082  0.0882
  139OSM    C4S15154   5.335   6.854   6.101 -0.4997 -0.5891  0.2047
  139OSM    H4S15155   5.300   6.937   6.038  0.8476 -0.2137 -0.0894
  139OSM    C5S15156   5.352   6.869   6.236 -0.2793 -0.8898  0.0286
  139OSM    H5S15157   5.404   6.790   6.293  0.6131 -0.4831 -0.2048
  139OSM    C6S15158   5.301   6.971   6.328 -0.5980  0.1043  0.0144
  139OSM    H6S15159   5.217   6.924   6.382  0.5432 -1.7287  0.2843
  139OSM    H6T15160   5.245   7.050   6.272  0.1894 -0.5623 -1.7947
  139OSM    C7S15161   5.409   7.030   6.418  0.1777  0.1421  0.0706
  139OSM    H7S15162   5.366   7.110   6.482 -1.1602 -1.0766  0.7405
  139OSM    H7T15163   5.483   7.080   6.352 -0.6332  1.1643 -0.0847
  139OSM    C8S15164   5.482   6.931   6.515 -0.3094 -0.6860 -0.0780
  139OSM    H8S15165   5.528   6.853   6.450  0.5291  1.0239 -1.6322
  139OSM    H8T15166   5.422   6.861   6.576 -0.0522 -0.2746  0.6560
  139OSM    C9S15167   5.577   7.014   6.597  0.4040  0.2238  0.0135
  139OSM    H9S15168   5.522   7.083   6.664 -0.4465  0.3022 -0.7523
  139OSM    H9T15169   5.659   7.065   6.541 -0.8695  0.3607 -1.8269
  139OSM   C10S15170   5.653   6.930   6.705 -0.0187  0.0113  0.3715
  139OSM   H10S15171   5.719   7.001   6.758  1.3263 -1.0179  0.1352
  139OSM   H10T15172   5.725   6.858   6.661  0.0752 -0.3868  1.1556
  139OSM   C11S15173   5.564   6.861   6.808  0.1120  0.1584  0.0168
  139OSM   H11S15174   5.496   6.787   6.760 -0.2047  1.0130 -0.8936
  139OSM   H11T15175   5.494   6.936   6.851 -1.8525 -0.2479 -2.2621
  139OSM   C12S15176   5.637   6.810   6.938 -0.2444  0.0548  0.0966
  139OSM   H12S15177   5.701   6.890   6.980  1.0233  0.6823 -2.8474
  139OSM   H12T15178   5.713   6.736   6.906 -0.3222  0.8432 -2.0448
  139OSM   C13S15179   5.531   6.771   7.041 -0.4422  0.4141  0.0509
  139OSM   H13S15180   5.477   6.681   7.006 -1.5001  1.0588 -0.0028
  139OSM   H13T15181   5.456   6.853   7.038 -3.3326 -2.0877 -1.6203
  139OSM   C14S15182   5.577   6.751   7.181 -0.0846 -0.6611 -0.1821
  139OSM   H14S15183   5.631   6.844   7.206  1.3587 -1.3820 -0.4898
  139OSM   H14T15184   5.661   6.681   7.200 -0.2163 -0.6868  0.3231
  139OSM   C15S15185   5.458   6.728   7.276 -0.4207 -0.8659  0.9541
  139OSM   H15S15186   5.384   6.801   7.237  1.9267  0.6244 -0.9804
  139OSM   H15T15187   5.503   6.760   7.373 -1.3988  0.3329  1.0253
  139OSM   C16S15188   5.403   6.590   7.292 -0.4120  0.7395  0.0736
  139OSM   H16S15189   5.488   6.520   7.306 -0.7037 -0.6565 -3.8241
  139OSM   H16T15190   5.356   6.553   7.198  1.9481 -1.2113 -0.4616
  139OSM   C17S15191   5.306   6.577   7.408 -0.0209  0.1238 -0.1139
  139OSM   H17S15192   5.223   6.651   7.404 -0.0544  0.0486 -0.9053
  139OSM   H17T15193   5.360   6.615   7.498  0.6417  0.4216 -0.6319
  139OSM   C18S15194   5.253   6.442   7.445 -0.8432 -0.4860 -0.8215
  139OSM   H18S15195   5.334   6.378   7.485 -1.5854 -0.8941  0.0782
  139OSM   H18T15196   5.213   6.403   7.348 -2.0466  1.8345 -1.3191
  139OSM   H18U15197   5.170   6.438   7.519  0.3199  0.1101  0.5408
  139OSM    C1F15198   5.647   6.967   5.873 -0.2994 -0.1938  0.0203
  139OSM     OF15199   5.590   7.017   5.776  0.2763  0.2336 -0.0012
  139OSM    C2F15200   5.797   6.989   5.911  0.0403  0.1288  0.0243
  139OSM    H2F15201   5.863   6.940   5.836 -0.3085 -0.2110 -0.0648
  139OSM    H2G15202   5.818   6.946   6.011 -0.4318 -0.6549 -0.2051
  139OSM    C3F15203   5.839   7.140   5.904  0.0198 -0.2114  0.2563
  139OSM    H3F15204   5.849   7.159   5.796 -1.3623 -0.9345 -0.0345
  139OSM    H3G15205   5.943   7.157   5.938  0.3457 -0.1607 -0.7576
  139OSM    C4F15206   5.739   7.237   5.962  0.0400  0.2054  0.2493
  139OSM    H4F15207   5.639   7.225   5.916  1.2998 -1.2627 -2.3467
  139OSM    H4G15208   5.771   7.333   5.916  1.5382 -0.6739 -0.6257
  139OSM    C5F15209   5.744   7.243   6.114  0.8022 -0.9212  0.2022
  139OSM    H5F15210   5.842   7.287   6.143  0.5050  0.8064 -1.2976
  139OSM    H5G15211   5.739   7.137   6.147  0.6032  0.1654  4.1627
  139OSM    C6F15212   5.632   7.334   6.169  0.0569 -0.1692 -0.1683
  139OSM    H6F15213   5.532   7.293   6.147 -0.6188 -0.0697  2.3665
  139OSM    H6G15214   5.645   7.432   6.119  0.1253 -0.3134 -0.4328
  139OSM    C7F15215   5.654   7.350   6.315  0.3523 -0.0514  0.9647
  139OSM    H7F15216   5.736   7.423   6.335 -0.2601  0.0458  3.4225
  139OSM    H7G15217   5.673   7.246   6.347 -2.0230 -0.4591  1.1911
  139OSM    C8F15218   5.530   7.402   6.388  0.3559 -0.2856  0.4278
  139OSM    H8F15219   5.534   7.384   6.498 -2.2528  2.6838  1.1993
  139OSM    H8G15220   5.435   7.353   6.358 -0.9136  0.6874  2.5386
  139OSM    C9F15221   5.517   7.552   6.366 -0.7734 -0.2753  0.6285
  139OSM    H9F15222   5.482   7.588   6.268  0.5608  1.1601  0.6325
  139OSM   C10F15223   5.571   7.642   6.447  0.9390 -0.1179 -0.1678
  139OSM   H10F15224   5.546   7.747   6.427  2.9591  0.3702 -0.3574
  139OSM   C11F15225   5.643   7.618   6.577  1.2281 -1.1155 -0.2632
  139OSM   H11F15226   5.748   7.650   6.567  0.7853  0.5000 -0.0351
  139OSM   H11G15227   5.655   7.510   6.601  0.2596 -1.2551 -0.3672
  139OSM   C12F15228   5.580   7.691   6.698  0.2037  0.2008 -0.1214
  139OSM   H12F15229   5.473   7.671   6.716  0.3781 -1.5809 -0.8175
  139OSM   H12G15230   5.594   7.799   6.678  0.3269  0.3506  0.7255
  139OSM   C13F15231   5.658   7.675   6.831 -0.7795 -0.1159 -0.1533
  139OSM   H13F15232   5.765   7.651   6.809 -0.9162 -0.7197 -0.1792
  139OSM   H13G15233   5.620   7.583   6.880  0.5489  0.4205  2.0082
  139OSM   C14F15234   5.659   7.787   6.929 -0.5247  0.0444  0.6153
  139OSM   H14F15235   5.559   7.834   6.944 -0.2121  1.2679 -0.8484
  139OSM   H14G15236   5.723   7.860   6.875 -1.8155 -0.4952 -1.8088
  139OSM   C15F15237   5.719   7.743   7.066  0.4511  0.4638 -0.6114
  139OSM   H15F15238   5.679   7.644   7.096 -2.4240  1.9121  0.7571
  139OSM   H15G15239   5.690   7.819   7.141 -1.0200  0.5742 -1.2532
  139OSM   C16F15240   5.874   7.739   7.066 -0.5072 -0.4325  0.8020
  139OSM   H16F15241   5.919   7.826   7.013 -0.1736 -1.3327 -0.4605
  139OSM   H16G15242   5.912   7.650   7.012  2.5833  0.9918  0.4456
  139OSM   C17F15243   5.937   7.725   7.203  0.0732  0.7890 -0.2804
  139OSM   H17F15244   6.043   7.692   7.189 -0.0757  0.6117 -1.0477
  139OSM   H17G15245   5.881   7.640   7.249 -2.8680  2.2545 -0.9400
  139OSM   C18F15246   5.924   7.842   7.301  0.1884 -0.6519  0.3663
  139OSM   H18F15247   5.831   7.902   7.286  2.3040  3.1891  1.3522
  139OSM   H18G15248   6.005   7.916   7.287  0.2558 -1.1369 -2.4933
  139OSM   H18H15249   5.933   7.804   7.405  0.3736 -2.5231 -0.2867
  140OSM      N15250   1.335   1.458   5.312 -0.2284  0.1657 -0.2432
  140OSM    C1515251   1.299   1.523   5.189  0.1606  0.5747 -0.7104
  140OSM   H15A15252   1.371   1.510   5.109 -1.0561  1.3235 -1.9851
  140OSM   H15B15253   1.301   1.630   5.206  1.6601  0.5795 -0.7210
  140OSM   H15C15254   1.202   1.495   5.151 -0.4906 -0.3678  1.4923
  140OSM    C1415255   1.354   1.311   5.292  0.0503  0.1864 -0.4942
  140OSM   H14A15256   1.270   1.272   5.236 -0.1049 -0.2071  0.0028
  140OSM   H14B15257   1.365   1.260   5.387 -0.0570 -1.9629 -1.5878
  140OSM   H14C15258   1.434   1.293   5.223  0.5431  3.4248 -0.9483
  140OSM    C1315259   1.467   1.520   5.372 -0.0258  0.3091  0.5117
  140OSM   H13A15260   1.458   1.627   5.364  0.3042  0.5890  3.0701
  140OSM   H13B15261   1.548   1.487   5.309  1.0902  0.1215  1.9914
  140OSM   H13C15262   1.485   1.500   5.477 -0.7877  1.5270  0.8980
  140OSM    C1215263   1.215   1.471   5.410  0.1529 -0.8428  0.4411
  140OSM   H12A15264   1.122   1.438   5.367 -0.7100  0.3143  1.3550
  140OSM   H12B15265   1.201   1.577   5.430 -1.4615 -0.3562 -2.5674
  140OSM    C1115266   1.216   1.406   5.550  1.0040  0.0680 -0.0699
  140OSM   H11A15267   1.223   1.297   5.528  0.2171 -0.2364  1.0895
  140OSM   H11B15268   1.116   1.420   5.596  2.0499  2.5515  1.6602
  140OSM      P15269   1.294   1.581   5.725  0.1484  0.1389  0.7162
  140OSM    O1315270   1.400   1.570   5.822 -0.3342  0.4424 -0.2287
  140OSM    O1415271   1.278   1.710   5.649  0.6726 -0.5969 -0.2028
  140OSM    O1115272   1.159   1.566   5.804  0.0078 -0.3580 -0.2705
  140OSM    O1215273   1.320   1.459   5.627 -0.3129  0.2640 -0.4149
  140OSM    C1S15274   1.120   1.453   5.888 -0.7784  0.4116 -0.0106
  140OSM    H1S15275   1.201   1.378   5.887  1.5268  2.7638 -0.5159
  140OSM    H1T15276   1.021   1.416   5.852 -2.2169  1.8384  2.2327
  140OSM     NF15277   1.102   1.403   6.135 -0.4222 -0.9777  0.3494
  140OSM    HNF15278   1.013   1.372   6.165 -0.9572  0.3162  0.2002
  140OSM    C2S15279   1.086   1.510   6.032 -0.7941 -0.0501 -0.6543
  140OSM    H2S15280   1.152   1.597   6.052 -2.1933  1.0424 -0.6419
  140OSM    C3S15281   0.945   1.583   6.020 -0.0315  0.2917 -0.2876
  140OSM    H3S15282   0.866   1.508   5.995 -0.9739  1.2192 -0.1424
  140OSM     O315283   0.939   1.676   5.906  0.6971 -0.3296 -0.1504
  140OSM    HO315284   1.003   1.639   5.844 -1.1686 -3.2156 -0.5782
  140OSM    C4S15285   0.907   1.654   6.148  0.1709 -0.1079 -0.1819
  140OSM    H4S15286   0.954   1.752   6.164 -0.5701  0.2390 -0.0828
  140OSM    C5S15287   0.833   1.606   6.246 -0.0077 -0.4582  0.0142
  140OSM    H5S15288   0.800   1.501   6.241 -2.9155  0.2272  1.9534
  140OSM    C6S15289   0.813   1.669   6.380  0.5100 -0.3995  0.0968
  140OSM    H6S15290   0.733   1.616   6.436  1.9427 -1.7275  0.9767
  140OSM    H6T15291   0.787   1.776   6.368  1.8162  0.0032  0.5893
  140OSM    C7S15292   0.942   1.651   6.467 -0.4330  0.5060 -0.2617
  140OSM    H7S15293   1.027   1.702   6.417 -0.4341  1.0008  0.2367
  140OSM    H7T15294   0.970   1.543   6.475  0.3269  0.8596  2.8803
  140OSM    C8S15295   0.918   1.719   6.605 -0.2557  0.0137 -0.0988
  140OSM    H8S15296   0.877   1.821   6.584  0.2829 -0.0787 -1.8131
  140OSM    H8T15297   1.020   1.734   6.647  0.5130 -1.0887 -1.4457
  140OSM    C9S15298   0.827   1.636   6.705 -0.1039  0.2596 -0.6995
  140OSM    H9S15299   0.824   1.528   6.681  2.1904 -0.3530  1.3453
  140OSM    H9T15300   0.722   1.671   6.698 -0.7777 -0.9929  1.8695
  140OSM   C10S15301   0.860   1.666   6.853 -0.1776  0.1841  0.0260
  140OSM   H10S15302   0.896   1.771   6.854 -1.1117  0.5274  1.3167
  140OSM   H10T15303   0.953   1.608   6.871  0.6667  1.6184  0.4700
  140OSM   C11S15304   0.741   1.652   6.956  0.0616  0.8218  0.0003
  140OSM   H11S15305   0.712   1.545   6.954  1.1351  0.5136  0.1143
  140OSM   H11T15306   0.650   1.707   6.925  0.5500  0.7755 -1.6381
  140OSM   C12S15307   0.780   1.678   7.099 -0.4691 -0.6473  0.1315
  140OSM   H12S15308   0.813   1.784   7.107  1.6783 -1.3034  0.4578
  140OSM   H12T15309   0.863   1.612   7.132  0.8636 -0.9881 -3.3724
  140OSM   C13S15310   0.660   1.671   7.195  0.3696  0.1241 -0.2163
  140OSM   H13S15311   0.620   1.567   7.190  1.5032 -0.3915  0.8351
  140OSM   H13T15312   0.577   1.734   7.158 -1.0050  0.0076  2.4097
  140OSM   C14S15313   0.701   1.683   7.347 -0.2993  0.5221  0.0106
  140OSM   H14S15314   0.723   1.789   7.370  0.4311  0.0947  1.4224
  140OSM   H14T15315   0.795   1.626   7.366 -0.5908 -0.4017 -1.1747
  140OSM   C15S15316   0.592   1.622   7.436  0.1223  0.2107  1.1939
  140OSM   H15S15317   0.556   1.530   7.386  0.9436  0.9676 -0.9080
  140OSM   H15T15318   0.513   1.696   7.408  1.5097  1.0464 -0.7790
  140OSM   C16S15319   0.605   1.601   7.582 -0.1209 -0.3386 -0.0728
  140OSM   H16S15320   0.696   1.540   7.601  0.7701  1.2878  1.1504
  140OSM   H16T15321   0.513   1.547   7.614 -2.3132  2.2850 -1.5200
  140OSM   C17S15322   0.611   1.724   7.664 -0.2593 -0.8245  0.3225
  140OSM   H17S15323   0.519   1.782   7.644 -0.2189 -1.4729 -2.0071
  140OSM   H17T15324   0.703   1.785   7.647 -0.1904 -1.0962 -0.3156
  140OSM   C18S15325   0.602   1.688   7.809  0.1508 -0.1772  0.0230
  140OSM   H18S15326   0.613   1.776   7.877  1.3601  0.8545 -1.4284
  140OSM   H18T15327   0.685   1.616   7.825  0.8252  0.2619 -1.3856
  140OSM   H18U15328   0.506   1.635   7.825  0.6811 -1.5994 -1.3275
  140OSM    C1F15329   1.210   1.338   6.171 -0.2280 -0.0203 -0.8949
  140OSM     OF15330   1.314   1.350   6.107  0.1618  0.4299  0.7422
  140OSM    C2F15331   1.203   1.238   6.280 -0.0750 -0.5089  0.0049
  140OSM    H2F15332   1.287   1.167   6.264  0.7157  0.5554 -0.7753
  140OSM    H2G15333   1.101   1.194   6.282  0.8359 -2.7941 -0.8991
  140OSM    C3F15334   1.226   1.315   6.416 -0.2246  0.5031  0.3894
  140OSM    H3F15335   1.161   1.405   6.408 -0.5337  0.1348 -2.2797
  140OSM    H3G15336   1.333   1.347   6.420 -0.4331  1.4766 -0.9315
  140OSM    C4F15337   1.177   1.235   6.538  0.2378  0.9493  0.2471
  140OSM    H4F15338   1.239   1.144   6.546  0.8094  1.2768 -0.3155
  140OSM    H4G15339   1.075   1.200   6.515  0.2601  1.3627 -0.5312
  140OSM    C5F15340   1.180   1.311   6.664  0.1454  0.4342 -1.3619
  140OSM    H5F15341   1.099   1.386   6.656  0.6427  0.9564 -1.5544
  140OSM    H5G15342   1.277   1.363   6.678 -1.4384  3.2830  0.0166
  140OSM    C6F15343   1.146   1.224   6.782  0.0926  0.1291 -0.0826
  140OSM    H6F15344   1.227   1.161   6.827 -0.9580 -0.5153  0.9784
  140OSM    H6G15345   1.054   1.172   6.750  0.2528  0.7697 -1.6530
  140OSM    C7F15346   1.097   1.299   6.903 -0.8529  0.1015 -0.5430
  140OSM    H7F15347   1.021   1.375   6.876  0.1941  0.8466 -1.5084
  140OSM    H7G15348   1.174   1.350   6.965  0.1137 -1.7746 -0.1356
  140OSM    C8F15349   1.017   1.212   7.015  0.0018 -0.2885 -0.0465
  140OSM    H8F15350   0.944   1.138   6.974  1.1942 -1.3759 -0.2682
  140OSM    H8G15351   0.966   1.288   7.079  0.2322  0.2537 -0.5070
  140OSM    C9F15352   1.108   1.128   7.096  0.4141  0.3643  0.3087
  140OSM    H9F15353   1.128   1.029   7.053  2.0959  1.3035 -1.2252
  140OSM   C10F15354   1.170   1.148   7.211 -0.0960  0.1935  0.2755
  140OSM   H10F15355   1.203   1.061   7.269 -2.5553 -0.3668  0.9362
  140OSM   C11F15356   1.164   1.273   7.291 -0.1633  0.4023 -0.3383
  140OSM   H11F15357   1.125   1.247   7.391 -1.9546  1.5201 -0.6982
  140OSM   H11G15358   1.090   1.342   7.246  0.7063  1.6880  0.1519
  140OSM   C12F15359   1.292   1.349   7.315 -0.4693  0.0243  0.6367
  140OSM   H12F15360   1.277   1.457   7.334 -1.1034  0.7034 -2.8872
  140OSM   H12G15361   1.332   1.362   7.212 -4.3722 -2.2263 -1.4410
  140OSM   C13F15362   1.384   1.289   7.416 -0.7355 -0.2262 -0.1025
  140OSM   H13F15363   1.391   1.183   7.386  0.0431 -0.3208  0.3890
  140OSM   H13G15364   1.331   1.286   7.514 -0.2345  0.1319  0.1844
  140OSM   C14F15365   1.515   1.370   7.428 -0.5903  0.0302  0.1436
  140OSM   H14F15366   1.496   1.459   7.492  4.2136  1.1266  0.4494
  140OSM   H14G15367   1.552   1.404   7.329  2.5305  1.0353  1.5021
  140OSM   C15F15368   1.633   1.298   7.499 -0.9138  0.0637 -0.0138
  140OSM   H15F15369   1.653   1.200   7.451  1.5590  0.4760  0.0440
  140OSM   H15G15370   1.606   1.301   7.607 -2.0291  2.4680 -0.2946
  140OSM   C16F15371   1.760   1.390   7.495  0.0918  0.0123 -0.1668
  140OSM   H16F15372   1.730   1.491   7.532  1.8388  0.8650 -0.9370
  140OSM   H16G15373   1.787   1.396   7.388  0.2109  0.9138 -0.0949
  140OSM   C17F15374   1.885   1.335   7.573  0.0886 -0.2670 -0.0031
  140OSM   H17F15375   1.851   1.322   7.678  1.4585  0.8690  0.6027
  140OSM   H17G15376   1.969   1.407   7.569  0.6760 -0.9844 -1.0610
  140OSM   C18F15377   1.925   1.197   7.523  0.1693 -0.6165 -0.2665
  140OSM   H18F15378   1.964   1.215   7.421 -0.6056  0.2323 -0.4297
  140OSM   H18G15379   1.853   1.112   7.523  2.3090 -2.5275 -0.3724
  140OSM   H18H15380   2.012   1.157   7.580 -0.2528 -0.0900  0.7900
  141OSM      N15381   6.936   5.288   5.649 -0.1420  0.3245 -0.1818
  141OSM    C1515382   6.828   5.381   5.614  1.2097  0.2242  0.0613
  141OSM   H15A15383   6.851   5.456   5.540 -1.7391  2.3460  1.0768
  141OSM   H15B15384   6.781   5.434   5.696 -0.6284  1.6672 -1.8234
  141OSM   H15C15385   6.741   5.334   5.572  1.0027 -0.0280  0.7575
  141OSM    C1415386   6.880   5.174   5.733  0.2732 -0.3087 -0.2849
  141OSM   H14A15387   6.819   5.105   5.676 -1.5794  2.1555 -1.4768
  141OSM   H14B15388   6.818   5.225   5.805 -1.9434 -0.6617 -1.8277
  141OSM   H14C15389   6.960   5.115   5.776 -2.0366 -3.7286 -0.2754
  141OSM    C1315390   6.999   5.240   5.527  0.4079 -0.2363  0.0992
  141OSM   H13A15391   7.081   5.173   5.549  0.0107 -0.2651  1.5982
  141OSM   H13B15392   7.040   5.325   5.475  1.5606  0.7173  2.4192
  141OSM   H13C15393   6.922   5.202   5.461 -0.5665  0.9476  0.5220
  141OSM    C1215394   7.039   5.364   5.738  0.2916 -0.3323  0.8822
  141OSM   H12A15395   6.995   5.405   5.828  0.2614  0.6880  0.4160
  141OSM   H12B15396   7.076   5.449   5.682 -1.8245  0.3922  0.4917
  141OSM    C1115397   7.160   5.274   5.784 -0.3737 -0.2807  0.5439
  141OSM   H11A15398   7.134   5.226   5.881  3.6885 -1.5778  1.1714
  141OSM   H11B15399   7.244   5.338   5.817 -0.6462  1.0974 -1.2657
  141OSM      P15400   7.335   5.076   5.713  0.0835 -0.3633 -0.1069
  141OSM    O1315401   7.272   4.963   5.783 -0.0467  0.3166  0.2882
  141OSM    O1415402   7.400   5.052   5.584  0.7831  0.3478  0.5422
  141OSM    O1115403   7.439   5.152   5.807 -0.6064  0.5605 -0.3830
  141OSM    O1215404   7.219   5.179   5.689 -0.0449  0.1002  0.0537
  141OSM    C1S15405   7.433   5.162   5.953  0.9824  0.4909  0.3412
  141OSM    H1S15406   7.338   5.124   5.995  1.2808 -1.1949 -0.3921
  141OSM    H1T15407   7.443   5.268   5.983  0.2514  0.7360 -0.2596
  141OSM     NF15408   7.531   5.081   6.167  0.1830  0.2065  0.1067
  141OSM    HNF15409   7.598   5.145   6.204  1.5150 -0.0640 -1.7162
  141OSM    C2S15410   7.543   5.079   6.015  0.0022  0.5135 -0.0585
  141OSM    H2S15411   7.538   4.976   5.973 -0.1974 -0.0239  1.2323
  141OSM    C3S15412   7.681   5.140   5.977 -0.3417  0.2455  0.2361
  141OSM    H3S15413   7.691   5.244   6.016  1.0114  0.0278  0.5063
  141OSM     O315414   7.702   5.153   5.832  0.3506 -0.6284 -0.0240
  141OSM    HO315415   7.611   5.167   5.807  0.5540  0.2375 -0.3013
  141OSM    C4S15416   7.792   5.061   6.029  0.8999  0.3441  0.3008
  141OSM    H4S15417   7.808   4.960   5.990 -2.7247  0.0810 -0.8522
  141OSM    C5S15418   7.879   5.100   6.111  0.3671  0.0819 -0.1860
  141OSM    H5S15419   7.851   5.187   6.172 -1.0985 -0.6622  0.2592
  141OSM    C6S15420   7.992   5.016   6.171  0.5516 -0.2160 -0.1016
  141OSM    H6S15421   8.077   5.084   6.194 -1.7234  2.2086  1.7439
  141OSM    H6T15422   8.037   4.948   6.096  1.9389  1.2649 -0.6802
  141OSM    C7S15423   7.957   4.927   6.291 -0.7908 -0.4474  0.1372
  141OSM    H7S15424   8.047   4.867   6.317  0.3010  1.4475  0.8893
  141OSM    H7T15425   7.859   4.875   6.277 -1.4585  0.9424 -0.4867
  141OSM    C8S15426   7.939   5.004   6.418  0.0005 -0.5758 -0.1566
  141OSM    H8S15427   7.832   5.028   6.433  0.4845  1.4817  0.3049
  141OSM    H8T15428   7.982   5.106   6.406  0.7371 -1.0251 -1.5058
  141OSM    C9S15429   7.979   4.933   6.544 -0.3363  0.6594  0.4779
  141OSM    H9S15430   8.090   4.940   6.544 -0.1826 -1.2188  1.3028
  141OSM    H9T15431   7.957   4.824   6.541  3.9540 -0.3448 -0.2868
  141OSM   C10S15432   7.903   4.984   6.663 -0.4877 -0.0244 -0.6090
  141OSM   H10S15433   7.795   4.961   6.651 -0.3153 -1.9287  1.0399
  141OSM   H10T15434   7.927   5.092   6.676  2.2630 -0.4957 -1.1434
  141OSM   C11S15435   7.954   4.906   6.789  0.4413 -0.5765  0.0099
  141OSM   H11S15436   8.064   4.911   6.805  0.6096 -0.0568 -1.2033
  141OSM   H11T15437   7.932   4.797   6.784  0.8126 -0.6218 -0.8320
  141OSM   C12S15438   7.886   4.968   6.911  0.0746 -0.3931 -0.8159
  141OSM   H12S15439   7.779   4.950   6.887 -0.1945  2.5789 -2.2182
  141OSM   H12T15440   7.907   5.076   6.898 -0.4458 -0.5572 -3.4246
  141OSM   C13S15441   7.926   4.922   7.048  0.4496 -0.2752 -0.6925
  141OSM   H13S15442   8.026   4.961   7.078  0.6733 -1.5534  0.3119
  141OSM   H13T15443   7.911   4.813   7.056 -0.3039 -0.2971 -2.1969
  141OSM   C14S15444   7.843   4.988   7.155 -0.3678  0.2575 -0.1824
  141OSM   H14S15445   7.734   4.968   7.153 -0.3458  0.1872 -0.9702
  141OSM   H14T15446   7.857   5.098   7.167  0.4437  0.0971  0.4819
  141OSM   C15S15447   7.892   4.945   7.296  0.1781 -0.6146  0.5281
  141OSM   H15S15448   7.993   4.987   7.312 -1.0381  2.1167  1.5168
  141OSM   H15T15449   7.905   4.834   7.290  0.9117 -0.7112  3.0966
  141OSM   C16S15450   7.804   4.976   7.415 -0.5896  0.5772  0.2710
  141OSM   H16S15451   7.702   4.938   7.392 -0.5136  1.2257 -1.3000
  141OSM   H16T15452   7.814   5.086   7.425 -0.3987  0.4026  2.2898
  141OSM   C17S15453   7.876   4.906   7.534 -0.6820 -0.1446  0.1577
  141OSM   H17S15454   7.928   4.812   7.507  0.3742  1.2899 -3.3938
  141OSM   H17T15455   7.804   4.888   7.617 -2.1407  0.8976 -0.8160
  141OSM   C18S15456   7.986   4.992   7.595  0.2339  0.2738 -0.1176
  141OSM   H18S15457   8.085   4.995   7.546  0.9287  1.3602  1.2735
  141OSM   H18T15458   8.000   4.959   7.700  5.4900 -2.1396 -1.2491
  141OSM   H18U15459   7.950   5.097   7.598  0.2363  0.3413 -1.8650
  141OSM    C1F15460   7.430   5.035   6.237 -1.0902  0.4652  0.4580
  141OSM     OF15461   7.351   4.951   6.195 -0.8039  0.3870 -0.6211
  141OSM    C2F15462   7.420   5.083   6.382 -0.3548  0.7695 -0.4409
  141OSM    H2F15463   7.402   5.193   6.379 -2.3938  0.5341  0.7380
  141OSM    H2G15464   7.519   5.071   6.430 -1.2878  1.6787  1.8252
  141OSM    C3F15465   7.306   5.009   6.458 -0.1281  0.9981  0.2266
  141OSM    H3F15466   7.332   4.901   6.462 -1.9508  0.5455  1.3548
  141OSM    H3G15467   7.205   5.019   6.412  0.2645 -0.7290 -1.1691
  141OSM    C4F15468   7.311   5.052   6.610  0.2249 -0.1020  0.1076
  141OSM    H4F15469   7.300   5.161   6.596  3.5609  0.1926 -1.0711
  141OSM    H4G15470   7.410   5.039   6.657  0.1851 -1.2413 -0.0913
  141OSM    C5F15471   7.199   4.991   6.703 -0.1674  0.0600 -0.0061
  141OSM    H5F15472   7.222   4.882   6.705  0.0429  0.0803 -0.8544
  141OSM    H5G15473   7.105   5.008   6.647  0.8354  1.9184 -1.2277
  141OSM    C6F15474   7.190   5.041   6.847 -0.3230 -0.1614  0.2334
  141OSM    H6F15475   7.092   5.012   6.891 -0.1509  0.0825  0.7961
  141OSM    H6G15476   7.189   5.152   6.853 -2.2170 -0.1418  0.1439
  141OSM    C7F15477   7.311   4.985   6.928 -0.1181  0.4029 -0.4816
  141OSM    H7F15478   7.408   5.018   6.884 -0.8517  0.9953 -1.6842
  141OSM    H7G15479   7.313   4.874   6.930  1.3584  0.3885 -0.8696
  141OSM    C8F15480   7.299   5.045   7.068 -0.0570  0.1025 -0.3126
  141OSM    H8F15481   7.194   5.038   7.105 -0.2975 -0.7223 -1.0976
  141OSM    H8G15482   7.314   5.155   7.062 -0.9262  0.3429  1.2945
  141OSM    C9F15483   7.406   4.997   7.159  0.7718 -0.0475 -0.1164
  141OSM    H9F15484   7.503   5.000   7.108  0.6487  1.6560 -0.2938
  141OSM   C10F15485   7.391   4.935   7.279 -0.5676  0.0471 -0.2158
  141OSM   H10F15486   7.486   4.918   7.332  0.4008  2.1161 -1.1860
  141OSM   C11F15487   7.260   4.907   7.344  0.8082 -0.1766  0.0675
  141OSM   H11F15488   7.187   4.991   7.337 -2.4022 -2.7380  0.3932
  141OSM   H11G15489   7.277   4.885   7.452 -0.5546 -1.4902  0.0376
  141OSM   C12F15490   7.197   4.785   7.278  0.3653  0.2747 -0.8442
  141OSM   H12F15491   7.261   4.697   7.297  1.5818  1.3140  0.0596
  141OSM   H12G15492   7.192   4.798   7.168 -2.3189  1.1494 -0.7074
  141OSM   C13F15493   7.052   4.757   7.325  0.2489  0.3223 -0.4418
  141OSM   H13F15494   6.988   4.839   7.287 -1.0848 -0.3234  0.3333
  141OSM   H13G15495   7.043   4.749   7.435  1.4911  2.1848 -0.1718
  141OSM   C14F15496   6.997   4.618   7.269  0.1010  0.0587 -0.0961
  141OSM   H14F15497   7.049   4.536   7.324  0.0829  1.2055  1.7161
  141OSM   H14G15498   7.030   4.616   7.163  1.0985 -0.1911  0.2089
  141OSM   C15F15499   6.845   4.583   7.291  0.6495  0.0879  0.5290
  141OSM   H15F15500   6.831   4.490   7.231 -0.5370 -1.3465  2.8625
  141OSM   H15G15501   6.773   4.657   7.250 -1.1681 -1.4188  0.8581
  141OSM   C16F15502   6.812   4.551   7.440 -0.7874 -0.8319  0.5272
  141OSM   H16F15503   6.809   4.644   7.501  0.9375 -0.2199 -0.2380
  141OSM   H16G15504   6.898   4.494   7.483  1.2556  0.7612 -1.1981
  141OSM   C17F15505   6.687   4.474   7.476  0.2833  0.4648 -0.3377
  141OSM   H17F15506   6.687   4.371   7.434 -1.2160  0.9419 -1.6208
  141OSM   H17G15507   6.608   4.529   7.420  0.6619 -0.1386 -1.5078
  141OSM   C18F15508   6.655   4.476   7.622  0.2001  0.1057 -0.4410
  141OSM   H18F15509   6.664   4.576   7.669  0.7378 -0.5791  0.9681
  141OSM   H18G15510   6.718   4.405   7.679  2.5975  1.6877 -1.0197
  141OSM   H18H15511   6.547   4.446   7.625  0.4363 -0.9653 -1.5451
  142OSM      N15512   0.352   5.800   5.592 -0.7165 -0.3432 -0.3808
  142OSM    C1515513   0.282   5.674   5.540  0.3619 -0.5389 -0.1134
  142OSM   H15A15514   0.356   5.612   5.491  2.1383  0.0999  1.6603
  142OSM   H15B15515   0.205   5.702   5.469  0.0522 -1.9391 -0.3605
  142OSM   H15C15516   0.246   5.608   5.617  1.0005 -0.8207 -0.0459
  142OSM    C1415517   0.485   5.756   5.658  0.5590 -0.7785 -0.0051
  142OSM   H14A15518   0.554   5.719   5.584  1.3728 -0.6809  0.6910
  142OSM   H14B15519   0.460   5.682   5.732 -0.7982  0.0649  0.4218
  142OSM   H14C15520   0.540   5.837   5.704  1.6352 -0.4222 -1.7988
  142OSM    C1315521   0.394   5.872   5.466  0.7609 -0.6303 -0.6060
  142OSM   H13A15522   0.309   5.917   5.418 -0.6088  0.4905  2.6109
  142OSM   H13B15523   0.462   5.829   5.394  0.5306  0.1689 -1.3199
  142OSM   H13C15524   0.454   5.959   5.492  0.4711  0.1594 -2.3857
  142OSM    C1215525   0.267   5.871   5.688 -0.5957 -0.0138  0.3497
  142OSM   H12A15526   0.331   5.939   5.742 -0.6739 -0.5486  1.1370
  142OSM   H12B15527   0.243   5.804   5.769  2.1183 -1.9720 -0.3116
  142OSM    C1115528   0.139   5.947   5.635 -0.4590 -0.0694  0.8506
  142OSM   H11A15529   0.184   6.026   5.571  1.2111 -0.5373  1.4102
  142OSM   H11B15530   0.096   5.998   5.723 -3.0307 -2.0937  0.9032
  142OSM      P15531  -0.049   5.771   5.665 -0.7902  0.3300  0.1368
  142OSM    O1315532  -0.185   5.817   5.649  0.1129 -0.8774 -0.1479
  142OSM    O1415533  -0.013   5.633   5.630 -0.0362  0.5024 -0.1315
  142OSM    O1115534   0.011   5.795   5.811  0.9056  0.1718  0.0573
  142OSM    O1215535   0.045   5.862   5.571  0.1981  0.3835 -0.0878
  142OSM    C1S15536  -0.056   5.723   5.913 -0.1388  0.2806  0.3967
  142OSM    H1S15537  -0.070   5.617   5.884  0.3683  0.6649 -1.3492
  142OSM    H1T15538  -0.161   5.759   5.922 -1.0390 -0.9621 -3.4024
  142OSM     NF15539  -0.027   5.636   6.155  0.5442  0.8683 -0.0781
  142OSM    HNF15540  -0.098   5.660   6.222 -0.8456 -0.2896 -1.0805
  142OSM    C2S15541   0.015   5.737   6.051 -0.5365 -0.1072 -0.1385
  142OSM    H2S15542   0.119   5.708   6.025  0.2853  0.8115  1.8838
  142OSM    C3S15543   0.015   5.883   6.102 -0.6035  0.2238  0.6246
  142OSM    H3S15544  -0.088   5.912   6.131  0.1482  2.0893  1.5755
  142OSM     O315545   0.061   5.976   6.004 -0.3915 -0.4619  0.5392
  142OSM    HO315546   0.045   5.927   5.923 -0.0118 -2.8229  1.7957
  142OSM    C4S15547   0.094   5.892   6.224  0.3445  0.3181 -0.6281
  142OSM    H4S15548   0.176   5.818   6.227  0.1318  0.0968 -0.0728
  142OSM    C5S15549   0.049   5.958   6.334  0.1604 -0.2306 -0.7944
  142OSM    H5S15550  -0.053   5.999   6.328  0.6557  0.9691 -1.3398
  142OSM    C6S15551   0.121   5.965   6.464  0.9607 -0.2627 -0.2328
  142OSM    H6S15552   0.054   5.924   6.543  1.4631  1.6800  1.2737
  142OSM    H6T15553   0.135   6.071   6.492  0.9144 -0.4254  0.4208
  142OSM    C7S15554   0.252   5.884   6.470 -0.2297  0.7491 -0.4922
  142OSM    H7S15555   0.326   5.941   6.410  1.0248 -0.4706 -0.1729
  142OSM    H7T15556   0.245   5.785   6.420 -0.2390  0.3885  0.2183
  142OSM    C8S15557   0.287   5.859   6.615 -0.8386  0.1756 -0.0781
  142OSM    H8S15558   0.198   5.827   6.673  1.3765 -0.2366  3.4057
  142OSM    H8T15559   0.313   5.957   6.659 -3.1010  0.7516  0.0840
  142OSM    C9S15560   0.400   5.760   6.638 -0.4085  0.2483  0.3527
  142OSM    H9S15561   0.492   5.798   6.587  0.8064  0.0247  2.2723
  142OSM    H9T15562   0.367   5.684   6.565  1.9791  0.4581 -1.0714
  142OSM   C10S15563   0.429   5.727   6.785 -0.1149 -0.7175  0.0356
  142OSM   H10S15564   0.504   5.653   6.820  0.8568  0.9418  1.6515
  142OSM   H10T15565   0.331   5.688   6.820  0.0947  0.3784  2.0092
  142OSM   C11S15566   0.462   5.847   6.873  0.3535 -0.1579 -0.4350
  142OSM   H11S15567   0.374   5.914   6.871  2.3875  2.6805 -0.7487
  142OSM   H11T15568   0.538   5.912   6.824 -0.8548  0.2778 -1.7543
  142OSM   C12S15569   0.487   5.807   7.019 -0.2555  0.3417 -0.3202
  142OSM   H12S15570   0.571   5.735   7.007 -0.7512 -0.1315 -1.0803
  142OSM   H12T15571   0.398   5.753   7.057  0.5623 -0.9173 -0.1337
  142OSM   C13S15572   0.525   5.916   7.122 -0.4536 -0.3837 -0.3128
  142OSM   H13S15573   0.438   5.979   7.153 -1.0421  0.1437 -2.7955
  142OSM   H13T15574   0.608   5.979   7.083  0.5382 -1.8341 -0.6174
  142OSM   C14S15575   0.586   5.855   7.251  0.7435  0.4250 -0.1859
  142OSM   H14S15576   0.686   5.809   7.234 -0.1146 -1.9790  0.7706
  142OSM   H14T15577   0.515   5.773   7.276 -0.9704  1.5428 -1.1976
  142OSM   C15S15578   0.615   5.946   7.365  0.2411 -0.7363  0.3912
  142OSM   H15S15579   0.532   6.018   7.383 -0.0627 -0.6806 -1.0839
  142OSM   H15T15580   0.699   6.010   7.332  0.0341  0.5513  2.1467
  142OSM   C16S15581   0.638   5.882   7.498  0.1074 -0.1570  0.2250
  142OSM   H16S15582   0.679   5.954   7.572  1.9390  0.3726 -1.2414
  142OSM   H16T15583   0.704   5.793   7.488  2.6773  1.8303 -1.6899
  142OSM   C17S15584   0.506   5.840   7.566  0.2290  0.6409 -0.5449
  142OSM   H17S15585   0.464   5.770   7.490 -1.5873 -1.7960  2.4408
  142OSM   H17T15586   0.433   5.917   7.599  0.6576  0.3567  1.1260
  142OSM   C18S15587   0.523   5.746   7.689  0.5503  0.4393  0.7315
  142OSM   H18S15588   0.422   5.716   7.724 -0.1833  1.4677 -0.4187
  142OSM   H18T15589   0.567   5.802   7.774 -1.5282  2.7373  0.4205
  142OSM   H18U15590   0.583   5.654   7.670 -2.1651 -1.1317 -1.0242
  142OSM    C1F15591  -0.003   5.506   6.137  0.1051  0.0505  0.5080
  142OSM     OF15592   0.090   5.470   6.061 -0.2019 -0.1873 -0.5158
  142OSM    C2F15593  -0.073   5.396   6.214  0.1452 -0.0420 -0.3072
  142OSM    H2F15594  -0.046   5.296   6.173 -0.1535 -0.0382 -0.5244
  142OSM    H2G15595  -0.183   5.409   6.205  0.2538 -0.1551 -2.1877
  142OSM    C3F15596  -0.023   5.385   6.363 -0.1224 -0.7748 -0.3616
  142OSM    H3F15597   0.088   5.393   6.362 -0.1744 -0.0225 -0.4982
  142OSM    H3G15598  -0.049   5.279   6.385  1.9503 -1.8071 -2.5489
  142OSM    C4F15599  -0.083   5.482   6.464 -0.3233 -0.3108  0.5350
  142OSM    H4F15600  -0.194   5.482   6.462 -0.3535 -1.9524 -0.5766
  142OSM    H4G15601  -0.042   5.583   6.448 -2.8045  0.5766 -0.8231
  142OSM    C5F15602  -0.042   5.450   6.609  0.6432  0.4095  0.4234
  142OSM    H5F15603  -0.035   5.339   6.616  0.0059  0.3473  0.1316
  142OSM    H5G15604  -0.114   5.489   6.683  0.0881 -2.0413  1.2509
  142OSM    C6F15605   0.079   5.527   6.663 -0.0695  0.5358  0.5501
  142OSM    H6F15606   0.071   5.637   6.652 -1.2457  0.3412 -0.7808
  142OSM    H6G15607   0.170   5.507   6.603  0.0870 -0.4382  1.0901
  142OSM    C7F15608   0.115   5.489   6.804  0.7704  0.4891 -0.1605
  142OSM    H7F15609   0.222   5.506   6.828  1.0349  2.1364 -2.2169
  142OSM    H7G15610   0.110   5.380   6.823 -0.8056  0.7806  1.3712
  142OSM    C8F15611   0.015   5.554   6.909 -0.2439  0.5017  0.3494
  142OSM    H8F15612  -0.092   5.542   6.883 -0.2997 -0.4488  0.9645
  142OSM    H8G15613   0.038   5.663   6.905  0.7244  0.2718 -1.1319
  142OSM    C9F15614   0.037   5.506   7.049  0.3437 -0.2271  0.1346
  142OSM    H9F15615   0.027   5.397   7.053 -0.1564 -0.2901 -1.6595
  142OSM   C10F15616   0.074   5.574   7.150 -0.1392  0.1981 -0.0670
  142OSM   H10F15617   0.068   5.520   7.246  0.9066  2.1355  1.1422
  142OSM   C11F15618   0.109   5.720   7.173  0.3956  0.6918  0.2576
  142OSM   H11F15619   0.123   5.772   7.076  2.7115 -2.5775 -1.3500
  142OSM   H11G15620   0.197   5.726   7.241 -1.4820 -0.2030  2.9280
  142OSM   C12F15621   0.010   5.797   7.260 -0.4167  0.0478 -0.0854
  142OSM   H12F15622  -0.019   5.744   7.353  2.1819 -0.3581  0.5464
  142OSM   H12G15623  -0.080   5.827   7.201 -2.7636 -2.8058  1.7659
  142OSM   C13F15624   0.076   5.917   7.318 -0.4356  0.3442  0.2851
  142OSM   H13F15625   0.173   5.894   7.367  0.7986 -0.2619 -2.2666
  142OSM   H13G15626   0.006   5.956   7.395 -1.5085 -0.9183 -0.0256
  142OSM   C14F15627   0.096   6.026   7.212 -0.3374 -0.0977 -0.5442
  142OSM   H14F15628  -0.006   6.053   7.177 -0.6517  0.2779  0.6256
  142OSM   H14G15629   0.154   5.992   7.124  1.7109  0.0206  0.7059
  142OSM   C15F15630   0.164   6.142   7.273 -0.0730 -0.7257  0.1327
  142OSM   H15F15631   0.240   6.108   7.348  1.5817  2.0488 -0.1584
  142OSM   H15G15632   0.089   6.210   7.318 -0.5533  0.6325 -2.5419
  142OSM   C16F15633   0.220   6.228   7.162  0.1738  0.2205  0.1714
  142OSM   H16F15634   0.142   6.244   7.084  0.3424 -3.2180 -0.8793
  142OSM   H16G15635   0.306   6.179   7.112  0.2564  0.0057  0.5135
  142OSM   C17F15636   0.273   6.366   7.219  0.0829  0.2332 -0.0427
  142OSM   H17F15637   0.188   6.419   7.266  0.7236 -0.1302  1.6195
  142OSM   H17G15638   0.305   6.422   7.129 -0.7844 -3.0462 -2.5729
  142OSM   C18F15639   0.391   6.343   7.309  0.3998  0.2770 -0.3066
  142OSM   H18F15640   0.357   6.280   7.394 -1.8276 -2.0110 -2.7155
  142OSM   H18G15641   0.439   6.440   7.334  0.4687  0.5582 -1.5013
  142OSM   H18H15642   0.468   6.295   7.246  0.9416  1.1268 -0.3181
  143OSM      N15643   0.987   6.710   5.362  0.4273  0.7958 -0.4304
  143OSM    C1515644   1.031   6.598   5.261  0.7341 -0.4715 -0.9418
  143OSM   H15A15645   1.120   6.557   5.306 -0.6392 -2.1423  0.4478
  143OSM   H15B15646   1.049   6.642   5.164  3.3094  2.3853  0.6545
  143OSM   H15C15647   0.960   6.517   5.254  1.3304 -1.0179 -0.7859
  143OSM    C1415648   1.113   6.790   5.389  0.4574  0.2510  0.8084
  143OSM   H14A15649   1.191   6.739   5.444 -0.5449 -0.8916  1.2309
  143OSM   H14B15650   1.080   6.872   5.450 -1.8134 -0.1513  0.2058
  143OSM   H14C15651   1.149   6.828   5.294  1.0197  1.5189  1.5076
  143OSM    C1315652   0.875   6.785   5.286 -0.0904 -0.5626 -0.3306
  143OSM   H13A15653   0.822   6.852   5.352 -1.8711 -0.8049 -1.4643
  143OSM   H13B15654   0.797   6.722   5.245 -0.9351  0.1242  0.1953
  143OSM   H13C15655   0.915   6.852   5.211  2.1051 -2.1930 -0.7259
  143OSM    C1215656   0.928   6.640   5.483  0.4042  0.3683  0.1894
  143OSM   H12A15657   0.998   6.561   5.509  1.7063  0.6238 -2.2313
  143OSM   H12B15658   0.839   6.585   5.457  1.2209 -0.8275 -0.1810
  143OSM    C1115659   0.888   6.729   5.593 -0.0146 -0.0864  0.1191
  143OSM   H11A15660   0.971   6.787   5.639 -0.4005 -0.9063  1.9332
  143OSM   H11B15661   0.855   6.657   5.672 -1.2816 -1.3250 -1.4583
  143OSM      P15662   0.632   6.782   5.596  0.1681  0.4980 -0.5103
  143OSM    O1315663   0.542   6.882   5.546 -0.2171  0.5639  0.2874
  143OSM    O1415664   0.593   6.645   5.564 -0.2735  0.4127  0.2824
  143OSM    O1115665   0.651   6.779   5.754 -0.5879 -0.9023 -0.0048
  143OSM    O1215666   0.778   6.815   5.548  0.5917 -0.2289 -0.0485
  143OSM    C1S15667   0.680   6.910   5.812  0.0178 -0.5330 -0.2918
  143OSM    H1S15668   0.596   6.982   5.801  1.1760  1.5341  2.7753
  143OSM    H1T15669   0.761   6.961   5.755  0.4690 -0.1150  0.6847
  143OSM     NF15670   0.758   7.033   6.008  0.0199 -0.4588  0.3991
  143OSM    HNF15671   0.853   7.059   6.017 -0.0653  0.9466 -1.8540
  143OSM    C2S15672   0.734   6.906   5.956  0.0239  0.3916 -0.0458
  143OSM    H2S15673   0.658   6.866   6.026 -2.0518  1.7856 -1.3702
  143OSM    C3S15674   0.858   6.812   5.974  0.0181 -0.0649 -0.0249
  143OSM    H3S15675   0.946   6.853   5.919 -1.3992  0.1567 -2.2486
  143OSM     O315676   0.844   6.687   5.911 -0.1106  0.8322  0.5147
  143OSM    HO315677   0.775   6.710   5.849 -0.4266 -2.3563 -0.5290
  143OSM    C4S15678   0.899   6.798   6.116 -0.2793  0.8280  0.2613
  143OSM    H4S15679   0.838   6.732   6.178  0.9448  2.1769  3.1124
  143OSM    C5S15680   1.000   6.872   6.174  0.0942  0.3437 -0.3253
  143OSM    H5S15681   1.065   6.935   6.112  0.6644 -1.0885 -1.2227
  143OSM    C6S15682   1.033   6.866   6.319 -0.1349 -0.6253  0.9842
  143OSM    H6S15683   1.017   6.961   6.375  0.1721  0.6284 -0.9542
  143OSM    H6T15684   1.143   6.859   6.330  0.1019 -0.5784 -1.0725
  143OSM    C7S15685   0.956   6.760   6.409 -0.2922 -0.1176 -0.3714
  143OSM    H7S15686   0.985   6.655   6.386  0.2097 -0.2196  0.6992
  143OSM    H7T15687   0.846   6.760   6.390 -0.3943 -1.3451  0.1318
  143OSM    C8S15688   0.978   6.771   6.559  0.1464 -0.1507 -0.6948
  143OSM    H8S15689   0.923   6.860   6.596  0.0538 -0.3990 -0.2289
  143OSM    H8T15690   1.085   6.795   6.579  0.0756 -0.4008  0.0005
  143OSM    C9S15691   0.971   6.632   6.623  0.5753  0.2555  0.3107
  143OSM    H9S15692   1.062   6.591   6.573  0.4104  0.1494  0.0936
  143OSM    H9T15693   0.888   6.569   6.584  0.0500 -0.2534  2.1515
  143OSM   C10S15694   0.972   6.632   6.768 -0.3611  1.3043  0.0796
  143OSM   H10S15695   0.884   6.684   6.813  0.3736  1.9497  0.8059
  143OSM   H10T15696   1.065   6.685   6.797 -0.3498  1.6200 -0.5113
  143OSM   C11S15697   0.983   6.491   6.832  0.1815  0.1099 -0.1913
  143OSM   H11S15698   1.075   6.445   6.790 -0.9205 -1.5062 -0.9134
  143OSM   H11T15699   0.900   6.426   6.799  1.3086 -1.7735  0.5325
  143OSM   C12S15700   1.008   6.487   6.984  0.2737  0.4730 -0.9550
  143OSM   H12S15701   0.929   6.549   7.032 -1.0624 -1.1594 -0.9718
  143OSM   H12T15702   1.108   6.525   7.015 -0.0438  0.7771 -0.2807
  143OSM   C13S15703   0.997   6.348   7.040 -0.2234 -0.0050 -0.5585
  143OSM   H13S15704   1.068   6.281   6.986 -0.7757 -0.0052 -1.3021
  143OSM   H13T15705   0.894   6.311   7.018 -0.8698  0.7329  1.0421
  143OSM   C14S15706   1.027   6.331   7.190  0.2517  0.3442 -0.1521
  143OSM   H14S15707   1.133   6.324   7.221  0.3654  1.8567 -0.1119
  143OSM   H14T15708   0.972   6.242   7.227 -1.4100  1.3120 -0.1818
  143OSM   C15S15709   0.959   6.456   7.269  0.2390  0.1600 -0.3256
  143OSM   H15S15710   0.860   6.477   7.224 -0.1776 -0.8213  0.0876
  143OSM   H15T15711   1.032   6.539   7.259  0.6000 -0.1603 -0.3686
  143OSM   C16S15712   0.931   6.423   7.418  1.1203 -0.3110 -0.2304
  143OSM   H16S15713   1.026   6.425   7.475  0.9397 -2.9186  0.2878
  143OSM   H16T15714   0.891   6.321   7.437 -0.5467  0.4381  0.4726
  143OSM   C17S15715   0.836   6.520   7.491  0.1344 -0.3176  0.2350
  143OSM   H17S15716   0.882   6.620   7.500  0.5622 -0.6124  1.5521
  143OSM   H17T15717   0.823   6.488   7.597  0.5170  0.7032  0.6048
  143OSM   C18S15718   0.688   6.537   7.445 -0.6529 -0.3976 -0.3421
  143OSM   H18S15719   0.633   6.443   7.423 -1.9834  0.3226 -0.2049
  143OSM   H18T15720   0.682   6.599   7.353  0.3991  0.8610  0.4049
  143OSM   H18U15721   0.626   6.588   7.522  1.3553 -1.8113  2.3711
  143OSM    C1F15722   0.673   7.133   6.027 -0.1245  0.2272 -0.4848
  143OSM     OF15723   0.554   7.117   6.031  0.0969 -0.0550 -0.3448
  143OSM    C2F15724   0.732   7.267   6.075 -0.3509 -0.4231 -0.1401
  143OSM    H2F15725   0.734   7.351   6.002  0.8965  0.6079  1.0464
  143OSM    H2G15726   0.839   7.250   6.097 -0.3158  1.0617  0.9324
  143OSM    C3F15727   0.657   7.317   6.204  0.2777 -0.0775  0.6167
  143OSM    H3F15728   0.551   7.284   6.203 -0.2896  1.5128 -1.9483
  143OSM    H3G15729   0.650   7.428   6.202  2.3652  0.0905  0.3062
  143OSM    C4F15730   0.721   7.281   6.336 -0.0024  0.3076 -0.6275
  143OSM    H4F15731   0.662   7.333   6.414  1.8144 -1.5654  2.2034
  143OSM    H4G15732   0.822   7.326   6.349 -0.3932  1.0137  0.0531
  143OSM    C5F15733   0.717   7.130   6.378  0.3310  0.0078  0.8570
  143OSM    H5F15734   0.745   7.059   6.297 -2.3174 -0.4733  0.2411
  143OSM    H5G15735   0.608   7.110   6.391  0.2314  0.8866  1.4383
  143OSM    C6F15736   0.780   7.110   6.515  0.6247  0.6067  0.6363
  143OSM    H6F15737   0.850   7.191   6.543  0.7603  0.3867  0.9459
  143OSM    H6G15738   0.833   7.012   6.506 -1.0961 -0.1686 -2.2531
  143OSM    C7F15739   0.678   7.093   6.631 -0.2405  0.0703 -0.0348
  143OSM    H7F15740   0.647   6.986   6.632 -0.9152  0.2646  0.5630
  143OSM    H7G15741   0.592   7.161   6.616  0.7003  1.4093  0.4702
  143OSM    C8F15742   0.740   7.109   6.769  0.4576  0.6139  0.9975
  143OSM    H8F15743   0.777   7.214   6.772 -1.6359  1.3804  1.6790
  143OSM    H8G15744   0.830   7.046   6.783  0.2579  0.4024  1.3562
  143OSM    C9F15745   0.640   7.113   6.882  0.4200 -0.4278  0.1183
  143OSM    H9F15746   0.564   7.192   6.877  1.2099  0.2966 -1.2773
  143OSM   C10F15747   0.650   7.041   6.996  0.4654 -0.5868  0.3450
  143OSM   H10F15748   0.572   7.058   7.072  2.5246  5.6643  1.6724
  143OSM   C11F15749   0.754   6.932   7.029 -0.8422 -0.4760  0.4697
  143OSM   H11F15750   0.807   6.912   6.933 -0.8262  2.8082 -0.3289
  143OSM   H11G15751   0.709   6.838   7.067  0.0819 -0.6551  1.1331
  143OSM   C12F15752   0.872   6.961   7.128 -0.1557 -0.1353 -0.2219
  143OSM   H12F15753   0.846   7.007   7.226  1.3310 -0.7753  0.4926
  143OSM   H12G15754   0.924   7.054   7.096 -2.2233  2.4658  3.2205
  143OSM   C13F15755   0.967   6.839   7.147 -0.9112 -0.5784 -0.2537
  143OSM   H13F15756   1.012   6.817   7.048  1.4497  0.9569  0.3792
  143OSM   H13G15757   0.912   6.749   7.180 -0.7386 -0.4647  0.3460
  143OSM   C14F15758   1.074   6.868   7.254  0.1188  0.0395  0.9125
  143OSM   H14F15759   1.144   6.945   7.215  2.0372 -1.3905  1.3923
  143OSM   H14G15760   1.146   6.784   7.256  0.4808  0.2419 -1.1389
  143OSM   C15F15761   1.019   6.888   7.394  0.3323 -0.4839 -0.2661
  143OSM   H15F15762   0.937   6.814   7.407 -0.8939  1.1037  1.4569
  143OSM   H15G15763   0.980   6.992   7.396 -0.6174 -0.7743 -1.8394
  143OSM   C16F15764   1.123   6.855   7.502  0.6312  0.3538  0.1456
  143OSM   H16F15765   1.225   6.881   7.465 -0.3071 -0.0263 -3.0334
  143OSM   H16G15766   1.132   6.746   7.519  0.7594  0.2661 -0.4451
  143OSM   C17F15767   1.106   6.929   7.635  0.0345  0.1564 -0.0898
  143OSM   H17F15768   1.118   7.038   7.616  2.7780  0.2728  1.8068
  143OSM   H17G15769   1.188   6.892   7.700  0.3101 -2.8769 -1.9767
  143OSM   C18F15770   0.967   6.910   7.696 -0.1181  0.1617 -0.4079
  143OSM   H18F15771   0.979   6.959   7.795 -0.1209 -0.9447  0.1586
  143OSM   H18G15772   0.948   6.801   7.709  2.4382 -0.4874 -1.5581
  143OSM   H18H15773   0.882   6.956   7.641 -0.7780 -0.1618  0.3189
  144OSM      N15774   6.927   0.600   5.578 -0.3537  0.3702  0.4648
  144OSM    C1515775   6.964   0.470   5.500  0.1844  0.2605 -0.3383
  144OSM   H15A15776   6.878   0.423   5.456 -1.4910  0.4444  2.5364
  144OSM   H15B15777   7.010   0.396   5.564  2.4998  2.0484  0.1961
  144OSM   H15C15778   7.030   0.497   5.418  1.4498  0.2522  0.6481
  144OSM    C1415779   6.851   0.555   5.701  0.0536  0.6673 -0.3415
  144OSM   H14A15780   6.872   0.451   5.721  0.3113  1.0568  1.6475
  144OSM   H14B15781   6.747   0.566   5.674  0.4943 -0.0100 -2.4953
  144OSM   H14C15782   6.866   0.613   5.791 -1.3359 -0.0952  0.4178
  144OSM    C1315783   7.064   0.652   5.618 -0.1919 -0.4291  0.0934
  144OSM   H13A15784   7.106   0.573   5.678 -4.7547 -1.1480  2.8536
  144OSM   H13B15785   7.062   0.735   5.687 -0.0103 -1.2388  1.0907
  144OSM   H13C15786   7.135   0.667   5.538  0.1149 -3.1050 -0.2207
  144OSM    C1215787   6.857   0.694   5.486  0.0103  0.5862  0.1119
  144OSM   H12A15788   6.776   0.643   5.436 -0.9623  2.2438 -0.0683
  144OSM   H12B15789   6.925   0.726   5.409  1.7777 -0.5101  1.1339
  144OSM    C1115790   6.791   0.814   5.564  0.7333 -0.4874  0.3057
  144OSM   H11A15791   6.725   0.764   5.638  2.1493  0.4043  2.2649
  144OSM   H11B15792   6.729   0.878   5.497  1.4089 -0.0334  0.1015
  144OSM      P15793   6.969   1.002   5.555  0.2611 -0.2205  0.3022
  144OSM    O1315794   7.052   0.938   5.447  0.0270  0.3135  0.5483
  144OSM    O1415795   6.875   1.107   5.513  0.3604 -0.1578  0.2397
  144OSM    O1115796   7.065   1.052   5.669 -0.6894 -0.0368  0.4894
  144OSM    O1215797   6.893   0.891   5.632  0.7571  0.0519 -1.1816
  144OSM    C1S15798   7.027   1.129   5.782 -0.8185 -0.2797  0.1642
  144OSM    H1S15799   6.931   1.179   5.756  0.6044  1.2946 -2.4500
  144OSM    H1T15800   7.107   1.205   5.798 -1.2811  0.1481  0.4596
  144OSM     NF15801   6.969   1.151   6.026 -0.4973 -0.3336 -0.2859
  144OSM    HNF15802   7.024   1.161   6.109  0.8222 -1.9968 -0.8789
  144OSM    C2S15803   7.012   1.054   5.922 -0.1570 -0.1571 -0.2233
  144OSM    H2S15804   6.934   0.977   5.902  0.8813 -0.8436 -1.8963
  144OSM    C3S15805   7.144   0.972   5.956 -0.1333 -0.2398  0.1482
  144OSM    H3S15806   7.210   1.055   5.989  0.1108 -0.3501 -0.0503
  144OSM     O315807   7.206   0.903   5.843  0.3669  0.0542  0.3270
  144OSM    HO315808   7.162   0.937   5.764  1.7199 -0.5997 -0.7360
  144OSM    C4S15809   7.123   0.875   6.068 -0.1700  0.5818 -0.2756
  144OSM    H4S15810   7.163   0.907   6.166  2.7390  1.8630 -1.7531
  144OSM    C5S15811   7.079   0.744   6.061 -1.1084 -0.4071  0.6202
  144OSM    H5S15812   7.063   0.708   5.959 -0.1565  2.3742 -0.6159
  144OSM    C6S15813   7.065   0.656   6.180 -0.5623 -0.4951 -0.0320
  144OSM    H6S15814   7.145   0.580   6.168  0.6847  0.9028 -0.9340
  144OSM    H6T15815   6.965   0.609   6.171 -0.8432  0.3298 -1.8361
  144OSM    C7S15816   7.069   0.714   6.321 -0.4466  0.3802 -0.1426
  144OSM    H7S15817   7.153   0.786   6.332 -0.0833  0.0109 -0.4655
  144OSM    H7T15818   7.079   0.635   6.399  0.3389  1.3574  0.7881
  144OSM    C8S15819   6.936   0.774   6.365 -0.0273 -0.1295  0.6420
  144OSM    H8S15820   6.847   0.710   6.350 -1.0172  1.3406  0.0606
  144OSM    H8T15821   6.923   0.861   6.297  3.3647  0.4594  0.5512
  144OSM    C9S15822   6.920   0.835   6.505 -0.4302  0.5071 -0.2794
  144OSM    H9S15823   6.830   0.898   6.489 -1.9462 -0.8895  2.1852
  144OSM    H9T15824   7.010   0.898   6.524 -0.0843 -0.6375  2.3339
  144OSM   C10S15825   6.876   0.747   6.621  0.6971  0.9704  0.2087
  144OSM   H10S15826   6.962   0.682   6.646 -0.9510 -1.7702 -0.7634
  144OSM   H10T15827   6.793   0.678   6.594 -0.2801  2.3178 -0.3833
  144OSM   C11S15828   6.831   0.826   6.739 -0.4316 -0.5421 -0.2117
  144OSM   H11S15829   6.743   0.890   6.714  0.6748  0.5826 -1.3353
  144OSM   H11T15830   6.912   0.900   6.755 -0.2593 -1.1870  2.3555
  144OSM   C12S15831   6.811   0.744   6.867  0.3534  0.9986  0.0500
  144OSM   H12S15832   6.904   0.688   6.892  2.0246  1.8191 -3.6534
  144OSM   H12T15833   6.732   0.667   6.856  0.8351  0.4035  0.6207
  144OSM   C13S15834   6.755   0.828   6.982 -0.0735 -0.9624 -0.2785
  144OSM   H13S15835   6.658   0.784   7.015 -0.7295  0.6991  0.1203
  144OSM   H13T15836   6.719   0.926   6.944 -0.2477 -0.0372  2.1047
  144OSM   C14S15837   6.847   0.855   7.101  0.2118 -0.0703 -0.2290
  144OSM   H14S15838   6.936   0.914   7.070  0.3051 -1.1904 -2.2578
  144OSM   H14T15839   6.894   0.759   7.133  0.7126 -0.6394 -2.5016
  144OSM   C15S15840   6.776   0.924   7.219 -0.5656 -0.0892  0.0626
  144OSM   H15S15841   6.699   0.857   7.264 -0.1221 -1.1553 -0.7126
  144OSM   H15T15842   6.719   1.016   7.195 -2.2033 -0.8736  0.7878
  144OSM   C16S15843   6.882   0.943   7.328  0.0462 -0.2045  0.0464
  144OSM   H16S15844   6.959   1.014   7.293 -0.9720  0.4858 -0.8495
  144OSM   H16T15845   6.934   0.850   7.361  0.2080 -0.6171 -1.3178
  144OSM   C17S15846   6.816   1.018   7.442 -0.2005 -0.1708  0.2391
  144OSM   H17S15847   6.734   0.966   7.495 -1.6753  0.3515 -1.4423
  144OSM   H17T15848   6.763   1.109   7.408 -0.7682 -0.1220  1.2183
  144OSM   C18S15849   6.918   1.051   7.553  0.1747  0.3118 -0.1179
  144OSM   H18S15850   6.964   0.969   7.611  0.1323  0.1193 -0.3580
  144OSM   H18T15851   6.862   1.123   7.617 -2.2948 -0.3495 -1.4097
  144OSM   H18U15852   6.994   1.113   7.499 -0.1831  0.3051 -0.6391
  144OSM    C1F15853   6.859   1.221   6.017  0.1884 -0.0812  0.0515
  144OSM     OF15854   6.769   1.193   5.939 -0.0104 -0.1618 -0.3026
  144OSM    C2F15855   6.850   1.347   6.095  0.0502 -0.1433 -0.0711
  144OSM    H2F15856   6.812   1.423   6.022  0.1036 -1.0875 -1.1114
  144OSM    H2G15857   6.949   1.387   6.125  0.3484 -1.8278  1.3518
  144OSM    C3F15858   6.753   1.337   6.215 -0.2168  0.5526  0.5224
  144OSM    H3F15859   6.651   1.318   6.174  0.1833 -1.8085  0.5349
  144OSM    H3G15860   6.764   1.437   6.264  1.4988  0.6210  0.0647
  144OSM    C4F15861   6.780   1.230   6.322  0.6844  0.0974  0.4142
  144OSM    H4F15862   6.887   1.213   6.345  0.1091 -2.2047  1.7328
  144OSM    H4G15863   6.737   1.139   6.275  1.5133  0.7196 -1.6324
  144OSM    C5F15864   6.697   1.255   6.448  0.2071 -0.5443 -0.3988
  144OSM    H5F15865   6.590   1.232   6.429  0.1883  1.0404 -2.5446
  144OSM    H5G15866   6.715   1.358   6.484  1.1343 -0.7431 -0.2527
  144OSM    C6F15867   6.749   1.166   6.554  0.3673  0.0011 -0.8030
  144OSM    H6F15868   6.859   1.161   6.566  0.3328  2.0628  0.9676
  144OSM    H6G15869   6.720   1.061   6.535 -0.9720  0.1447  0.2378
  144OSM    C7F15870   6.665   1.188   6.686 -0.2631 -0.2181 -0.1161
  144OSM    H7F15871   6.691   1.106   6.757  1.0430  0.2059 -0.0688
  144OSM    H7G15872   6.557   1.191   6.660 -0.0560 -0.1107 -0.9795
  144OSM    C8F15873   6.693   1.318   6.765 -0.0771 -0.2990  0.2639
  144OSM    H8F15874   6.649   1.298   6.865 -0.8418 -0.4007 -0.0804
  144OSM    H8G15875   6.640   1.410   6.733 -0.2248 -0.2532  0.6335
  144OSM    C9F15876   6.841   1.348   6.783  0.0847 -0.7092  0.0953
  144OSM    H9F15877   6.878   1.408   6.698  0.3246 -0.1003  0.6224
  144OSM   C10F15878   6.921   1.311   6.880  0.1786 -0.1418 -0.4303
  144OSM   H10F15879   7.012   1.370   6.894 -0.0330  0.0455  0.1822
  144OSM   C11F15880   6.885   1.224   7.000 -0.3386  0.0385 -0.2389
  144OSM   H11F15881   6.951   1.134   7.001  2.3063  1.8290 -0.7514
  144OSM   H11G15882   6.779   1.194   6.995 -0.3561 -0.0000  0.2842
  144OSM   C12F15883   6.912   1.307   7.131 -0.4663  0.4278 -0.2557
  144OSM   H12F15884   6.924   1.239   7.218 -0.0426  0.9663  0.1055
  144OSM   H12G15885   6.819   1.365   7.149 -1.1685 -0.9096  0.6528
  144OSM   C13F15886   7.044   1.401   7.152  0.4829 -0.1084 -0.2088
  144OSM   H13F15887   7.026   1.487   7.084 -0.5618 -0.5865 -0.5559
  144OSM   H13G15888   7.125   1.327   7.131  0.4412 -1.3289  3.1894
  144OSM   C14F15889   7.055   1.441   7.300  0.1670  0.2486 -0.2958
  144OSM   H14F15890   7.052   1.348   7.361  0.2072  0.6199  0.2893
  144OSM   H14G15891   6.968   1.502   7.333 -0.6325 -1.6092  1.2516
  144OSM   C15F15892   7.188   1.519   7.335 -1.0636 -0.0776 -0.0915
  144OSM   H15F15893   7.279   1.493   7.278 -1.3157 -0.0403 -0.5096
  144OSM   H15G15894   7.222   1.511   7.441  0.4050  1.4603 -0.3877
  144OSM   C16F15895   7.176   1.669   7.295  0.1088  0.0902 -0.3449
  144OSM   H16F15896   7.096   1.720   7.353  0.9431  0.6417  0.3370
  144OSM   H16G15897   7.145   1.675   7.188 -0.8315  1.1211 -0.0362
  144OSM   C17F15898   7.303   1.743   7.292  0.0525  0.0030 -0.6494
  144OSM   H17F15899   7.277   1.839   7.243  0.2498  1.4645  1.9503
  144OSM   H17G15900   7.380   1.703   7.223  0.3148  1.9718 -1.5600
  144OSM   C18F15901   7.362   1.777   7.430 -0.0595 -0.8787 -0.4772
  144OSM   H18F15902   7.454   1.836   7.410 -0.9138  0.3851 -0.7687
  144OSM   H18G15903   7.404   1.687   7.481  0.5269 -0.6413 -0.5292
  144OSM   H18H15904   7.286   1.825   7.495  1.2896  0.0505  0.4736
  145SAPE     N15905   1.966   3.033   9.866 -0.0356 -0.5370 -0.6955
  145SAPE   HN115906   1.878   3.060   9.913 -0.0620  0.2871 -1.1807
  145SAPE   HN215907   2.032   2.986   9.931  0.4014  3.5510  2.2411
  145SAPE   HN315908   2.016   3.116   9.827 -0.8667  0.2662 -0.0871
  145SAPE   C1215909   1.949   2.948   9.742 -0.2455 -0.0891 -0.1411
  145SAPE  H12A15910   1.929   3.024   9.663 -2.5609 -0.1194  0.3427
  145SAPE  H12B15911   1.857   2.885   9.751  1.0534 -2.0205  0.1972
  145SAPE   C1115912   2.070   2.856   9.731  0.0510 -0.5999  0.4716
  145SAPE  H11A15913   2.062   2.780   9.650 -1.0121 -0.2897  0.2760
  145SAPE  H11B15914   2.069   2.787   9.818  0.3108  0.9419  1.7450
  145SAPE     P15915   2.331   2.845   9.738  0.3613  0.2992  0.1886
  145SAPE   O1315916   2.420   2.904   9.840  0.3734 -0.0767  0.4208
  145SAPE   O1415917   2.300   2.702   9.737  0.1676 -0.4105  0.6721
  145SAPE   O1215918   2.198   2.930   9.734  0.1528  0.3247  0.2505
  145SAPE   O1115919   2.388   2.886   9.601 -0.1742  0.2955  0.4827
  145SAPE    C115920   2.422   3.023   9.572  0.7898 -0.2784 -0.1812
  145SAPE    HA15921   2.332   3.088   9.584  0.1454  0.2901 -5.5203
  145SAPE    HB15922   2.505   3.060   9.636  1.9629 -0.0266 -1.7801
  145SAPE    C215923   2.459   3.043   9.428 -0.2565  0.2793  0.4047
  145SAPE    HS15924   2.557   3.002   9.396  0.8189  2.5628  0.6056
  145SAPE   O2115925   2.445   3.178   9.376 -0.4250 -0.0684  0.3530
  145SAPE   C2115926   2.528   3.261   9.430  0.3145  0.6299  0.3921
  145SAPE   O2215927   2.616   3.235   9.511 -0.5167  0.1062  0.4709
  145SAPE   C2215928   2.486   3.396   9.386  0.0156  0.1330  0.0436
  145SAPE   H2R15929   2.375   3.399   9.400  0.0358 -0.0224  0.2546
  145SAPE   H2S15930   2.531   3.475   9.450 -0.2858  0.2723  0.0846
  145SAPE    C315931   2.362   2.956   9.345  0.4307 -0.6167  0.8640
  145SAPE    HX15932   2.260   2.973   9.386  0.0247 -1.4158  0.2199
  145SAPE    HY15933   2.384   2.847   9.357 -2.1424 -1.5318 -1.5767
  145SAPE   O3115934   2.352   2.980   9.205  0.0353  0.1150  0.4501
  145SAPE   C3115935   2.417   2.906   9.111  1.0802  0.2379  0.4207
  145SAPE   O3215936   2.496   2.817   9.131 -0.3780 -0.6784  0.1582
  145SAPE   C3215937   2.367   2.954   8.980 -0.6234 -0.1056 -0.1643
  145SAPE   H2X15938   2.358   3.065   8.982 -0.3494 -0.0830 -0.2187
  145SAPE   H2Y15939   2.261   2.922   8.967 -1.0669  0.3876  1.8455
  145SAPE   C2315940   2.524   3.431   9.235 -0.1949  0.3406 -0.9023
  145SAPE   H3R15941   2.633   3.411   9.220 -0.0599 -0.5371  0.9689
  145SAPE   H3S15942   2.520   3.541   9.222  2.7048  0.6441 -0.0780
  145SAPE   C2415943   2.451   3.345   9.130  0.1170  0.5562 -0.7652
  145SAPE   H4R15944   2.341   3.363   9.130 -0.1102 -0.6419 -2.3058
  145SAPE   H4S15945   2.466   3.235   9.135  0.6406  0.6728  1.2374
  145SAPE   C2515946   2.509   3.393   9.001  0.4796 -0.0860 -0.0750
  145SAPE   H5R15947   2.612   3.431   8.996  0.2211  0.5161 -1.3818
  145SAPE   C2615948   2.433   3.406   8.889 -0.2723 -0.0986 -0.3030
  145SAPE   H6R15949   2.471   3.480   8.817 -0.3454  0.7982  0.5797
  145SAPE   C2715950   2.291   3.363   8.868  0.4978  0.1773  0.0740
  145SAPE   H7R15951   2.253   3.280   8.932 -2.4158  1.7226  0.5173
  145SAPE   H7S15952   2.283   3.312   8.770 -2.3219 -0.6532  0.6488
  145SAPE   C2815953   2.207   3.491   8.862 -0.5584 -0.1297  0.5249
  145SAPE   H8R15954   2.188   3.534   8.961 -1.2713  2.3195 -0.5901
  145SAPE   C2915955   2.167   3.566   8.758  0.4872  0.8781 -0.0813
  145SAPE   H9R15956   2.115   3.660   8.783  1.1554  0.8814  1.4049
  145SAPE  C21015957   2.198   3.544   8.609 -0.0390 -0.3496 -0.2666
  145SAPE  H10R15958   2.290   3.482   8.594  1.2158  1.0887  1.0634
  145SAPE  H10S15959   2.227   3.647   8.577 -1.6763  0.4103  0.5916
  145SAPE  C21115960   2.085   3.476   8.533 -0.4762  0.0314 -0.3112
  145SAPE  H11R15961   2.020   3.402   8.583  1.0014 -1.7885 -0.9713
  145SAPE  C21215962   2.055   3.509   8.408 -0.1446 -0.3923 -0.0964
  145SAPE  H12R15963   1.962   3.467   8.366 -0.2635 -2.4305  2.0210
  145SAPE  C21315964   2.137   3.598   8.321 -0.5498 -0.0150 -0.0677
  145SAPE  H13R15965   2.123   3.564   8.216 -1.5170 -0.2634  0.1297
  145SAPE  H13S15966   2.246   3.581   8.336 -0.1061  1.3573 -1.4547
  145SAPE  C21415967   2.128   3.746   8.334 -0.0293 -0.2191 -0.2332
  145SAPE  H14R15968   2.117   3.793   8.433  0.2903  0.1050 -0.3473
  145SAPE  C21515969   2.136   3.833   8.227  0.1659 -0.0001  0.5544
  145SAPE  H15R15970   2.134   3.941   8.250  0.3528 -0.5078  3.1974
  145SAPE  C21615971   2.150   3.786   8.082 -0.1287 -0.1458  0.2325
  145SAPE  H16R15972   2.103   3.686   8.067  0.2698 -0.4335  0.8190
  145SAPE  H16S15973   2.259   3.783   8.063 -0.0780 -0.5143  0.5462
  145SAPE  C21715974   2.086   3.888   7.994 -0.0980 -0.8747 -0.2004
  145SAPE  H17R15975   2.117   3.994   8.011 -1.6029  0.1420 -3.1865
  145SAPE  H17S15976   1.977   3.881   8.011  0.2386 -1.0572  2.3021
  145SAPE  C21815977   2.129   3.863   7.843  0.0629  0.3013 -0.8953
  145SAPE  H18R15978   2.081   3.769   7.809 -1.1899 -0.0327  1.5363
  145SAPE  H18S15979   2.239   3.855   7.833  1.0868  1.2860  5.3807
  145SAPE  C21915980   2.072   3.974   7.758  0.9462  0.3878 -0.3923
  145SAPE  H19R15981   2.127   4.067   7.785  2.0032 -0.2443 -0.3306
  145SAPE  H19S15982   1.962   3.979   7.772  0.9028  2.0256 -1.0883
  145SAPE  C22015983   2.086   3.943   7.607  0.1100  0.1709 -0.2454
  145SAPE  H20R15984   2.190   3.956   7.571  0.5426 -0.0483  0.9018
  145SAPE  H20S15985   2.013   4.007   7.551  1.0810  2.6034  1.1194
  145SAPE  H20T15986   2.065   3.837   7.583  2.3578 -0.9733  2.3339
  145SAPE   C3315987   2.445   2.912   8.854  0.5963 -1.1850 -0.9210
  145SAPE   H3X15988   2.446   2.801   8.858 -0.9474 -1.2107 -0.5726
  145SAPE   H3Y15989   2.546   2.958   8.852 -0.3550  1.0143 -2.0607
  145SAPE   C3415990   2.363   2.950   8.733 -0.5045  0.4643  0.1672
  145SAPE   H4X15991   2.360   3.061   8.727 -0.0796  0.5905  1.8900
  145SAPE   H4Y15992   2.257   2.915   8.733 -1.2026  2.4094  0.8230
  145SAPE   C3515993   2.429   2.882   8.612 -0.1686  0.5421  0.0162
  145SAPE   H5X15994   2.446   2.777   8.645 -0.4192  0.6731  0.5894
  145SAPE   H5Y15995   2.526   2.928   8.585  0.9753 -0.5569  1.9599
  145SAPE   C3615996   2.337   2.881   8.496 -0.4544 -0.3691 -0.1962
  145SAPE   H6X15997   2.321   2.983   8.455  2.3555  0.9155  1.6528
  145SAPE   H6Y15998   2.241   2.835   8.531  0.4882 -2.2922  0.0149
  145SAPE   C3715999   2.382   2.796   8.378 -0.3749  0.4371  0.4175
  145SAPE   H7X16000   2.368   2.686   8.392  0.3024  0.0962 -1.2494
  145SAPE   H7Y16001   2.493   2.800   8.368 -0.1994 -0.4541  1.7728
  145SAPE   C3816002   2.329   2.838   8.240  0.7748 -0.7417 -0.1002
  145SAPE   H8X16003   2.329   2.947   8.219 -0.8973 -0.8028 -0.6183
  145SAPE   H8Y16004   2.227   2.796   8.226 -0.0096  1.1701 -0.4407
  145SAPE   C3916005   2.410   2.770   8.129  0.2987  0.0521  0.1867
  145SAPE   H9X16006   2.518   2.796   8.136  0.3755  1.0622 -3.1651
  145SAPE   H9Y16007   2.385   2.812   8.029  1.3294  2.0094  0.6987
  145SAPE  C31016008   2.392   2.619   8.138  0.3548  0.0714  0.0971
  145SAPE  H10X16009   2.283   2.600   8.125  0.6678 -0.9281 -1.3945
  145SAPE  H10Y16010   2.431   2.569   8.229  0.2543 -0.7655 -0.3011
  145SAPE  C31116011   2.452   2.562   8.010  0.7686  0.1746 -0.4449
  145SAPE  H11X16012   2.562   2.574   8.012  0.8502 -0.5128  1.0324
  145SAPE  H11Y16013   2.416   2.609   7.916 -1.3609  1.0470  0.7350
  145SAPE  C31216014   2.433   2.414   8.007  0.0545  0.0926  0.5158
  145SAPE  H12X16015   2.326   2.386   8.004 -0.0719  0.6217 -0.5652
  145SAPE  H12Y16016   2.465   2.360   8.099  1.3457 -1.4765 -0.7805
  145SAPE  C31316017   2.509   2.347   7.891 -0.5063  0.0136  0.2943
  145SAPE  H13X16018   2.612   2.384   7.911 -0.8849  1.6010 -0.5396
  145SAPE  H13Y16019   2.479   2.394   7.796  0.0929  0.7271  0.4488
  145SAPE  C31416020   2.506   2.191   7.889 -0.1697 -0.4654 -0.3408
  145SAPE  H14X16021   2.397   2.171   7.886 -0.0900 -0.8457 -0.8475
  145SAPE  H14Y16022   2.537   2.153   7.989 -0.1532 -0.2589 -0.2674
  145SAPE  C31516023   2.561   2.124   7.771 -0.3388  0.6261 -0.0607
  145SAPE  H15X16024   2.669   2.144   7.761  0.1681 -1.8768 -0.1318
  145SAPE  H15Y16025   2.529   2.179   7.681  1.7928 -1.0949 -1.9877
  145SAPE  C31616026   2.529   1.977   7.735 -0.0681 -0.6242  0.0331
  145SAPE  H16X16027   2.426   1.955   7.770 -0.3062  0.6930  0.2231
  145SAPE  H16Y16028   2.601   1.912   7.789  0.1043  0.2008  0.8356
  145SAPE  C31716029   2.538   1.950   7.592  0.0312  0.7236  0.5667
  145SAPE  H17X16030   2.634   1.994   7.556  0.4097 -0.5156  0.0104
  145SAPE  H17Y16031   2.449   1.990   7.538 -0.4232  0.5739  1.1962
  145SAPE  C31816032   2.556   1.800   7.569  0.0960 -0.1600 -0.4472
  145SAPE  H18X16033   2.592   1.782   7.465 -1.2580 -2.9521 -0.5228
  145SAPE  H18Y16034   2.463   1.744   7.589  0.8267 -0.7008  1.7382
  145SAPE  H18Z16035   2.632   1.752   7.634  0.6260 -0.9219 -1.5938
  146SAPE     N16036   2.198   2.227   9.516  0.2079 -0.2616  0.0766
  146SAPE   HN116037   2.233   2.319   9.550 -0.5597  0.4437 -1.0129
  146SAPE   HN216038   2.152   2.239   9.424  1.3897  1.0732 -0.3784
  146SAPE   HN316039   2.124   2.203   9.585  0.0725 -2.6512 -0.7942
  146SAPE   C1216040   2.286   2.111   9.530  0.0423  0.0520 -0.2129
  146SAPE  H12A16041   2.387   2.151   9.508 -0.6591  1.5151 -0.9252
  146SAPE  H12B16042   2.272   2.035   9.451  1.3684 -0.6317  0.1791
  146SAPE   C1116043   2.276   2.062   9.673 -0.0273 -0.0557  0.3700
  146SAPE  H11A16044   2.351   1.984   9.700 -1.4882 -1.4590  0.5179
  146SAPE  H11B16045   2.180   2.006   9.675 -1.5843  2.4553  0.0854
  146SAPE     P16046   2.163   2.191   9.875 -0.0436 -0.0635  0.0950
  146SAPE   O1316047   2.140   2.073   9.957 -0.2564 -0.8607  0.2315
  146SAPE   O1416048   2.186   2.314   9.958  0.2518  0.0098  0.1064
  146SAPE   O1216049   2.287   2.157   9.776  0.2429 -0.1063 -0.6208
  146SAPE   O1116050   2.052   2.211   9.764 -0.5425 -0.2860  0.5798
  146SAPE    C116051   1.994   2.341   9.730  0.2511  0.1573 -0.0482
  146SAPE    HA16052   1.946   2.386   9.820  0.5804 -2.7908  1.7306
  146SAPE    HB16053   2.067   2.415   9.692  1.5536 -0.5868  0.9254
  146SAPE    C216054   1.881   2.336   9.624 -0.9747  0.2788  0.6292
  146SAPE    HS16055   1.796   2.331   9.696 -0.2149 -0.3361  1.5100
  146SAPE   O2116056   1.915   2.218   9.542  0.2211  0.2212  0.0197
  146SAPE   C2116057   1.811   2.132   9.534 -0.4081  0.2509 -0.0401
  146SAPE   O2216058   1.699   2.149   9.572  0.0069 -0.7800 -0.4721
  146SAPE   C2216059   1.853   2.015   9.446 -0.0294 -0.3040  0.1634
  146SAPE   H2R16060   1.947   2.038   9.392  0.3396  1.1524  1.3593
  146SAPE   H2S16061   1.880   1.931   9.513  4.7578  1.2781  0.5659
  146SAPE    C316062   1.880   2.462   9.534  0.2456 -0.2246 -0.4890
  146SAPE    HX16063   1.843   2.545   9.597 -0.0124 -1.6870  1.3878
  146SAPE    HY16064   1.810   2.443   9.450  0.3317 -2.6195 -0.1022
  146SAPE   O3116065   2.010   2.506   9.492 -0.1433 -0.2762  0.3024
  146SAPE   C3116066   1.997   2.612   9.416 -0.2925 -0.0911  0.0352
  146SAPE   O3216067   1.896   2.677   9.397  0.4876 -0.2963 -0.4114
  146SAPE   C3216068   2.141   2.643   9.365 -0.0271 -0.5011 -0.8343
  146SAPE   H2X16069   2.215   2.560   9.372  3.4494  2.5156  1.2610
  146SAPE   H2Y16070   2.163   2.737   9.420 -3.5472  0.6641 -1.1410
  146SAPE   C2316071   1.744   1.971   9.336  0.7622  0.2108 -1.0904
  146SAPE   H3R16072   1.735   2.052   9.260  1.5509  0.9169 -0.4571
  146SAPE   H3S16073   1.643   1.967   9.383  1.1468  2.1176 -0.0074
  146SAPE   C2416074   1.785   1.838   9.280 -0.2148 -0.3849 -0.2126
  146SAPE   H4R16075   1.693   1.786   9.245 -0.0595 -0.6964 -0.1593
  146SAPE   H4S16076   1.817   1.760   9.352  0.0944 -0.9704 -0.9672
  146SAPE   C2516077   1.889   1.863   9.171  1.0857  0.3670 -0.4291
  146SAPE   H5R16078   1.973   1.926   9.205  1.2333 -0.1769  0.2316
  146SAPE   C2616079   1.897   1.813   9.045  0.5145 -0.6266 -0.1682
  146SAPE   H6R16080   1.986   1.835   8.984  1.5569 -0.8063  1.2249
  146SAPE   C2716081   1.803   1.699   8.994 -0.3015  0.0748  0.1185
  146SAPE   H7R16082   1.780   1.717   8.887 -1.6341 -0.2401  0.3345
  146SAPE   H7S16083   1.706   1.692   9.049 -0.0996  0.7501  0.5667
  146SAPE   C2816084   1.875   1.565   9.009 -0.5296 -0.0569 -0.9665
  146SAPE   H8R16085   1.904   1.539   9.112 -0.6033 -0.2871 -1.0044
  146SAPE   C2916086   1.924   1.496   8.907 -0.4268  0.0682  0.9657
  146SAPE   H9R16087   1.992   1.412   8.930 -1.3027 -1.4058 -1.4433
  146SAPE  C21016088   1.914   1.526   8.760  0.5839 -0.3150 -0.0124
  146SAPE  H10R16089   1.993   1.603   8.746 -0.8997  1.3828  0.5177
  146SAPE  H10S16090   1.822   1.585   8.741 -1.0877 -1.9997  2.2891
  146SAPE  C21116091   1.933   1.422   8.656 -0.4706  0.2612 -0.2453
  146SAPE  H11R16092   1.923   1.319   8.693 -1.0336  0.4287  0.0842
  146SAPE  C21216093   1.954   1.431   8.521 -0.1788 -0.5771 -0.2381
  146SAPE  H12R16094   1.961   1.342   8.456 -2.0008  1.1121 -2.9581
  146SAPE  C21316095   1.959   1.563   8.445 -0.2857 -0.2657  0.5439
  146SAPE  H13R16096   2.021   1.553   8.353 -1.2193 -0.9568 -0.0233
  146SAPE  H13S16097   2.012   1.647   8.495  0.6661  0.9611 -2.2992
  146SAPE  C21416098   1.829   1.627   8.413 -0.9962  0.3374 -0.2624
  146SAPE  H14R16099   1.745   1.577   8.465 -0.4747  0.9802  1.2528
  146SAPE  C21516100   1.815   1.745   8.360  0.6697 -0.1938 -0.5524
  146SAPE  H15R16101   1.711   1.776   8.343 -0.2873 -3.2588 -0.9421
  146SAPE  C21616102   1.932   1.834   8.313 -0.0090  0.5279  0.3727
  146SAPE  H16R16103   2.016   1.772   8.274  0.1377  1.3090 -0.5959
  146SAPE  H16S16104   1.964   1.909   8.388  0.8368  0.7843 -0.2227
  146SAPE  C21716105   1.897   1.902   8.182 -0.3043  0.1150 -0.2606
  146SAPE  H17R16106   1.807   1.961   8.211 -0.1348  1.2580 -1.9236
  146SAPE  H17S16107   1.881   1.822   8.107  0.4140  0.4598 -0.7910
  146SAPE  C21816108   2.009   2.005   8.146  0.1379  0.3851 -0.0020
  146SAPE  H18R16109   2.109   1.967   8.175 -0.4259 -2.2824 -1.2178
  146SAPE  H18S16110   1.994   2.100   8.201  0.1960 -0.6053  1.8021
  146SAPE  C21916111   2.021   2.045   7.999  0.6479  0.7043 -0.3483
  146SAPE  H19R16112   1.943   2.116   7.967  0.0598  0.5900  0.7812
  146SAPE  H19S16113   2.021   1.956   7.932  0.7950  0.8597 -0.5548
  146SAPE  C22016114   2.153   2.119   7.974 -0.3733  0.6174  0.6327
  146SAPE  H20R16115   2.238   2.057   8.010 -0.5829 -0.5341 -0.7628
  146SAPE  H20S16116   2.155   2.208   8.040 -0.6846  0.8142  0.3785
  146SAPE  H20T16117   2.167   2.144   7.867  2.1476  0.6279  0.9012
  146SAPE   C3316118   2.146   2.694   9.218  0.7179  0.9665 -0.5414
  146SAPE   H3X16119   2.253   2.690   9.189  0.7293 -2.1593 -0.3599
  146SAPE   H3Y16120   2.108   2.798   9.211  1.4588  1.4962  2.2957
  146SAPE   C3416121   2.067   2.597   9.121 -0.9051 -0.0483 -0.1957
  146SAPE   H4X16122   1.975   2.647   9.085  0.2932  2.4672  0.0224
  146SAPE   H4Y16123   2.038   2.507   9.178 -0.3598  0.4299  0.8786
  146SAPE   C3516124   2.156   2.561   9.004  1.0106  0.0702 -1.1018
  146SAPE   H5X16125   2.239   2.501   9.046 -1.0850 -3.7291 -1.9505
  146SAPE   H5Y16126   2.186   2.656   8.954  0.6508  0.5112 -0.4968
  146SAPE   C3616127   2.093   2.481   8.903 -1.0183 -0.1712  0.4232
  146SAPE   H6X16128   2.009   2.535   8.854 -1.6142 -2.2433 -0.9515
  146SAPE   H6Y16129   2.048   2.395   8.956 -0.6972 -0.6264 -0.0372
  146SAPE   C3716130   2.180   2.411   8.791 -0.1645  0.7783 -0.0917
  146SAPE   H7X16131   2.224   2.497   8.735  1.3420 -0.8928 -1.6284
  146SAPE   H7Y16132   2.118   2.342   8.729  0.6513 -0.3615  0.3322
  146SAPE   C3816133   2.307   2.331   8.846 -0.2322  0.2540 -0.2980
  146SAPE   H8X16134   2.258   2.251   8.905  0.1968  0.0754 -0.1883
  146SAPE   H8Y16135   2.378   2.391   8.907  1.7916 -0.2857 -1.9978
  146SAPE   C3916136   2.400   2.257   8.740  0.0413  0.2089  0.5814
  146SAPE   H9X16137   2.330   2.189   8.687  0.6923  0.2361 -0.3304
  146SAPE   H9Y16138   2.474   2.201   8.801 -0.1130 -0.5825  0.0644
  146SAPE  C31016139   2.444   2.346   8.623 -0.4317 -0.0681 -0.4532
  146SAPE  H10X16140   2.489   2.438   8.666  0.2541  0.1280 -1.5730
  146SAPE  H10Y16141   2.359   2.362   8.553 -1.8855 -1.0445  0.9884
  146SAPE  C31116142   2.558   2.278   8.549 -0.0519 -0.6042 -0.2435
  146SAPE  H11X16143   2.523   2.174   8.530  0.6037 -1.0180  0.6767
  146SAPE  H11Y16144   2.656   2.265   8.600  0.0206 -0.1060 -0.2573
  146SAPE  C31216145   2.599   2.350   8.420  0.2511  1.1109  1.0124
  146SAPE  H12X16146   2.606   2.458   8.448 -1.7201  1.4800  0.2109
  146SAPE  H12Y16147   2.528   2.318   8.342 -0.0623  2.3912  0.7445
  146SAPE  C31316148   2.738   2.312   8.364 -0.2692 -0.0582  0.1671
  146SAPE  H13X16149   2.758   2.205   8.342  2.3431  0.1569  1.0882
  146SAPE  H13Y16150   2.817   2.343   8.436  0.1046  1.1916 -0.7531
  146SAPE  C31416151   2.772   2.398   8.240  0.6374 -0.6308 -0.5898
  146SAPE  H14X16152   2.757   2.506   8.262  1.9918 -0.1701 -1.8066
  146SAPE  H14Y16153   2.704   2.387   8.153 -2.2980 -0.4963  1.4996
  146SAPE  C31516154   2.918   2.387   8.205 -0.8932  0.3105  0.1378
  146SAPE  H15X16155   2.939   2.278   8.191  1.6768  0.8150 -0.4226
  146SAPE  H15Y16156   2.987   2.423   8.285  0.1834  0.8488 -0.9893
  146SAPE  C31616157   2.952   2.453   8.073  0.4083  0.0881  0.1962
  146SAPE  H16X16158   2.944   2.564   8.079 -0.5805  0.0117  0.3646
  146SAPE  H16Y16159   2.882   2.416   7.995  0.1272 -1.8740  1.3184
  146SAPE  C31716160   3.084   2.396   8.018  0.0714 -0.4010  0.5672
  146SAPE  H17X16161   3.092   2.285   8.010 -0.3649 -0.3207 -1.4617
  146SAPE  H17Y16162   3.170   2.425   8.082  1.4884 -1.6537 -0.6633
  146SAPE  C31816163   3.106   2.444   7.870 -0.0232  0.9267  0.2371
  146SAPE  H18X16164   3.207   2.422   7.829 -0.3210 -1.3480  0.5789
  146SAPE  H18Y16165   3.073   2.550   7.877 -0.9471  0.5830  1.4967
  146SAPE  H18Z16166   3.035   2.390   7.803  0.6225  0.9241 -0.4685
  147SAPE     N16167   4.450   5.911   9.839  0.0830 -0.0819 -0.0450
  147SAPE   HN116168   4.426   5.831   9.777 -0.5204 -0.7443  1.0211
  147SAPE   HN216169   4.431   5.879   9.936 -0.2174 -0.7797 -0.3254
  147SAPE   HN316170   4.385   5.990   9.818  1.3649  1.5143  1.7490
  147SAPE   C1216171   4.591   5.955   9.816 -0.3834  1.0463 -0.2715
  147SAPE  H12A16172   4.650   5.861   9.812  0.6841  1.5411  1.7995
  147SAPE  H12B16173   4.626   6.016   9.903 -0.9049  0.5820  0.2680
  147SAPE   C1116174   4.594   6.030   9.681 -0.4651  0.4234  0.6212
  147SAPE  H11A16175   4.548   5.963   9.605  0.9105 -1.4754  1.3672
  147SAPE  H11B16176   4.695   6.058   9.644 -0.4729 -0.3634 -0.0246
  147SAPE     P16177   4.513   6.243   9.561 -0.5989 -0.0805 -0.0213
  147SAPE   O1316178   4.396   6.338   9.578 -0.2503 -0.0177  0.0074
  147SAPE   O1416179   4.648   6.291   9.539  0.8071 -0.8023  0.7277
  147SAPE   O1216180   4.519   6.144   9.682 -0.3019  0.1490  0.1359
  147SAPE   O1116181   4.487   6.133   9.449 -0.1250 -0.4122 -0.3454
  147SAPE    C116182   4.357   6.087   9.439  0.6946 -0.3165 -0.6645
  147SAPE    HA16183   4.312   6.061   9.537  0.0320 -2.8624 -1.5733
  147SAPE    HB16184   4.291   6.163   9.393 -0.1335 -0.2331  0.6249
  147SAPE    C216185   4.365   5.963   9.348 -0.6289  0.6035  0.2165
  147SAPE    HS16186   4.445   5.894   9.384 -1.0903  0.8592  1.8436
  147SAPE   O2116187   4.401   6.012   9.215 -0.0650 -0.4545 -0.0980
  147SAPE   C2116188   4.417   5.917   9.120 -0.6974  0.2876 -0.2186
  147SAPE   O2216189   4.425   5.797   9.140  0.1541 -0.4480 -0.1124
  147SAPE   C2216190   4.451   5.991   8.988  0.0828 -0.4596  0.1214
  147SAPE   H2R16191   4.356   6.032   8.948  0.9192 -0.0092 -1.4983
  147SAPE   H2S16192   4.518   6.077   9.014  1.0360 -0.5529 -1.8561
  147SAPE    C316193   4.226   5.887   9.348 -0.5590 -0.1940  0.2257
  147SAPE    HX16194   4.205   5.871   9.456  0.0906  1.6618  0.6734
  147SAPE    HY16195   4.245   5.788   9.302  1.2646  0.3084 -0.1918
  147SAPE   O3116196   4.120   5.954   9.274  0.0864  0.7932 -0.4049
  147SAPE   C3116197   4.018   5.998   9.343 -0.2811  0.7864 -0.2848
  147SAPE   O3216198   3.994   5.982   9.458 -0.6335 -0.2149 -0.1524
  147SAPE   C3216199   3.931   6.093   9.259 -0.0936 -0.0778  0.0314
  147SAPE   H2X16200   3.968   6.195   9.281 -1.8156  0.8978 -1.3728
  147SAPE   H2Y16201   3.830   6.091   9.305 -0.3597 -0.5382 -0.5610
  147SAPE   C2316202   4.522   5.897   8.880  0.2176 -0.1282 -0.5497
  147SAPE   H3R16203   4.467   5.802   8.894  1.2286 -0.9533 -1.8920
  147SAPE   H3S16204   4.627   5.870   8.903  0.2401 -0.0997 -0.6192
  147SAPE   C2416205   4.528   5.951   8.736  0.2730  0.3611 -0.4953
  147SAPE   H4R16206   4.613   6.022   8.730 -0.9615  1.9945  0.1809
  147SAPE   H4S16207   4.437   6.014   8.718  0.2229  0.1179 -1.0926
  147SAPE   C2516208   4.559   5.835   8.642  0.2195  0.0328  0.1520
  147SAPE   H5R16209   4.647   5.774   8.667 -0.0942  0.2578  1.9107
  147SAPE   C2616210   4.484   5.793   8.538  0.2040 -0.0616  0.3701
  147SAPE   H6R16211   4.515   5.713   8.469 -2.5262 -0.7375 -0.1784
  147SAPE   C2716212   4.360   5.853   8.481 -0.0266  0.4612 -0.4081
  147SAPE   H7R16213   4.335   5.793   8.390 -2.9181 -0.6270  0.9722
  147SAPE   H7S16214   4.377   5.955   8.440 -0.2080 -0.5523 -3.2520
  147SAPE   C2816215   4.248   5.862   8.586  0.2230  0.5160  0.4025
  147SAPE   H8R16216   4.273   5.881   8.691 -0.7563 -0.3032  0.8009
  147SAPE   C2916217   4.118   5.855   8.551 -0.3145 -0.1187 -0.2018
  147SAPE   H9R16218   4.044   5.865   8.632 -0.3203  1.1028 -0.3428
  147SAPE  C21016219   4.055   5.833   8.415  0.2853 -0.1558 -0.2327
  147SAPE  H10R16220   3.961   5.775   8.421 -1.8794  3.1442  0.3665
  147SAPE  H10S16221   4.122   5.774   8.349 -1.1203 -1.2262 -0.7488
  147SAPE  C21116222   4.022   5.959   8.341 -0.1959  0.3628 -0.2862
  147SAPE  H11R16223   4.013   6.048   8.405  1.5168 -0.4294  1.1540
  147SAPE  C21216224   4.035   5.987   8.209 -0.0124  0.3661 -0.1582
  147SAPE  H12R16225   3.981   6.075   8.171  0.3424  0.4000 -0.5891
  147SAPE  C21316226   4.078   5.882   8.107  0.2212 -0.4198 -0.2396
  147SAPE  H13R16227   4.023   5.881   8.010  1.6097  0.0360 -1.0521
  147SAPE  H13S16228   4.070   5.780   8.150 -2.5853  0.4097  1.4703
  147SAPE  C21416229   4.222   5.930   8.071 -0.5254  0.1813 -0.4246
  147SAPE  H14R16230   4.248   6.035   8.089 -0.9661  0.0091  1.3874
  147SAPE  C21516231   4.326   5.844   8.034  0.8004 -0.7344  0.0880
  147SAPE  H15R16232   4.420   5.887   7.999  0.8268  2.1858  3.2262
  147SAPE  C21616233   4.324   5.695   8.015 -0.3621  0.4116  0.1625
  147SAPE  H16R16234   4.394   5.656   7.938  1.7423  1.0798  1.6592
  147SAPE  H16S16235   4.230   5.651   7.975  0.4921 -0.3536 -1.0773
  147SAPE  C21716236   4.358   5.608   8.142 -0.0277 -0.4952 -0.1201
  147SAPE  H17R16237   4.283   5.618   8.224  0.6595  0.8360  0.3785
  147SAPE  H17S16238   4.456   5.639   8.184  1.0015 -3.4712 -0.0827
  147SAPE  C21816239   4.391   5.461   8.102 -0.1285 -0.2801 -0.4798
  147SAPE  H18R16240   4.484   5.458   8.042 -0.0777 -0.6698 -0.3796
  147SAPE  H18S16241   4.306   5.423   8.042  2.3357 -1.8463 -3.2105
  147SAPE  C21916242   4.401   5.366   8.227  0.3909 -0.1824  0.0528
  147SAPE  H19R16243   4.299   5.347   8.268 -0.1767  1.9193 -0.2332
  147SAPE  H19S16244   4.467   5.422   8.297  0.6441 -0.6999  0.2287
  147SAPE  C22016245   4.459   5.234   8.184  0.0661  0.1068  0.3818
  147SAPE  H20R16246   4.457   5.170   8.275 -0.6635 -0.4141  0.0092
  147SAPE  H20S16247   4.566   5.231   8.154  0.0388 -1.0318  0.3714
  147SAPE  H20T16248   4.412   5.179   8.100  0.0961  0.2207  0.2899
  147SAPE   C3316249   3.927   6.077   9.105  0.0950 -0.0723  0.6141
  147SAPE   H3X16250   3.843   6.128   9.053  0.3652 -1.3270 -1.1442
  147SAPE   H3Y16251   3.926   5.970   9.073  1.2564  0.2043 -0.4182
  147SAPE   C3416252   4.061   6.129   9.033 -0.5268 -0.6861  0.8191
  147SAPE   H4X16253   4.157   6.083   9.067  0.5529 -0.1580 -1.3013
  147SAPE   H4Y16254   4.068   6.237   9.058  0.0931 -0.3029 -0.8503
  147SAPE   C3516255   4.060   6.107   8.880 -0.0511 -0.0164 -1.1002
  147SAPE   H5X16256   4.022   6.003   8.869 -1.1279 -0.0765  2.1427
  147SAPE   H5Y16257   4.155   6.116   8.823 -0.9019  2.8979 -2.2263
  147SAPE   C3616258   3.955   6.190   8.811  0.5887 -0.2620 -0.5379
  147SAPE   H6X16259   3.976   6.295   8.840  0.4895 -0.9553  2.3654
  147SAPE   H6Y16260   3.852   6.162   8.842  1.3884 -1.2299  1.3992
  147SAPE   C3716261   3.959   6.174   8.661  0.1281  0.3387 -0.2363
  147SAPE   H7X16262   3.935   6.069   8.635 -0.8703  0.7506 -1.1024
  147SAPE   H7Y16263   4.061   6.204   8.631  0.3284 -1.5749 -1.6350
  147SAPE   C3816264   3.854   6.260   8.587  0.2041 -0.2259 -0.1625
  147SAPE   H8X16265   3.862   6.362   8.629  0.9130 -0.2389 -0.2552
  147SAPE   H8Y16266   3.752   6.226   8.614 -0.5587  0.9661 -1.3836
  147SAPE   C3916267   3.846   6.264   8.439 -0.2173 -0.4764  0.1427
  147SAPE   H9X16268   3.828   6.162   8.398  1.7337 -0.4796 -0.8418
  147SAPE   H9Y16269   3.944   6.297   8.399 -1.3024  0.9066 -1.5042
  147SAPE  C31016270   3.734   6.350   8.380  0.9971 -0.3191 -0.3268
  147SAPE  H10X16271   3.764   6.450   8.418  0.2757  0.0783 -0.7713
  147SAPE  H10Y16272   3.635   6.312   8.411  1.8775 -2.8801 -0.4105
  147SAPE  C31116273   3.749   6.354   8.226  0.4122  0.3803  0.1426
  147SAPE  H11X16274   3.668   6.421   8.189 -0.5219 -0.3893  0.7731
  147SAPE  H11Y16275   3.720   6.251   8.198 -0.5023 -0.1553  2.8318
  147SAPE  C31216276   3.880   6.402   8.169 -0.0684  0.0832  0.4425
  147SAPE  H12X16277   3.946   6.317   8.198 -2.2036 -1.5509  0.8694
  147SAPE  H12Y16278   3.901   6.499   8.218 -2.7093  0.6454  0.5934
  147SAPE  C31316279   3.881   6.422   8.015  0.3754  0.1708 -0.0221
  147SAPE  H13X16280   3.964   6.494   8.001  1.2243 -0.1582  2.7535
  147SAPE  H13Y16281   3.789   6.473   7.980  0.2380  0.3444  0.5870
  147SAPE  C31416282   3.904   6.289   7.942  0.3216 -0.3100  1.7247
  147SAPE  H14X16283   3.861   6.293   7.840 -1.9620  0.8751  2.6652
  147SAPE  H14Y16284   3.857   6.208   8.001 -1.7544 -0.1603  0.3840
  147SAPE  C31516285   4.055   6.269   7.917  0.9903 -0.0137 -0.3719
  147SAPE  H15X16286   4.077   6.162   7.901 -0.5107 -0.5916  1.1432
  147SAPE  H15Y16287   4.104   6.300   8.012  3.2473 -2.2594 -0.6974
  147SAPE  C31616288   4.102   6.356   7.801  0.7916  0.6210 -1.0954
  147SAPE  H16X16289   4.108   6.466   7.818  2.1537  0.5618 -1.0929
  147SAPE  H16Y16290   4.028   6.340   7.720 -1.3211  0.7604  0.6971
  147SAPE  C31716291   4.247   6.323   7.765 -0.0370 -0.8281 -0.5234
  147SAPE  H17X16292   4.268   6.219   7.731 -0.7071 -1.2888  0.4031
  147SAPE  H17Y16293   4.318   6.335   7.849  0.6504 -0.8071 -1.0999
  147SAPE  C31816294   4.298   6.413   7.656  0.8520 -0.4076 -0.2581
  147SAPE  H18X16295   4.407   6.430   7.668  1.0193 -0.5901 -1.4453
  147SAPE  H18Y16296   4.259   6.517   7.665 -1.2699 -1.0143 -1.6569
  147SAPE  H18Z16297   4.270   6.376   7.555 -1.3922 -0.4905  0.3467
  148SAPE     N16298   3.348   0.816   9.937  0.2379  0.4095 -0.0870
  148SAPE   HN116299   3.247   0.804   9.919 -0.2434  1.4884  1.6195
  148SAPE   HN216300   3.394   0.795   9.846  0.6724 -2.1232  0.6312
  148SAPE   HN316301   3.381   0.738   9.998  0.8262 -0.6044 -1.6540
  148SAPE   C1216302   3.383   0.949   9.988 -0.1065 -0.2301  0.0930
  148SAPE  H12A16303   3.492   0.946  10.009  0.1705 -0.5243 -1.3201
  148SAPE  H12B16304   3.329   0.955  10.085  0.3895 -1.0522  0.4449
  148SAPE   C1116305   3.346   1.050   9.888  0.3056  0.7509 -0.2391
  148SAPE  H11A16306   3.369   1.152   9.926 -0.4487  0.3101  1.5373
  148SAPE  H11B16307   3.236   1.045   9.869  0.5304 -1.6995 -1.3265
  148SAPE     P16308   3.569   1.027   9.752  0.2608  0.0768  0.4297
  148SAPE   O1316309   3.624   1.137   9.839  0.2197  0.5574  0.2698
  148SAPE   O1416310   3.613   0.887   9.775 -0.5012  0.0049  0.4106
  148SAPE   O1216311   3.411   1.022   9.761 -0.1604 -0.0443 -1.1410
  148SAPE   O1116312   3.595   1.048   9.595  0.2072 -0.4360 -0.3722
  148SAPE    C116313   3.500   1.107   9.511 -0.2243 -0.5736 -0.1041
  148SAPE    HA16314   3.445   1.192   9.556  1.3888  0.4116  0.0701
  148SAPE    HB16315   3.558   1.158   9.431 -0.1904 -2.2728 -1.2141
  148SAPE    C216316   3.398   1.006   9.441  0.4574  0.1440  0.4878
  148SAPE    HS16317   3.336   0.960   9.522 -0.9355 -2.8500 -2.0678
  148SAPE   O2116318   3.478   0.907   9.364  0.3301 -0.4877 -0.0145
  148SAPE   C2116319   3.417   0.802   9.315  0.5238  0.4204 -0.5017
  148SAPE   O2216320   3.297   0.776   9.336  0.3439 -0.0141  0.2600
  148SAPE   C2216321   3.511   0.702   9.244  0.4185  0.3023 -0.0987
  148SAPE   H2R16322   3.599   0.760   9.206  1.4166 -0.3394  1.1574
  148SAPE   H2S16323   3.553   0.627   9.314  3.4210  1.4444 -0.5009
  148SAPE    C316324   3.276   1.078   9.356 -0.0360 -0.2818 -0.5532
  148SAPE    HX16325   3.217   1.148   9.418 -0.8228 -0.1877 -1.3854
  148SAPE    HY16326   3.202   1.004   9.320  0.9721 -1.8082  0.4054
  148SAPE   O3116327   3.325   1.152   9.244 -0.3621 -0.6446 -0.0815
  148SAPE   C3116328   3.366   1.278   9.268  0.0641 -0.4172 -0.0908
  148SAPE   O3216329   3.349   1.332   9.376 -0.3768  0.0188 -0.0457
  148SAPE   C3216330   3.402   1.347   9.133  0.4742  0.0666 -0.2075
  148SAPE   H2X16331   3.409   1.273   9.050  1.7630  0.2275 -0.2641
  148SAPE   H2Y16332   3.500   1.399   9.144  0.2835  0.1881  1.0390
  148SAPE   C2316333   3.433   0.631   9.128 -0.3431 -0.1823  0.1866
  148SAPE   H3R16334   3.333   0.610   9.171 -0.2134  2.2298  1.8157
  148SAPE   H3S16335   3.492   0.539   9.108  0.6647 -0.4638  3.7667
  148SAPE   C2416336   3.441   0.705   8.990  0.0330  0.1042 -0.0822
  148SAPE   H4R16337   3.386   0.641   8.918 -2.5795 -0.3189  2.1141
  148SAPE   H4S16338   3.546   0.717   8.955  0.1100 -1.5583 -0.5201
  148SAPE   C2516339   3.376   0.843   8.995  0.2784  0.0132  0.5566
  148SAPE   H5R16340   3.321   0.863   9.087  0.9906 -0.1767  1.0337
  148SAPE   C2616341   3.379   0.931   8.894 -0.2578 -0.1808  0.4018
  148SAPE   H6R16342   3.326   1.028   8.899  0.0648  0.2008 -2.0412
  148SAPE   C2716343   3.446   0.913   8.759  0.5081 -0.1327  0.2077
  148SAPE   H7R16344   3.360   0.891   8.692 -0.2409  0.2426  1.0257
  148SAPE   H7S16345   3.514   0.825   8.760  1.4361  0.5624  0.0217
  148SAPE   C2816346   3.527   1.032   8.721 -0.5676  0.1489  0.8103
  148SAPE   H8R16347   3.623   1.037   8.776  1.0191  1.2876 -1.8776
  148SAPE   C2916348   3.501   1.121   8.626  0.1498 -0.2989 -0.3272
  148SAPE   H9R16349   3.564   1.211   8.623  1.5401 -1.1864  0.9323
  148SAPE  C21016350   3.385   1.138   8.534 -0.5976 -0.1662 -0.5905
  148SAPE  H10R16351   3.369   1.029   8.516 -0.9276 -0.8266  3.0234
  148SAPE  H10S16352   3.421   1.205   8.453  2.7938 -0.0430  0.8376
  148SAPE  C21116353   3.257   1.200   8.583  0.0545  0.3366  0.0178
  148SAPE  H11R16354   3.260   1.248   8.681  0.5188 -0.5366  0.4429
  148SAPE  C21216355   3.135   1.185   8.526 -0.3204 -0.4372  0.5556
  148SAPE  H12R16356   3.050   1.237   8.573 -1.7998  1.2163 -3.5321
  148SAPE  C21316357   3.117   1.122   8.394  0.2765 -0.2609 -0.0447
  148SAPE  H13R16358   3.209   1.125   8.332  0.2376 -2.6490 -0.3296
  148SAPE  H13S16359   3.034   1.168   8.337 -0.8065 -0.7318  1.1083
  148SAPE  C21416360   3.082   0.977   8.411  0.5935 -0.2944 -0.2615
  148SAPE  H14R16361   3.097   0.926   8.508 -0.1478  2.1841  1.2600
  148SAPE  C21516362   3.051   0.901   8.303  0.0025 -0.7170  0.0619
  148SAPE  H15R16363   3.043   0.792   8.318 -0.6774 -0.4879  1.7034
  148SAPE  C21616364   3.046   0.945   8.164  0.4111 -0.9302 -0.3068
  148SAPE  H16R16365   3.137   0.940   8.101  0.6000  0.9341 -0.2239
  148SAPE  H16S16366   3.013   1.050   8.172  1.1336 -0.8591  3.0117
  148SAPE  C21716367   2.922   0.867   8.096 -0.9102 -0.5894 -0.2336
  148SAPE  H17R16368   2.840   0.897   8.165  0.0889  1.5253  0.1315
  148SAPE  H17S16369   2.944   0.760   8.115  0.8816  0.1786  2.7743
  148SAPE  C21816370   2.918   0.887   7.945  0.7333  0.4025 -0.0526
  148SAPE  H18R16371   2.874   0.793   7.904  1.1350  1.3801 -2.9516
  148SAPE  H18S16372   3.019   0.898   7.900 -0.0828  0.5822 -1.9455
  148SAPE  C21916373   2.816   0.994   7.904 -0.8478 -0.6331  0.0335
  148SAPE  H19R16374   2.867   1.091   7.922  0.3101 -0.4655 -3.5326
  148SAPE  H19S16375   2.717   0.992   7.954 -1.0950  1.9541 -0.2270
  148SAPE  C22016376   2.789   1.002   7.754 -0.4545  0.3526 -0.3249
  148SAPE  H20R16377   2.713   0.925   7.729 -0.1949 -0.3319  0.9113
  148SAPE  H20S16378   2.881   0.996   7.693 -0.6377 -1.0710 -0.4903
  148SAPE  H20T16379   2.753   1.104   7.729 -2.3321  0.0602  0.9210
  148SAPE   C3316380   3.287   1.450   9.096 -0.4790 -0.0887  0.3205
  148SAPE   H3X16381   3.281   1.530   9.172 -1.0305  1.2734 -1.0890
  148SAPE   H3Y16382   3.191   1.393   9.102 -0.7082  0.2655  0.0442
  148SAPE   C3416383   3.310   1.502   8.956 -0.0767 -0.5070 -0.0417
  148SAPE   H4X16384   3.323   1.416   8.886 -3.1622 -0.3612 -0.9160
  148SAPE   H4Y16385   3.402   1.562   8.969  0.0205 -0.9443  1.4722
  148SAPE   C3516386   3.204   1.588   8.882  0.1714  0.4860  0.1783
  148SAPE   H5X16387   3.162   1.659   8.956 -2.2654  0.1899 -0.8473
  148SAPE   H5Y16388   3.125   1.522   8.841  1.2996 -0.8668  0.1006
  148SAPE   C3616389   3.261   1.665   8.755 -0.5528  0.0214 -0.1042
  148SAPE   H6X16390   3.358   1.710   8.784 -0.6756 -1.3159  2.7258
  148SAPE   H6Y16391   3.183   1.741   8.735 -1.0280 -0.6614 -0.9735
  148SAPE   C3716392   3.264   1.579   8.630 -0.2594  0.0962  0.4672
  148SAPE   H7X16393   3.162   1.539   8.611 -0.6509  1.0140  0.6109
  148SAPE   H7Y16394   3.321   1.488   8.656 -1.8466 -1.9432 -2.5241
  148SAPE   C3816395   3.305   1.646   8.493  0.2296  0.0927 -0.2868
  148SAPE   H8X16396   3.408   1.676   8.520  0.7529 -1.4947 -0.3987
  148SAPE   H8Y16397   3.240   1.732   8.467 -1.3848 -1.0744 -0.2620
  148SAPE   C3916398   3.308   1.549   8.375  0.3136  0.5919 -0.2043
  148SAPE   H9X16399   3.212   1.495   8.367  1.0198 -0.6919 -0.2583
  148SAPE   H9Y16400   3.384   1.470   8.394 -1.0567 -0.1546  2.7552
  148SAPE  C31016401   3.343   1.620   8.250  0.2273 -0.2467 -0.6210
  148SAPE  H10X16402   3.440   1.672   8.269 -0.2909  0.0771  1.4042
  148SAPE  H10Y16403   3.268   1.699   8.231 -0.7339 -0.5012  1.7772
  148SAPE  C31116404   3.356   1.521   8.137  0.4581  0.1883  0.1837
  148SAPE  H11X16405   3.267   1.455   8.133  1.2235 -1.0571  2.3839
  148SAPE  H11Y16406   3.439   1.450   8.154  0.7475  0.4901  0.0491
  148SAPE  C31216407   3.391   1.578   7.997 -0.0498  0.2311  0.2756
  148SAPE  H12X16408   3.456   1.667   8.008 -2.4067  2.4540 -2.3862
  148SAPE  H12Y16409   3.304   1.633   7.956 -0.7897  0.6585  2.3169
  148SAPE  C31316410   3.424   1.475   7.892 -0.2789 -0.5907 -0.6364
  148SAPE  H13X16411   3.341   1.401   7.890 -1.0184  0.0542  2.0667
  148SAPE  H13Y16412   3.518   1.423   7.922  0.3117  0.8110  0.0415
  148SAPE  C31416413   3.436   1.540   7.751  0.4242 -0.1904 -0.0601
  148SAPE  H14X16414   3.497   1.633   7.759  1.5574 -0.7734 -1.5204
  148SAPE  H14Y16415   3.337   1.569   7.710  0.4038  1.0942  0.8196
  148SAPE  C31516416   3.509   1.449   7.659  0.4955  0.0972 -0.3713
  148SAPE  H15X16417   3.452   1.354   7.650 -2.6950  1.7413  0.8859
  148SAPE  H15Y16418   3.612   1.430   7.694  0.1684 -0.3850  0.3501
  148SAPE  C31616419   3.511   1.526   7.525  1.0945  0.0990 -0.3506
  148SAPE  H16X16420   3.582   1.611   7.525 -0.8349  1.8662  2.3363
  148SAPE  H16Y16421   3.411   1.568   7.502  0.2805 -0.8702  1.2581
  148SAPE  C31716422   3.542   1.430   7.408  0.0454  0.0855 -0.1593
  148SAPE  H17X16423   3.458   1.357   7.409  0.3291 -0.2433 -0.1825
  148SAPE  H17Y16424   3.635   1.372   7.426 -1.3256 -2.5987 -1.1364
  148SAPE  C31816425   3.551   1.481   7.263  0.5015  0.1420  0.3391
  148SAPE  H18X16426   3.652   1.526   7.248  0.7202 -0.6480 -0.6533
  148SAPE  H18Y16427   3.469   1.553   7.244 -1.4969 -2.0001  0.3979
  148SAPE  H18Z16428   3.550   1.394   7.194  1.2171 -0.8679  1.5529
  149SAPE     N16429   0.493   3.943   9.881 -0.2285  1.2433 -0.2037
  149SAPE   HN116430   0.459   3.980   9.972 -0.5796 -1.7931  0.9945
  149SAPE   HN216431   0.595   3.946   9.898 -0.1940 -0.3433 -0.0270
  149SAPE   HN316432   0.478   4.015   9.806 -2.1843  0.5485 -0.5366
  149SAPE   C1216433   0.426   3.817   9.839  0.3766  0.0779  0.1585
  149SAPE  H12A16434   0.377   3.833   9.740  2.8136  1.1613 -0.9565
  149SAPE  H12B16435   0.361   3.782   9.922  1.7014 -3.6755 -0.1737
  149SAPE   C1116436   0.535   3.706   9.810  0.1390 -0.2273 -0.4960
  149SAPE  H11A16437   0.622   3.740   9.749  1.2173  1.0425  1.6122
  149SAPE  H11B16438   0.474   3.626   9.764 -1.9730  1.8594 -1.5552
  149SAPE     P16439   0.672   3.531   9.942  0.1226  0.2936  0.1616
  149SAPE   O1316440   0.788   3.547  10.034  0.7697  0.4804  0.2100
  149SAPE   O1416441   0.571   3.430   9.973 -0.5857 -0.3341  0.3506
  149SAPE   O1216442   0.589   3.661   9.932  0.5458  0.7681 -0.0042
  149SAPE   O1116443   0.735   3.515   9.795 -0.5276 -0.1245  0.9260
  149SAPE    C116444   0.679   3.425   9.701 -0.4179 -0.6944  0.0110
  149SAPE    HA16445   0.570   3.411   9.720 -0.5795  1.6663  1.0921
  149SAPE    HB16446   0.674   3.469   9.599 -0.8208 -1.2196 -0.2059
  149SAPE    C216447   0.758   3.299   9.682 -0.1765  0.3950  0.0929
  149SAPE    HS16448   0.780   3.263   9.785  0.4678  0.5011 -0.0015
  149SAPE   O2116449   0.881   3.319   9.609  0.1313  0.2886 -0.7011
  149SAPE   C2116450   0.965   3.214   9.619  0.0750 -0.1502 -0.1667
  149SAPE   O2216451   0.939   3.108   9.671  0.3142 -0.3539 -0.6465
  149SAPE   C2216452   1.093   3.248   9.548  0.3144 -0.1704 -0.1309
  149SAPE   H2R16453   1.161   3.285   9.628  0.8859 -0.1731 -0.6060
  149SAPE   H2S16454   1.146   3.160   9.506  0.2184  0.2091 -1.0838
  149SAPE    C316455   0.660   3.208   9.603  0.0376  0.8434 -0.4134
  149SAPE    HX16456   0.584   3.184   9.680  2.6961 -2.7986  1.4174
  149SAPE    HY16457   0.696   3.103   9.589 -2.0007 -0.3861  2.6622
  149SAPE   O3116458   0.597   3.274   9.499  0.1717  0.5669 -0.2850
  149SAPE   C3116459   0.633   3.238   9.376  0.1504  0.1570 -0.3417
  149SAPE   O3216460   0.724   3.165   9.351  0.0446 -0.4501  0.6281
  149SAPE   C3216461   0.531   3.293   9.274  0.0865 -0.3144 -0.1655
  149SAPE   H2X16462   0.531   3.402   9.295 -1.1486 -0.4011  0.3309
  149SAPE   H2Y16463   0.434   3.239   9.282 -0.0173 -0.2159 -0.7058
  149SAPE   C2316464   1.088   3.359   9.427 -0.8277  0.6931 -1.1623
  149SAPE   H3R16465   1.195   3.350   9.398 -0.4434  0.1326  0.3115
  149SAPE   H3S16466   1.067   3.463   9.459 -0.2388  0.6377 -0.5701
  149SAPE   C2416467   0.992   3.329   9.309  0.4144  0.8488  0.1053
  149SAPE   H4R16468   0.887   3.354   9.334  0.1652 -1.2220  1.2925
  149SAPE   H4S16469   0.984   3.220   9.293 -0.6085  1.2623 -2.7791
  149SAPE   C2516470   1.027   3.405   9.189 -0.0585  0.4120 -0.1838
  149SAPE   H5R16471   1.038   3.513   9.208 -1.3224  0.3508  1.0290
  149SAPE   C2616472   1.048   3.364   9.066  0.6591  0.0056 -0.1052
  149SAPE   H6R16473   1.060   3.437   8.985 -2.1072 -1.4056 -1.9614
  149SAPE   C2716474   1.037   3.223   9.011 -0.4005  0.3957 -0.0804
  149SAPE   H7R16475   0.971   3.215   8.922  0.1920  0.8640 -0.5716
  149SAPE   H7S16476   0.988   3.157   9.086  1.3984 -0.6162  0.2648
  149SAPE   C2816477   1.171   3.164   8.967 -0.2834 -0.6782 -0.4714
  149SAPE   H8R16478   1.210   3.093   9.042  0.1122  0.3243  0.3020
  149SAPE   C2916479   1.247   3.205   8.863  0.0853  0.0383  0.4031
  149SAPE   H9R16480   1.346   3.157   8.857  0.3239  0.3230  1.8092
  149SAPE  C21016481   1.214   3.300   8.751  0.1337 -0.4093  0.2445
  149SAPE  H10R16482   1.280   3.288   8.662 -0.1385  1.5005 -0.2691
  149SAPE  H10S16483   1.235   3.401   8.791 -1.6979  0.1633 -0.1563
  149SAPE  C21116484   1.072   3.298   8.688  0.4994 -0.0774 -0.3842
  149SAPE  H11R16485   0.994   3.242   8.743  0.9527 -0.1473  0.1887
  149SAPE  C21216486   1.044   3.335   8.559 -0.0981 -0.5502  0.0718
  149SAPE  H12R16487   0.942   3.327   8.519 -0.6814 -0.3629  1.4855
  149SAPE  C21316488   1.144   3.401   8.458 -0.6631  0.3688  0.2113
  149SAPE  H13R16489   1.224   3.444   8.522 -0.4282 -2.4251  2.0008
  149SAPE  H13S16490   1.108   3.485   8.395  1.5573  0.8263 -0.5340
  149SAPE  C21416491   1.201   3.298   8.363  0.4985 -0.1874  0.2447
  149SAPE  H14R16492   1.212   3.192   8.392 -0.6192 -1.0525 -2.2570
  149SAPE  C21516493   1.246   3.320   8.237  0.2706  0.7894  0.1482
  149SAPE  H15R16494   1.278   3.231   8.181  0.4048  1.2880 -0.5873
  149SAPE  C21616495   1.242   3.451   8.164 -0.4225 -0.1759 -0.0129
  149SAPE  H16R16496   1.330   3.519   8.175  0.8100 -1.7913  0.5087
  149SAPE  H16S16497   1.149   3.509   8.180 -0.2713  0.6143 -1.7151
  149SAPE  C21716498   1.239   3.433   8.015 -0.4677  1.2998 -0.1918
  149SAPE  H17R16499   1.241   3.536   7.974  1.6837  0.9381 -1.1384
  149SAPE  H17S16500   1.144   3.381   7.988  0.8822  0.3678 -3.8079
  149SAPE  C21816501   1.353   3.362   7.940 -0.2019  0.5723 -0.3498
  149SAPE  H18R16502   1.334   3.253   7.948  0.1175  0.5423  0.0099
  149SAPE  H18S16503   1.443   3.379   8.002  0.6217 -2.7331 -0.4187
  149SAPE  C21916504   1.372   3.389   7.794 -0.0675  0.1621 -0.7220
  149SAPE  H19R16505   1.276   3.376   7.740 -1.2364 -0.7518  1.4505
  149SAPE  H19S16506   1.447   3.312   7.768  0.8810  0.3016  1.4114
  149SAPE  C22016507   1.432   3.528   7.762  0.0894 -0.2176  0.0494
  149SAPE  H20R16508   1.443   3.532   7.652 -3.0791  0.6548 -0.3220
  149SAPE  H20S16509   1.532   3.536   7.811 -0.1381  2.3974  0.2134
  149SAPE  H20T16510   1.367   3.610   7.799  1.2716 -0.2455  2.4504
  149SAPE   C3316511   0.593   3.281   9.135 -0.4373 -0.1004 -0.0496
  149SAPE   H3X16512   0.689   3.335   9.117 -0.3019 -0.7949 -1.5327
  149SAPE   H3Y16513   0.522   3.330   9.064 -0.7239 -0.2082  0.1626
  149SAPE   C3416514   0.612   3.144   9.072 -0.3504 -1.0568 -0.3315
  149SAPE   H4X16515   0.515   3.090   9.080 -1.1761  0.5590  1.1852
  149SAPE   H4Y16516   0.680   3.080   9.132 -0.2551 -0.7684 -0.1286
  149SAPE   C3516517   0.640   3.164   8.919 -0.2604  0.0565 -0.6868
  149SAPE   H5X16518   0.709   3.081   8.893  0.2211 -0.3552  1.7173
  149SAPE   H5Y16519   0.687   3.264   8.913  1.9915 -0.8172  0.9437
  149SAPE   C3616520   0.516   3.163   8.827  0.3160  0.6668 -0.2006
  149SAPE   H6X16521   0.452   3.253   8.837  0.3633  0.8217 -1.1550
  149SAPE   H6Y16522   0.450   3.080   8.859  0.1855  1.2152  1.0222
  149SAPE   C3716523   0.564   3.158   8.682 -0.3052 -0.5675 -0.6902
  149SAPE   H7X16524   0.608   3.058   8.664  1.1976 -0.2968  1.0919
  149SAPE   H7Y16525   0.641   3.238   8.671  0.5876 -1.5490 -1.7900
  149SAPE   C3816526   0.455   3.174   8.586  0.6377 -0.3181  0.2105
  149SAPE   H8X16527   0.401   3.272   8.583  0.7157 -0.2817 -0.0601
  149SAPE   H8Y16528   0.378   3.098   8.611  0.2947  0.1570  0.6442
  149SAPE   C3916529   0.499   3.133   8.441 -0.0099  0.4149 -0.0321
  149SAPE   H9X16530   0.597   3.178   8.415  1.3868 -1.4213  1.7833
  149SAPE   H9Y16531   0.423   3.172   8.370 -0.1982 -0.7701 -0.4977
  149SAPE  C31016532   0.499   2.983   8.432  0.0671 -0.2515  0.3750
  149SAPE  H10X16533   0.394   2.948   8.434  0.3981 -1.3252 -0.3102
  149SAPE  H10Y16534   0.559   2.951   8.519 -1.1773  0.3566  1.4895
  149SAPE  C31116535   0.536   2.922   8.292 -0.5398  0.1959  0.2839
  149SAPE  H11X16536   0.525   2.811   8.299 -0.1043  0.1297 -0.0641
  149SAPE  H11Y16537   0.643   2.939   8.268 -0.8207  2.7334  0.5788
  149SAPE  C31216538   0.452   2.981   8.185  0.2478 -0.5545  0.0848
  149SAPE  H12X16539   0.475   3.090   8.180 -1.0157 -0.2786  0.0364
  149SAPE  H12Y16540   0.342   2.972   8.179  0.3114 -1.8085  0.6391
  149SAPE  C31316541   0.502   2.939   8.043  0.0002  0.2660  0.0007
  149SAPE  H13X16542   0.502   2.828   8.043  0.0360  0.2603  1.0830
  149SAPE  H13Y16543   0.608   2.967   8.027 -0.8887  3.2531 -1.4761
  149SAPE  C31416544   0.422   2.985   7.924  0.7000 -0.5227 -0.1275
  149SAPE  H14X16545   0.395   3.091   7.939 -0.7996 -0.7490 -0.9578
  149SAPE  H14Y16546   0.324   2.933   7.924 -0.2466  1.0896 -2.2306
  149SAPE  C31516547   0.488   2.976   7.787  0.5131  0.6273  0.2175
  149SAPE  H15X16548   0.564   3.058   7.790  0.5652  0.6186 -0.6745
  149SAPE  H15Y16549   0.426   3.005   7.700 -1.7969 -0.6873  1.3537
  149SAPE  C31616550   0.572   2.840   7.759 -0.1361 -0.0772  0.0248
  149SAPE  H16X16551   0.662   2.849   7.825 -1.5203 -1.1632  2.1733
  149SAPE  H16Y16552   0.601   2.846   7.652  2.6968 -2.7083  0.4946
  149SAPE  C31716553   0.489   2.711   7.783  0.0446  0.2676 -0.3014
  149SAPE  H17X16554   0.427   2.701   7.691  0.0747 -2.6476 -0.1081
  149SAPE  H17Y16555   0.421   2.709   7.871  1.5810 -1.3282  0.8983
  149SAPE  C31816556   0.575   2.589   7.794 -0.1431  0.2519  0.2851
  149SAPE  H18X16557   0.611   2.560   7.693  0.1733  0.7348  0.2568
  149SAPE  H18Y16558   0.515   2.502   7.830 -2.7395  1.1726 -1.4986
  149SAPE  H18Z16559   0.668   2.596   7.854  2.0769 -3.9400 -2.1530
  150SAPE     N16560   1.688   1.471  10.101  0.4272  0.5916 -0.3230
  150SAPE   HN116561   1.690   1.377  10.146 -0.2583 -0.2883 -2.0358
  150SAPE   HN216562   1.640   1.539  10.162 -3.0355 -0.5496 -1.5458
  150SAPE   HN316563   1.628   1.459  10.017  1.1641  0.5013 -0.8526
  150SAPE   C1216564   1.822   1.526  10.053  0.0068 -0.0469 -0.3749
  150SAPE  H12A16565   1.867   1.542  10.153  0.4551  2.0716 -0.8671
  150SAPE  H12B16566   1.800   1.626  10.009 -1.8084  0.0002  0.5382
  150SAPE   C1116567   1.909   1.433   9.959 -0.3346 -0.4937 -0.0584
  150SAPE  H11A16568   1.996   1.396  10.016 -1.0344 -1.1589  0.6110
  150SAPE  H11B16569   1.953   1.499   9.882  0.0403 -0.5041  0.1492
  150SAPE     P16570   1.902   1.228   9.807  0.1324  0.0157 -0.2278
  150SAPE   O1316571   1.985   1.125   9.878 -0.3080 -0.0961  0.0713
  150SAPE   O1416572   1.809   1.162   9.713 -0.5354  0.1031  0.0173
  150SAPE   O1216573   1.832   1.321   9.911  0.2778  0.4392  0.6180
  150SAPE   O1116574   2.000   1.319   9.732  0.0894 -0.6287  0.1197
  150SAPE    C116575   1.955   1.386   9.609 -0.0357  0.6166 -0.5563
  150SAPE    HA16576   1.846   1.409   9.618  0.0330  0.3102  1.4650
  150SAPE    HB16577   1.996   1.488   9.600 -2.3480  1.6703  0.0574
  150SAPE    C216578   1.981   1.314   9.471  0.2313  0.8169  0.7216
  150SAPE    HS16579   1.928   1.216   9.474  0.1257  0.8652  0.4634
  150SAPE   O2116580   2.121   1.295   9.451  0.0665 -0.0516 -0.2222
  150SAPE   C2116581   2.164   1.176   9.415  1.1135  0.5576  0.0266
  150SAPE   O2216582   2.098   1.073   9.415  0.3609  0.6730 -0.3706
  150SAPE   C2216583   2.316   1.176   9.395  0.4634 -0.4118  0.5316
  150SAPE   H2R16584   2.347   1.282   9.410  1.0790 -0.8943  3.4279
  150SAPE   H2S16585   2.356   1.115   9.479 -0.7269 -0.5043  1.0586
  150SAPE    C316586   1.927   1.385   9.348 -0.6785 -0.1642  0.8368
  150SAPE    HX16587   1.980   1.480   9.369  2.9843 -2.3533  2.4283
  150SAPE    HY16588   1.819   1.411   9.349 -1.3003 -2.4485  0.1445
  150SAPE   O3116589   1.968   1.324   9.224 -0.7473  0.1766  0.3325
  150SAPE   C3116590   1.884   1.237   9.171  0.2014 -0.3833  0.4664
  150SAPE   O3216591   1.775   1.212   9.217  0.1298  0.1161 -0.4329
  150SAPE   C3216592   1.933   1.174   9.034  0.8251 -0.5321 -0.2810
  150SAPE   H2X16593   2.037   1.202   9.007  1.2158 -1.3980  0.2576
  150SAPE   H2Y16594   1.871   1.210   8.949  2.3325  0.5510 -0.9783
  150SAPE   C2316595   2.341   1.103   9.260  0.0539 -0.8887  0.9190
  150SAPE   H3R16596   2.287   1.007   9.251 -1.9174  0.1426  1.1313
  150SAPE   H3S16597   2.447   1.072   9.267  0.4402  0.1055 -0.1488
  150SAPE   C2416598   2.313   1.182   9.126  0.0114  0.0817  0.5869
  150SAPE   H4R16599   2.230   1.255   9.140 -0.7801 -1.1799  2.9643
  150SAPE   H4S16600   2.270   1.102   9.062 -0.4733  2.3610 -2.1593
  150SAPE   C2516601   2.423   1.255   9.055 -0.6280  0.3888 -0.3958
  150SAPE   H5R16602   2.513   1.231   9.114 -0.8310 -1.9552 -0.9571
  150SAPE   C2616603   2.428   1.321   8.937  0.5262 -0.2420 -0.0649
  150SAPE   H6R16604   2.521   1.367   8.902 -2.0904  3.5595 -2.7125
  150SAPE   C2716605   2.303   1.342   8.852  0.1804  0.1842 -0.0876
  150SAPE   H7R16606   2.211   1.349   8.913 -1.5481  1.8806 -2.7053
  150SAPE   H7S16607   2.286   1.255   8.784  0.8952 -2.5888  3.0453
  150SAPE   C2816608   2.323   1.473   8.787  0.0826  0.6083 -0.3358
  150SAPE   H8R16609   2.307   1.561   8.851 -0.2243  1.6643 -1.7932
  150SAPE   C2916610   2.359   1.492   8.662 -0.3056 -0.1636 -0.1950
  150SAPE   H9R16611   2.370   1.593   8.622  1.3179 -0.1873  0.1362
  150SAPE  C21016612   2.402   1.387   8.559 -0.2518  0.2676  0.3745
  150SAPE  H10R16613   2.415   1.286   8.604 -1.5299 -0.3915 -0.6476
  150SAPE  H10S16614   2.504   1.422   8.532 -0.9720  3.5496  1.4254
  150SAPE  C21116615   2.313   1.370   8.438 -0.3849 -0.1035 -1.1891
  150SAPE  H11R16616   2.237   1.292   8.450 -0.3115 -0.1124 -0.7635
  150SAPE  C21216617   2.323   1.436   8.321  0.2549 -0.2606  0.2296
  150SAPE  H12R16618   2.241   1.429   8.249 -0.5948  3.6037  0.5814
  150SAPE  C21316619   2.422   1.548   8.303 -0.2693  0.2549 -0.1020
  150SAPE  H13R16620   2.517   1.531   8.357 -0.1593  2.2401  0.3963
  150SAPE  H13S16621   2.369   1.633   8.352  0.1305  0.3841  0.1133
  150SAPE  C21416622   2.464   1.584   8.159 -0.1907  0.3415 -0.0484
  150SAPE  H14R16623   2.569   1.565   8.133 -0.2455 -1.0984  0.6941
  150SAPE  C21516624   2.385   1.647   8.071 -0.4481 -0.5726  0.6650
  150SAPE  H15R16625   2.426   1.678   7.973 -1.5521  1.0026  0.6560
  150SAPE  C21616626   2.241   1.696   8.098  0.2477  0.5122  1.1798
  150SAPE  H16R16627   2.235   1.807   8.097 -1.1654  0.4576 -0.5099
  150SAPE  H16S16628   2.207   1.654   8.195 -2.5868 -0.3912 -0.1180
  150SAPE  C21716629   2.145   1.643   7.984 -0.5578 -0.5324 -0.8430
  150SAPE  H17R16630   2.051   1.694   8.014  1.0094  1.7064  0.5932
  150SAPE  H17S16631   2.141   1.532   7.995  1.3286 -0.5730 -0.1250
  150SAPE  C21816632   2.184   1.682   7.843 -1.0604 -0.1865 -0.0609
  150SAPE  H18R16633   2.292   1.661   7.824 -1.3983 -1.2381 -0.9591
  150SAPE  H18S16634   2.178   1.792   7.858 -2.8745 -0.3055  0.2485
  150SAPE  C21916635   2.095   1.608   7.741  0.2032  0.2418 -0.3509
  150SAPE  H19R16636   1.988   1.628   7.763 -0.0048  1.3022 -2.0923
  150SAPE  H19S16637   2.118   1.499   7.738 -1.2628 -0.2916  3.0902
  150SAPE  C22016638   2.117   1.661   7.596 -0.2203 -1.2006 -0.1796
  150SAPE  H20R16639   2.090   1.769   7.595  0.4462 -1.0329 -0.1694
  150SAPE  H20S16640   2.062   1.607   7.515 -0.7549 -1.5613  0.4098
  150SAPE  H20T16641   2.222   1.640   7.566 -0.3280  0.0872 -1.5674
  150SAPE   C3316642   1.923   1.024   9.035  0.3267 -0.2921  0.4800
  150SAPE   H3X16643   1.832   0.990   9.089 -0.1899  0.9567  0.4393
  150SAPE   H3Y16644   1.996   0.976   9.103 -0.6063 -1.6402  0.5755
  150SAPE   C3416645   1.928   0.957   8.902  0.1171 -0.1701  0.2510
  150SAPE   H4X16646   1.842   0.985   8.838  0.1331 -2.3904 -0.8194
  150SAPE   H4Y16647   1.910   0.849   8.919  0.0170 -0.2703 -0.5024
  150SAPE   C3516648   2.060   0.981   8.836  0.5334 -0.2917  0.5916
  150SAPE   H5X16649   2.133   0.928   8.901  0.4624  0.0488  0.9532
  150SAPE   H5Y16650   2.099   1.085   8.844 -0.4980  0.2214 -0.6112
  150SAPE   C3616651   2.066   0.936   8.690 -0.0798 -0.6133 -0.7402
  150SAPE   H6X16652   2.015   0.839   8.676  0.8469 -1.0943 -0.9093
  150SAPE   H6Y16653   2.170   0.926   8.651 -0.5981 -0.0545 -2.3591
  150SAPE   C3716654   2.006   1.037   8.589 -0.0995  0.3427  0.9165
  150SAPE   H7X16655   2.072   1.126   8.602 -1.3454  1.1400  2.0018
  150SAPE   H7Y16656   1.901   1.058   8.616 -0.4716 -1.4975  1.0732
  150SAPE   C3816657   2.014   0.986   8.443 -0.6743 -0.4543  0.2549
  150SAPE   H8X16658   1.958   0.891   8.427 -1.7259 -0.4138  3.1626
  150SAPE   H8Y16659   2.122   0.967   8.426 -0.0867 -0.5937  3.4908
  150SAPE   C3916660   1.942   1.074   8.342  0.1617 -0.4453  0.0711
  150SAPE   H9X16661   1.992   1.173   8.337  0.9992 -0.8792 -0.3174
  150SAPE   H9Y16662   1.840   1.081   8.387  0.2966 -1.1475  0.4895
  150SAPE  C31016663   1.934   1.034   8.199 -0.2416  0.3258 -0.1416
  150SAPE  H10X16664   1.878   0.938   8.197 -0.4790  0.4650 -0.2287
  150SAPE  H10Y16665   2.035   1.007   8.161 -1.1013 -0.2342 -2.1728
  150SAPE  C31116666   1.869   1.132   8.095 -0.1392  0.1570  0.4728
  150SAPE  H11X16667   1.761   1.107   8.100 -0.5737  1.6926 -0.7677
  150SAPE  H11Y16668   1.888   1.117   7.987 -3.6209 -3.0209  0.1100
  150SAPE  C31216669   1.886   1.282   8.125  0.1030  0.2015 -0.5581
  150SAPE  H12X16670   1.988   1.299   8.164  0.6043 -0.2432 -1.6187
  150SAPE  H12Y16671   1.809   1.313   8.198 -2.1550 -1.4492 -2.1048
  150SAPE  C31316672   1.853   1.369   8.006  0.3630 -0.1340 -0.6465
  150SAPE  H13X16673   1.919   1.345   7.919 -1.1302 -0.3766 -1.7671
  150SAPE  H13Y16674   1.874   1.473   8.038 -1.9031 -0.3678  1.9016
  150SAPE  C31416675   1.703   1.364   7.969  0.0723 -0.7739 -0.3023
  150SAPE  H14X16676   1.665   1.261   7.953 -1.0164 -0.4716  0.2251
  150SAPE  H14Y16677   1.691   1.404   7.867  0.0632  1.0863  0.3956
  150SAPE  C31516678   1.609   1.449   8.057 -0.1819 -0.1167  0.2709
  150SAPE  H15X16679   1.624   1.423   8.164 -2.9650  1.8205  1.2373
  150SAPE  H15Y16680   1.510   1.417   8.019 -0.6837  0.3971  1.1293
  150SAPE  C31616681   1.619   1.605   8.031  0.5742  0.1501 -0.5120
  150SAPE  H16X16682   1.612   1.610   7.920 -0.0139 -3.6730 -0.7872
  150SAPE  H16Y16683   1.711   1.657   8.062  1.2299  0.5747 -2.9269
  150SAPE  C31716684   1.499   1.676   8.093  0.0857 -0.3399  0.1359
  150SAPE  H17X16685   1.513   1.674   8.203  1.2135 -3.4149  0.0099
  150SAPE  H17Y16686   1.403   1.622   8.078 -1.3029  2.4855 -2.4217
  150SAPE  C31816687   1.494   1.821   8.041  0.1756  0.1585 -0.4198
  150SAPE  H18X16688   1.415   1.879   8.094  1.8134  0.0491  2.3430
  150SAPE  H18Y16689   1.480   1.823   7.931 -0.5733 -1.8126 -0.3954
  150SAPE  H18Z16690   1.591   1.869   8.066  0.0593  0.5388 -0.6904
  151SAPE     N16691   6.502   5.659   9.687  0.1035  0.2596 -1.1933
  151SAPE   HN116692   6.415   5.675   9.633  0.6703  0.6115 -2.0301
  151SAPE   HN216693   6.562   5.744   9.684  0.0931  0.2516 -1.6522
  151SAPE   HN316694   6.562   5.591   9.636  1.2639  0.9440 -0.7752
  151SAPE   C1216695   6.464   5.605   9.829  0.7522 -0.0380  0.3854
  151SAPE  H12A16696   6.352   5.607   9.831  0.6986  2.8934 -0.6837
  151SAPE  H12B16697   6.502   5.681   9.900  2.0907 -0.1095 -0.2328
  151SAPE   C1116698   6.536   5.468   9.840  0.2381  0.7885  0.6925
  151SAPE  H11A16699   6.523   5.422   9.940  0.6789 -0.8815  0.0364
  151SAPE  H11B16700   6.641   5.502   9.827  0.0749  0.4933 -2.2046
  151SAPE     P16701   6.525   5.230   9.738  0.2472  0.0952  0.1987
  151SAPE   O1316702   6.668   5.216   9.785 -0.0576  0.2293  0.6210
  151SAPE   O1416703   6.418   5.167   9.819  0.2791 -0.2997  0.2615
  151SAPE   O1216704   6.497   5.384   9.729  0.1423 -0.4830 -0.4822
  151SAPE   O1116705   6.512   5.186   9.590 -0.0803 -0.4001 -0.3550
  151SAPE    C116706   6.587   5.250   9.483  0.1392  0.4335  0.4241
  151SAPE    HA16707   6.688   5.291   9.505  1.3058 -0.3410 -2.9640
  151SAPE    HB16708   6.630   5.172   9.417  1.5895  0.1664  1.6395
  151SAPE    C216709   6.500   5.338   9.393  0.7237  0.4704 -0.1293
  151SAPE    HS16710   6.437   5.405   9.457 -0.6273 -0.7299 -0.1410
  151SAPE   O2116711   6.407   5.252   9.325  0.4148 -0.0713  0.6815
  151SAPE   C2116712   6.297   5.299   9.280 -0.6756  0.5939 -0.5126
  151SAPE   O2216713   6.251   5.410   9.306 -0.0423  0.4060  0.3663
  151SAPE   C2216714   6.232   5.199   9.175 -0.2272  0.3290 -0.3724
  151SAPE   H2R16715   6.279   5.202   9.075 -1.6181 -0.0001 -1.0638
  151SAPE   H2S16716   6.248   5.097   9.215  0.0676  0.7559  0.6250
  151SAPE    C316717   6.583   5.421   9.294 -1.0188 -0.0583  0.0531
  151SAPE    HX16718   6.653   5.474   9.363 -0.7583 -1.3366  0.8086
  151SAPE    HY16719   6.528   5.499   9.238  1.1170  1.7526  0.3517
  151SAPE   O3116720   6.664   5.345   9.199  0.1250 -0.1350 -0.2097
  151SAPE   C3116721   6.622   5.325   9.082  0.6956 -0.6191  0.2908
  151SAPE   O3216722   6.520   5.374   9.026 -0.0212  0.0247 -0.8384
  151SAPE   C3216723   6.719   5.234   9.011  0.0401 -0.1149 -0.5226
  151SAPE   H2X16724   6.754   5.169   9.094  1.3234  0.4234 -0.6129
  151SAPE   H2Y16725   6.806   5.285   8.964  0.7092 -0.0389  0.7472
  151SAPE   C2316726   6.085   5.248   9.154 -0.2050 -0.8256  0.3413
  151SAPE   H3R16727   6.083   5.344   9.098  1.5200 -0.8604  0.1802
  151SAPE   H3S16728   6.019   5.262   9.243 -1.8202  0.2770 -0.9782
  151SAPE   C2416729   6.001   5.156   9.065 -0.4671 -0.4506 -0.1576
  151SAPE   H4R16730   6.071   5.140   8.980  1.5117 -1.3102  1.5462
  151SAPE   H4S16731   5.911   5.206   9.023 -0.7161 -0.0248  0.8426
  151SAPE   C2516732   5.963   5.027   9.132 -0.2538  0.9134 -0.5513
  151SAPE   H5R16733   6.018   5.003   9.225 -1.3167 -3.1839 -0.7792
  151SAPE   C2616734   5.871   4.938   9.098  0.3987  0.1957 -0.8147
  151SAPE   H6R16735   5.864   4.844   9.155  4.2824 -0.5918 -1.3353
  151SAPE   C2716736   5.763   4.938   8.988 -0.4618 -0.2207 -0.3574
  151SAPE   H7R16737   5.702   4.845   8.982  1.0470 -1.1731 -1.7640
  151SAPE   H7S16738   5.812   4.946   8.888 -1.4936 -0.2792 -0.8858
  151SAPE   C2816739   5.664   5.051   8.994 -0.2528 -0.7106  0.4920
  151SAPE   H8R16740   5.654   5.103   9.091  0.0029  0.1354  0.0794
  151SAPE   C2916741   5.604   5.105   8.885 -0.1047 -0.6724  0.1299
  151SAPE   H9R16742   5.519   5.172   8.906  0.2981 -0.8475  2.7392
  151SAPE  C21016743   5.618   5.061   8.747  0.7755  0.1828  0.3115
  151SAPE  H10R16744   5.525   5.081   8.689 -1.4390 -2.3210  2.7147
  151SAPE  H10S16745   5.631   4.951   8.739 -1.2169 -0.1516  1.0757
  151SAPE  C21116746   5.735   5.134   8.685  0.2734  0.1326 -0.1343
  151SAPE  H11R16747   5.830   5.137   8.742 -0.0296  0.2711  0.3697
  151SAPE  C21216748   5.747   5.185   8.564 -0.1872  0.0398  0.4976
  151SAPE  H12R16749   5.846   5.216   8.529 -0.4819 -0.3143 -0.6872
  151SAPE  C21316750   5.641   5.169   8.448  0.1087 -0.0692  0.0022
  151SAPE  H13R16751   5.632   5.268   8.398  0.1392 -0.2539 -0.3684
  151SAPE  H13S16752   5.539   5.149   8.488  0.6368  0.6172  1.8254
  151SAPE  C21416753   5.694   5.065   8.357 -0.2685 -0.1232  0.2344
  151SAPE  H14R16754   5.638   4.970   8.352  1.4086 -1.2039  0.9330
  151SAPE  C21516755   5.783   5.082   8.253  0.4651  0.9310  0.2451
  151SAPE  H15R16756   5.806   4.998   8.186  0.4040  1.0992  0.0124
  151SAPE  C21616757   5.853   5.209   8.211  0.6876 -0.4964  0.7157
  151SAPE  H16R16758   5.828   5.290   8.283 -2.2048 -0.2344 -0.4590
  151SAPE  H16S16759   5.829   5.242   8.108  0.8454 -1.5334  0.3327
  151SAPE  C21716760   6.010   5.197   8.205  0.1710  0.1475 -0.9382
  151SAPE  H17R16761   6.048   5.152   8.299 -2.4109  1.1832  0.7287
  151SAPE  H17S16762   6.060   5.296   8.203  0.1977  0.1540 -0.2261
  151SAPE  C21816763   6.055   5.112   8.083  0.1651  0.5847 -1.0035
  151SAPE  H18R16764   6.037   5.168   7.989 -0.2242  0.0744 -1.2336
  151SAPE  H18S16765   6.002   5.015   8.096 -1.5596  1.6632  0.3446
  151SAPE  C21916766   6.205   5.072   8.089  0.2728 -0.3250 -0.1271
  151SAPE  H19R16767   6.223   5.011   7.998  1.4069 -3.3817  2.0098
  151SAPE  H19S16768   6.238   5.009   8.174 -0.1306  1.4051  1.3922
  151SAPE  C22016769   6.291   5.192   8.069 -0.3369 -0.7145 -0.3322
  151SAPE  H20R16770   6.394   5.162   8.040  0.2294  0.3188  0.5648
  151SAPE  H20S16771   6.294   5.251   8.163 -3.2884  1.1052 -1.2420
  151SAPE  H20T16772   6.253   5.250   7.982 -0.2660 -3.1869 -2.1347
  151SAPE   C3316773   6.643   5.151   8.911 -0.4584 -0.2636 -0.1613
  151SAPE   H3X16774   6.619   5.213   8.822  2.7416 -0.0538 -1.0038
  151SAPE   H3Y16775   6.543   5.119   8.947 -0.7472  1.2638  0.4609
  151SAPE   C3416776   6.744   5.041   8.859 -0.1903 -0.0830 -0.3199
  151SAPE   H4X16777   6.797   5.000   8.948  0.5881 -0.1646 -0.8064
  151SAPE   H4Y16778   6.816   5.089   8.789 -1.2111  0.9935 -0.6642
  151SAPE   C3516779   6.682   4.919   8.789 -0.2277  0.6889  0.4690
  151SAPE   H5X16780   6.613   4.959   8.712  0.3185  2.2776  0.7654
  151SAPE   H5Y16781   6.628   4.867   8.872 -0.7483  0.7484  0.1703
  151SAPE   C3616782   6.775   4.831   8.712  0.4782 -0.0755  0.1675
  151SAPE   H6X16783   6.843   4.782   8.785 -1.3049  0.1507  2.1112
  151SAPE   H6Y16784   6.832   4.895   8.642 -1.2069  1.1899 -0.0970
  151SAPE   C3716785   6.710   4.717   8.630  0.2200 -0.0500  0.0850
  151SAPE   H7X16786   6.632   4.674   8.697  1.3446  0.3678  1.6934
  151SAPE   H7Y16787   6.791   4.643   8.615  0.8945  0.5855  0.5644
  151SAPE   C3816788   6.660   4.771   8.491 -0.7505 -0.3513 -0.1977
  151SAPE   H8X16789   6.756   4.809   8.451 -0.9788  0.7282  0.2462
  151SAPE   H8Y16790   6.605   4.866   8.510  0.3575 -0.1139  2.1997
  151SAPE   C3916791   6.585   4.672   8.406 -0.3249  0.4218  0.6859
  151SAPE   H9X16792   6.501   4.644   8.473  0.1612  0.4875  1.3249
  151SAPE   H9Y16793   6.648   4.583   8.385 -1.7231 -0.4331 -0.1083
  151SAPE  C31016794   6.525   4.752   8.284  0.6603 -0.3249  0.1989
  151SAPE  H10X16795   6.493   4.851   8.322  1.9046  1.1167 -2.2940
  151SAPE  H10Y16796   6.429   4.708   8.248  0.2457  1.4426 -1.0063
  151SAPE  C31116797   6.615   4.763   8.166 -1.0374  0.3442 -0.1854
  151SAPE  H11X16798   6.622   4.661   8.122  1.0038 -0.0582  0.9379
  151SAPE  H11Y16799   6.719   4.791   8.194 -1.2790 -0.2616  1.4453
  151SAPE  C31216800   6.561   4.869   8.068 -1.0152  0.6171  0.4204
  151SAPE  H12X16801   6.563   4.965   8.124  1.1372  0.9687 -0.1608
  151SAPE  H12Y16802   6.455   4.842   8.049 -0.7917  0.0268 -0.0172
  151SAPE  C31316803   6.635   4.872   7.935  0.0025 -0.1561  0.0748
  151SAPE  H13X16804   6.639   4.772   7.886  3.2724 -0.2987  0.3808
  151SAPE  H13Y16805   6.737   4.912   7.954  0.2528 -0.4057 -0.6787
  151SAPE  C31416806   6.559   4.957   7.827 -0.1977 -0.7697  0.4637
  151SAPE  H14X16807   6.545   5.062   7.860 -1.0628 -0.1516 -1.6967
  151SAPE  H14Y16808   6.456   4.925   7.800 -0.4798  0.4597  0.0404
  151SAPE  C31516809   6.629   4.956   7.694 -0.4550 -0.9318  0.0431
  151SAPE  H15X16810   6.673   4.864   7.650  0.1982 -0.6979  0.2052
  151SAPE  H15Y16811   6.712   5.029   7.708 -2.0988  1.3227 -1.1705
  151SAPE  C31616812   6.552   5.030   7.582  0.3097  0.5783  0.9373
  151SAPE  H16X16813   6.519   5.128   7.623  1.0734  1.2081  0.0891
  151SAPE  H16Y16814   6.457   4.977   7.560 -0.0651  1.0262  1.4282
  151SAPE  C31716815   6.645   5.045   7.462  0.3136  0.5081  0.0835
  151SAPE  H17X16816   6.746   5.063   7.505 -0.8240  1.1509  2.7009
  151SAPE  H17Y16817   6.620   5.132   7.398 -0.2479  1.2923  1.3415
  151SAPE  C31816818   6.670   4.916   7.375  0.3572  0.0319  0.1756
  151SAPE  H18X16819   6.581   4.884   7.318  0.2553 -0.6147  0.6891
  151SAPE  H18Y16820   6.685   4.832   7.445  0.9253  1.9013  2.4329
  151SAPE  H18Z16821   6.759   4.931   7.310  0.1309  3.0691  0.4165
  152SAPE     N16822   0.677   5.601  10.204  0.2671  0.5623  0.2560
  152SAPE   HN116823   0.739   5.654  10.269 -0.4685 -0.5156  1.9129
  152SAPE   HN216824   0.650   5.511  10.250 -1.8944 -0.0061 -1.9110
  152SAPE   HN316825   0.738   5.578  10.122 -2.3023 -1.0078 -1.3641
  152SAPE   C1216826   0.551   5.669  10.159  0.2990  0.1509 -0.4995
  152SAPE  H12A16827   0.550   5.759  10.224  1.5339  0.9054 -1.4724
  152SAPE  H12B16828   0.472   5.599  10.193  0.6308  0.5693  1.2440
  152SAPE   C1116829   0.550   5.711  10.012  0.3961  0.5107  0.2103
  152SAPE  H11A16830   0.631   5.787   9.999  0.4210  0.1240 -2.4954
  152SAPE  H11B16831   0.455   5.764   9.989 -0.3354 -0.9937 -0.4114
  152SAPE     P16832   0.475   5.496   9.882  0.0526 -0.0141  0.1863
  152SAPE   O1316833   0.362   5.496   9.987 -0.1841 -0.4127  0.0494
  152SAPE   O1416834   0.440   5.526   9.745 -0.0743  0.5149 -0.1926
  152SAPE   O1216835   0.582   5.595   9.923 -0.5421 -0.5699  0.2988
  152SAPE   O1116836   0.550   5.358   9.883  0.0080  0.0690 -0.8902
  152SAPE    C116837   0.669   5.333   9.809 -0.4150 -0.4948  0.4743
  152SAPE    HA16838   0.687   5.418   9.740 -1.8624 -0.6241 -0.0965
  152SAPE    HB16839   0.756   5.312   9.875 -0.2384 -0.4583  0.2547
  152SAPE    C216840   0.656   5.207   9.713 -0.3914  0.0778 -0.5777
  152SAPE    HS16841   0.752   5.201   9.656 -0.1497  2.1720 -0.4797
  152SAPE   O2116842   0.538   5.223   9.628 -0.5170 -0.1537 -0.2737
  152SAPE   C2116843   0.554   5.311   9.531 -0.3096 -0.2572 -0.1178
  152SAPE   O2216844   0.656   5.376   9.509 -0.1814  0.3078  0.2480
  152SAPE   C2216845   0.436   5.304   9.435  0.7460  0.8057 -0.1660
  152SAPE   H2R16846   0.427   5.200   9.396 -0.8130  1.4245 -1.5586
  152SAPE   H2S16847   0.347   5.322   9.499  2.0934  2.8853  1.2484
  152SAPE    C316848   0.645   5.068   9.785  0.2579 -0.0134  0.8890
  152SAPE    HX16849   0.561   5.092   9.855  2.7344  1.4217  3.6149
  152SAPE    HY16850   0.740   5.056   9.840 -0.2215  0.4564  1.8511
  152SAPE   O3116851   0.642   4.960   9.691  0.4474 -0.1795  0.1600
  152SAPE   C3116852   0.529   4.898   9.684 -0.6179  0.1587 -0.3962
  152SAPE   O3216853   0.429   4.920   9.754 -0.5517 -0.0252  0.3327
  152SAPE   C3216854   0.533   4.787   9.578 -0.1206  0.4339  0.0857
  152SAPE   H2X16855   0.530   4.683   9.616 -0.1529  0.1228 -0.7568
  152SAPE   H2Y16856   0.624   4.809   9.520  1.6183 -0.0646  2.4655
  152SAPE   C2316857   0.419   5.412   9.331  0.6208 -0.3216  0.2220
  152SAPE   H3R16858   0.426   5.511   9.380 -0.4853  0.0886 -0.4130
  152SAPE   H3S16859   0.313   5.402   9.298  0.2264  0.6703  1.1166
  152SAPE   C2416860   0.515   5.393   9.207 -0.0116  0.7507 -1.1493
  152SAPE   H4R16861   0.500   5.291   9.168  2.0910 -0.0860  0.0538
  152SAPE   H4S16862   0.617   5.402   9.250 -0.8893  0.4176  1.1116
  152SAPE   C2516863   0.498   5.499   9.109  0.3881 -0.2326 -0.0141
  152SAPE   H5R16864   0.531   5.602   9.129 -1.4953  0.3943  0.0714
  152SAPE   C2616865   0.456   5.478   8.983  0.8202  0.0989  0.1040
  152SAPE   H6R16866   0.445   5.565   8.917  1.1592  0.7338  0.8614
  152SAPE   C2716867   0.414   5.342   8.921  0.9068 -0.6938 -0.5451
  152SAPE   H7R16868   0.340   5.353   8.838 -2.6929 -0.0173  2.4988
  152SAPE   H7S16869   0.369   5.280   9.001  2.4238 -0.0025  0.9029
  152SAPE   C2816870   0.534   5.271   8.879 -0.6248 -0.3139  0.5948
  152SAPE   H8R16871   0.630   5.302   8.925 -0.6362  0.2701  0.2410
  152SAPE   C2916872   0.543   5.165   8.799 -0.1576  0.5193  0.2903
  152SAPE   H9R16873   0.643   5.122   8.785 -1.3199 -1.6762 -2.2667
  152SAPE  C21016874   0.437   5.088   8.730  0.2973 -0.5810  0.2232
  152SAPE  H10R16875   0.488   5.035   8.647 -1.8479  0.0727 -1.6195
  152SAPE  H10S16876   0.363   5.160   8.689  1.2705  0.2018 -0.1782
  152SAPE  C21116877   0.349   4.989   8.803 -0.0597  0.2803 -0.2245
  152SAPE  H11R16878   0.391   4.960   8.900 -0.5746  0.6414  0.1068
  152SAPE  C21216879   0.234   4.931   8.761 -0.0198  0.2259  0.4155
  152SAPE  H12R16880   0.188   4.860   8.830  1.7280 -1.4628 -0.0693
  152SAPE  C21316881   0.154   4.959   8.638 -0.5544  0.3059 -0.0760
  152SAPE  H13R16882   0.174   5.063   8.603 -1.5560  0.3963 -0.4287
  152SAPE  H13S16883   0.044   4.959   8.653 -0.4396 -0.2440  0.8032
  152SAPE  C21416884   0.199   4.875   8.520  0.2187 -0.4149 -1.0608
  152SAPE  H14R16885   0.271   4.917   8.448  2.6256  0.7715  1.8689
  152SAPE  C21516886   0.154   4.747   8.488  0.1238  0.1191  0.6921
  152SAPE  H15R16887   0.197   4.708   8.395 -0.5235 -0.3099  0.5655
  152SAPE  C21616888   0.037   4.667   8.549  0.3589 -0.4011 -0.7420
  152SAPE  H16R16889   0.022   4.705   8.652  3.4185 -1.0780  0.0765
  152SAPE  H16S16890   0.077   4.563   8.551  0.5657 -0.3024  0.4936
  152SAPE  C21716891  -0.093   4.673   8.455 -0.0953 -0.5000 -0.8639
  152SAPE  H17R16892  -0.115   4.782   8.444 -0.5956 -0.0219  3.2046
  152SAPE  H17S16893  -0.181   4.637   8.513 -0.3205  0.6630 -0.4404
  152SAPE  C21816894  -0.078   4.607   8.317 -0.4017 -0.1940  0.8240
  152SAPE  H18R16895  -0.043   4.502   8.324 -0.3060 -0.2672 -0.4179
  152SAPE  H18S16896   0.003   4.655   8.257 -1.8216 -1.0318 -1.9275
  152SAPE  C21916897  -0.202   4.616   8.229 -0.0967  0.0396  0.0651
  152SAPE  H19R16898  -0.238   4.718   8.255  2.4491  0.5828  1.9129
  152SAPE  H19S16899  -0.279   4.548   8.272  0.0376  0.6813  1.3876
  152SAPE  C22016900  -0.184   4.597   8.078  0.3271  0.7168  0.1621
  152SAPE  H20R16901  -0.103   4.669   8.054  0.6140  0.4440  0.3241
  152SAPE  H20S16902  -0.275   4.633   8.024 -1.5070  0.0512  2.6225
  152SAPE  H20T16903  -0.153   4.498   8.040  0.6210  0.2831  1.4975
  152SAPE   C3316904   0.407   4.796   9.482  0.0278  0.9029  0.3386
  152SAPE   H3X16905   0.408   4.895   9.432  1.2612 -0.5905 -2.8843
  152SAPE   H3Y16906   0.316   4.773   9.541  1.1224  0.4730  1.9321
  152SAPE   C3416907   0.407   4.697   9.364  0.2221 -0.5596 -0.2792
  152SAPE   H4X16908   0.302   4.696   9.328  0.6478 -2.3717 -1.6188
  152SAPE   H4Y16909   0.423   4.597   9.410  1.6516  0.5070  1.7284
  152SAPE   C3516910   0.518   4.730   9.260  1.1173  0.5850 -0.1499
  152SAPE   H5X16911   0.615   4.683   9.288  1.4282 -0.4911 -2.7492
  152SAPE   H5Y16912   0.532   4.840   9.251  0.0100  0.7422 -0.1241
  152SAPE   C3616913   0.492   4.686   9.115  0.5064 -0.0777 -0.5324
  152SAPE   H6X16914   0.384   4.687   9.087  1.1010  0.9462 -3.1848
  152SAPE   H6Y16915   0.522   4.580   9.119 -1.7514 -0.7427  3.0571
  152SAPE   C3716916   0.584   4.756   9.016 -0.2745  0.3942 -0.5981
  152SAPE   H7X16917   0.683   4.728   9.059 -0.8922  0.4737  0.9370
  152SAPE   H7Y16918   0.569   4.866   9.013  0.9347  0.7406  2.4059
  152SAPE   C3816919   0.552   4.705   8.872  0.7357  0.3494  0.2820
  152SAPE   H8X16920   0.444   4.698   8.848  1.1978 -0.3442 -1.8282
  152SAPE   H8Y16921   0.583   4.599   8.878 -0.7529 -0.0695  0.7446
  152SAPE   C3916922   0.626   4.775   8.763  0.3205 -0.2352  0.0226
  152SAPE   H9X16923   0.728   4.800   8.799  0.2027 -0.4282  0.5008
  152SAPE   H9Y16924   0.571   4.870   8.743  2.2999  1.4566  1.9987
  152SAPE  C31016925   0.629   4.700   8.631  0.3430  0.2063  0.4152
  152SAPE  H10X16926   0.521   4.681   8.612  0.2191  0.0362  1.2539
  152SAPE  H10Y16927   0.678   4.600   8.642 -0.2329  0.0354  1.5045
  152SAPE  C31116928   0.691   4.784   8.513  0.7544  0.1161 -1.2963
  152SAPE  H11X16929   0.790   4.827   8.539  1.3684 -0.8667 -1.9406
  152SAPE  H11Y16930   0.623   4.866   8.483  0.0500 -0.6656 -1.8932
  152SAPE  C31216931   0.692   4.689   8.389 -0.2120  0.6545 -0.2623
  152SAPE  H12X16932   0.704   4.581   8.410 -0.4658  0.4481 -1.1455
  152SAPE  H12Y16933   0.766   4.715   8.311 -2.0069 -0.6499 -2.5229
  152SAPE  C31316934   0.558   4.684   8.313 -0.1145 -0.4930 -0.1860
  152SAPE  H13X16935   0.534   4.784   8.271  1.8117  0.4888  0.9314
  152SAPE  H13Y16936   0.475   4.652   8.381 -0.1467  1.3266  0.7060
  152SAPE  C31416937   0.555   4.580   8.195  0.0253 -0.7393  0.1624
  152SAPE  H14X16938   0.596   4.481   8.225  1.6841 -0.2906 -0.5449
  152SAPE  H14Y16939   0.618   4.622   8.114 -0.7733  1.2381  0.5009
  152SAPE  C31516940   0.415   4.555   8.134 -0.1386 -0.5597  0.3034
  152SAPE  H15X16941   0.352   4.512   8.215  1.9304 -2.1735  1.1290
  152SAPE  H15Y16942   0.421   4.469   8.063  1.2072  0.2794 -0.6480
  152SAPE  C31616943   0.353   4.680   8.070 -0.7038 -0.2411  0.2203
  152SAPE  H16X16944   0.416   4.711   7.984 -1.1340  0.1222  0.0333
  152SAPE  H16Y16945   0.357   4.761   8.146  2.1646 -1.0107  1.0270
  152SAPE  C31716946   0.210   4.663   8.020  0.9871 -0.0752 -0.4158
  152SAPE  H17X16947   0.163   4.764   8.016 -1.0624 -1.0232 -1.9526
  152SAPE  H17Y16948   0.162   4.611   8.105  1.3446 -0.3482 -0.3796
  152SAPE  C31816949   0.196   4.573   7.902 -0.3531  0.1522 -0.1103
  152SAPE  H18X16950   0.239   4.616   7.809  0.3443  2.6618  1.2879
  152SAPE  H18Y16951   0.089   4.551   7.881 -0.6959  2.0971 -0.5275
  152SAPE  H18Z16952   0.239   4.471   7.910  1.6519  0.7973 -1.8431
  153SAPE     N16953   6.530   1.763   9.711  0.2165 -0.5500  0.4226
  153SAPE   HN116954   6.439   1.811   9.698  1.2458  1.1294 -0.9329
  153SAPE   HN216955   6.579   1.809   9.791 -0.3559 -0.5982  0.8049
  153SAPE   HN316956   6.589   1.777   9.627 -1.1305 -1.7885 -0.7869
  153SAPE   C1216957   6.513   1.618   9.744 -0.0321 -0.0198  0.0419
  153SAPE  H12A16958   6.444   1.609   9.830  1.2059  0.2200  1.0892
  153SAPE  H12B16959   6.609   1.569   9.773  0.1018  0.1214 -0.1648
  153SAPE   C1116960   6.462   1.546   9.623 -0.1922 -0.4312  0.1811
  153SAPE  H11A16961   6.541   1.543   9.545 -0.3067 -0.8291  0.0762
  153SAPE  H11B16962   6.367   1.597   9.596  0.2158 -0.4724 -1.4460
  153SAPE     P16963   6.527   1.288   9.654 -0.1558  0.2499  0.0639
  153SAPE   O1316964   6.645   1.305   9.744  0.3233  0.0649  0.0285
  153SAPE   O1416965   6.446   1.167   9.675 -0.5128 -0.1076  0.0128
  153SAPE   O1216966   6.425   1.413   9.661 -0.4196 -0.2110  0.3095
  153SAPE   O1116967   6.591   1.290   9.507  0.6493  0.1605  0.1299
  153SAPE    C116968   6.495   1.295   9.394 -0.4043 -0.0243  0.7984
  153SAPE    HA16969   6.394   1.334   9.420  0.4954  2.1648  1.2385
  153SAPE    HB16970   6.530   1.367   9.316 -1.5637  0.7933  1.0013
  153SAPE    C216971   6.486   1.147   9.335  0.6514 -0.1588  0.9447
  153SAPE    HS16972   6.576   1.092   9.370  0.4260  0.8759  3.3113
  153SAPE   O2116973   6.473   1.149   9.189 -0.4786 -0.3392  0.6309
  153SAPE   C2116974   6.586   1.173   9.130 -0.6528  0.3213  0.3272
  153SAPE   O2216975   6.693   1.179   9.184 -0.1763 -0.0570 -0.0402
  153SAPE   C2216976   6.556   1.206   8.984  0.5632 -0.2475  0.0735
  153SAPE   H2R16977   6.586   1.118   8.924  0.6406 -0.5669  0.5814
  153SAPE   H2S16978   6.445   1.208   8.974  0.7003  0.3935 -1.7181
  153SAPE    C316979   6.363   1.071   9.381  0.4234  0.1361 -0.0329
  153SAPE    HX16980   6.377   1.034   9.486 -1.5118 -0.7001 -0.0279
  153SAPE    HY16981   6.352   0.978   9.321  1.5396 -1.8164  2.5505
  153SAPE   O3116982   6.246   1.162   9.372 -0.4975 -0.4588 -0.1106
  153SAPE   C3116983   6.148   1.125   9.302  0.9124 -0.6293  0.9950
  153SAPE   O3216984   6.132   1.015   9.249  0.3082 -0.1828  0.7488
  153SAPE   C3216985   6.043   1.232   9.294  0.1177 -0.3945 -0.3479
  153SAPE   H2X16986   6.015   1.265   9.397  1.5732  1.6603 -0.5361
  153SAPE   H2Y16987   5.960   1.183   9.240 -2.0424  0.3847  2.0465
  153SAPE   C2316988   6.628   1.334   8.941  0.4525 -0.1447 -0.5319
  153SAPE   H3R16989   6.738   1.326   8.951  0.5454  1.0253 -0.3927
  153SAPE   H3S16990   6.600   1.411   9.017 -0.3551 -2.3219  1.5161
  153SAPE   C2416991   6.609   1.364   8.797 -0.2025 -0.1272  0.4088
  153SAPE   H4R16992   6.641   1.282   8.729  0.9165  0.3912  0.2862
  153SAPE   H4S16993   6.668   1.454   8.771 -0.6444  0.7329  2.2616
  153SAPE   C2516994   6.467   1.408   8.760  0.0150 -0.6364  0.1181
  153SAPE   H5R16995   6.417   1.473   8.833 -1.1828 -1.0679 -0.3063
  153SAPE   C2616996   6.395   1.344   8.670 -0.4130  0.4971  0.3412
  153SAPE   H6R16997   6.296   1.373   8.631 -1.1656 -2.0945  0.1779
  153SAPE   C2716998   6.451   1.225   8.589  0.5690  0.0160  0.0571
  153SAPE   H7R16999   6.368   1.172   8.536  0.5371  0.9595 -0.8620
  153SAPE   H7S17000   6.497   1.150   8.657 -0.7038 -0.3950  0.5113
  153SAPE   C2817001   6.556   1.259   8.488 -0.0330 -0.1268 -0.0590
  153SAPE   H8R17002   6.661   1.249   8.520 -1.1910 -2.6487  3.6534
  153SAPE   C2917003   6.536   1.269   8.358  0.6121 -0.2087  0.3686
  153SAPE   H9R17004   6.617   1.302   8.291 -1.3577 -0.3970 -2.2859
  153SAPE  C21017005   6.416   1.263   8.265 -0.0818 -0.6215 -0.0139
  153SAPE  H10R17006   6.328   1.236   8.326 -1.2041  1.0957 -0.8140
  153SAPE  H10S17007   6.427   1.189   8.182 -0.5731 -0.7222  0.0075
  153SAPE  C21117008   6.383   1.391   8.206 -0.8715  0.2624 -0.5695
  153SAPE  H11R17009   6.327   1.463   8.267 -2.8074 -0.9781 -0.7866
  153SAPE  C21217010   6.428   1.431   8.085 -0.1707  0.2236 -0.4744
  153SAPE  H12R17011   6.425   1.538   8.060  1.9484  1.0543  2.2929
  153SAPE  C21317012   6.516   1.340   8.002  0.7738  0.1334  0.1846
  153SAPE  H13R17013   6.453   1.257   7.964 -1.9534  1.8856  0.6121
  153SAPE  H13S17014   6.601   1.300   8.061  3.0169  2.5487 -1.2229
  153SAPE  C21417015   6.582   1.426   7.894  0.0924 -0.3517  0.0254
  153SAPE  H14R17016   6.632   1.513   7.939  1.6076 -1.9590  1.5650
  153SAPE  C21517017   6.575   1.410   7.766  0.0145 -0.7096  0.1412
  153SAPE  H15R17018   6.624   1.485   7.702  0.4241 -0.7840  0.3610
  153SAPE  C21617019   6.492   1.304   7.707  0.3304  0.7238 -1.0715
  153SAPE  H16R17020   6.537   1.208   7.740 -0.5441  0.0354 -1.8232
  153SAPE  H16S17021   6.524   1.295   7.601 -1.6506  1.6221 -1.7933
  153SAPE  C21717022   6.334   1.291   7.716 -0.5494  0.7460 -0.6094
  153SAPE  H17R17023   6.283   1.387   7.691 -0.2538  1.3548  0.9953
  153SAPE  H17S17024   6.307   1.272   7.822 -1.0016  0.3852 -0.7810
  153SAPE  C21817025   6.273   1.184   7.630  0.1724  0.2825  0.2105
  153SAPE  H18R17026   6.343   1.098   7.632  1.7521  1.5099  2.4061
  153SAPE  H18S17027   6.266   1.220   7.525 -0.3257 -1.4580 -0.3823
  153SAPE  C21917028   6.127   1.151   7.673 -0.3974 -0.1346 -0.3491
  153SAPE  H19R17029   6.079   1.252   7.674 -1.3365 -0.4887 -2.8669
  153SAPE  H19S17030   6.142   1.105   7.773 -2.1869  0.9337  0.4631
  153SAPE  C22017031   6.047   1.066   7.585  0.2691  0.2611 -0.1630
  153SAPE  H20R17032   6.063   0.956   7.597 -0.8754  0.0473 -0.4108
  153SAPE  H20S17033   6.073   1.065   7.477  1.4461  0.1962  0.1100
  153SAPE  H20T17034   5.937   1.082   7.594 -0.2247 -2.6968  0.3212
  153SAPE   C3317035   6.100   1.348   9.208 -0.3454  0.8745  0.6339
  153SAPE   H3X17036   6.189   1.391   9.257 -0.2956  1.4451  0.0664
  153SAPE   H3Y17037   6.024   1.424   9.178 -1.1714 -0.3550 -0.5316
  153SAPE   C3417038   6.154   1.305   9.067 -0.0519  0.3631  0.1107
  153SAPE   H4X17039   6.252   1.254   9.075  0.0152  0.6445  1.3603
  153SAPE   H4Y17040   6.180   1.401   9.017  0.8219  0.4937  0.7847
  153SAPE   C3517041   6.052   1.235   8.976 -0.6704 -0.2920  0.8253
  153SAPE   H5X17042   5.962   1.299   8.974  0.0036  0.7339 -2.2412
  153SAPE   H5Y17043   6.008   1.138   9.009 -0.9940 -0.3043  0.3691
  153SAPE   C3617044   6.116   1.233   8.828  0.0523  0.4916 -0.0381
  153SAPE   H6X17045   6.213   1.180   8.821 -0.5309 -0.5038 -0.7776
  153SAPE   H6Y17046   6.126   1.341   8.806 -2.7068  0.5272 -1.5718
  153SAPE   C3717047   6.020   1.167   8.730  1.1509 -0.0124 -0.4481
  153SAPE   H7X17048   5.918   1.207   8.750  1.0581  1.9056 -3.9330
  153SAPE   H7Y17049   6.015   1.058   8.748 -0.4784  0.2974  1.2554
  153SAPE   C3817050   6.050   1.207   8.587  0.9211 -0.1328  0.4778
  153SAPE   H8X17051   6.142   1.148   8.565  1.1123 -0.8543  2.9742
  153SAPE   H8Y17052   6.075   1.309   8.550  1.7147 -0.2999  0.5262
  153SAPE   C3917053   5.943   1.143   8.495  0.6727 -0.7657 -0.2897
  153SAPE   H9X17054   5.846   1.185   8.530  0.3730 -1.2774 -0.4901
  153SAPE   H9Y17055   5.943   1.034   8.516 -1.5455 -0.6406  0.5557
  153SAPE  C31017056   5.977   1.156   8.348 -0.9437 -0.0952  0.7099
  153SAPE  H10X17057   6.075   1.108   8.329 -0.7391  0.3952  0.5154
  153SAPE  H10Y17058   5.989   1.265   8.331 -3.0573  0.2390  1.0749
  153SAPE  C31117059   5.867   1.110   8.251  0.0572  0.1269  0.0488
  153SAPE  H11X17060   5.766   1.125   8.293  0.4122 -2.6132  2.1220
  153SAPE  H11Y17061   5.878   0.999   8.246  0.1586 -0.0474  2.8698
  153SAPE  C31217062   5.879   1.176   8.110 -0.3027 -0.1277  0.0154
  153SAPE  H12X17063   5.841   1.280   8.116 -0.6448 -0.3084  1.2910
  153SAPE  H12Y17064   5.810   1.124   8.040 -0.3328 -0.5559  0.3538
  153SAPE  C31317065   6.017   1.175   8.042 -0.0149  0.2593  0.6728
  153SAPE  H13X17066   6.006   1.122   7.945  0.4207 -1.8730  1.7301
  153SAPE  H13Y17067   6.088   1.111   8.097  1.9507  1.2393 -0.6263
  153SAPE  C31417068   6.072   1.317   8.026  0.0325  0.6454 -0.6969
  153SAPE  H14X17069   6.177   1.318   7.990  0.0043  1.0341 -0.7749
  153SAPE  H14Y17070   6.073   1.365   8.126  0.8974 -3.8261  1.7230
  153SAPE  C31517071   5.978   1.404   7.938  0.1422 -0.3249 -0.6620
  153SAPE  H15X17072   5.883   1.431   7.988  0.2103  1.0777 -1.2539
  153SAPE  H15Y17073   5.951   1.343   7.849  2.3073  0.4858 -1.9449
  153SAPE  C31617074   6.035   1.535   7.896  0.0463  0.0354 -0.1620
  153SAPE  H16X17075   5.962   1.598   7.841 -0.2458  3.1904  3.3833
  153SAPE  H16Y17076   6.119   1.510   7.829 -0.5574 -0.1907 -0.8429
  153SAPE  C31717077   6.074   1.631   8.012  0.0595 -0.0810 -0.4478
  153SAPE  H17X17078   6.114   1.726   7.971 -1.5129  1.0787  0.6277
  153SAPE  H17Y17079   6.151   1.584   8.076  0.0563 -1.9434 -1.7253
  153SAPE  C31817080   5.953   1.653   8.105 -0.3009  0.4117  0.4041
  153SAPE  H18X17081   5.981   1.727   8.183  3.0077 -0.1302 -0.1179
  153SAPE  H18Y17082   5.920   1.557   8.150  1.1590  0.2560  1.1924
  153SAPE  H18Z17083   5.873   1.694   8.039 -0.7149  0.1126  0.7155
  154SAPE     N17084   0.701   0.945   9.858 -0.2150  0.0823  0.0802
  154SAPE   HN117085   0.639   0.983   9.932  1.4053 -1.1961  2.2135
  154SAPE   HN217086   0.715   0.850   9.897  1.3315  1.0847  2.1922
  154SAPE   HN317087   0.791   0.998   9.856 -0.2725  0.3243  2.0110
  154SAPE   C1217088   0.627   0.945   9.725 -0.6200 -0.5683  0.1203
  154SAPE  H12A17089   0.601   1.051   9.703 -0.1201 -0.3133  0.7281
  154SAPE  H12B17090   0.539   0.879   9.745 -2.2257  1.9626  2.1072
  154SAPE   C1117091   0.735   0.882   9.629 -0.4783 -0.0896  0.2831
  154SAPE  H11A17092   0.833   0.929   9.653 -0.1826 -0.7990  0.5045
  154SAPE  H11B17093   0.712   0.898   9.521  0.0000  0.0505  0.1976
  154SAPE     P17094   0.667   0.614   9.614  0.4057 -0.1412 -0.1157
  154SAPE   O1317095   0.746   0.501   9.666 -0.3605 -0.2772  0.1368
  154SAPE   O1417096   0.527   0.613   9.654  0.4329  0.0303  0.0102
  154SAPE   O1217097   0.749   0.743   9.655 -0.0510 -0.2138  0.1720
  154SAPE   O1117098   0.674   0.621   9.455 -0.4284  0.0219  0.2359
  154SAPE    C117099   0.789   0.589   9.388  0.2975 -0.2673  0.2524
  154SAPE    HA17100   0.879   0.644   9.422  1.3495 -1.6446 -0.1809
  154SAPE    HB17101   0.806   0.479   9.396  0.3462 -0.3560 -0.8675
  154SAPE    C217102   0.759   0.595   9.239 -0.3555 -0.9671 -0.5565
  154SAPE    HS17103   0.849   0.570   9.179 -2.0288  0.0387 -3.7216
  154SAPE   O2117104   0.711   0.727   9.204  0.6158 -0.0269 -0.0269
  154SAPE   C2117105   0.801   0.815   9.164 -0.5369 -0.5857 -0.1202
  154SAPE   O2217106   0.920   0.790   9.153  0.0549 -0.4463  0.7728
  154SAPE   C2217107   0.738   0.949   9.127  0.0583 -0.1951 -0.2637
  154SAPE   H2R17108   0.652   0.966   9.195 -0.4457 -1.2162 -0.6240
  154SAPE   H2S17109   0.823   1.019   9.143 -1.2669  1.6297 -0.8396
  154SAPE    C317110   0.654   0.492   9.197 -0.0629  0.4627  0.0653
  154SAPE    HX17111   0.556   0.525   9.237 -0.7294 -0.3245 -0.8621
  154SAPE    HY17112   0.692   0.398   9.243  4.4818  2.5628  1.2340
  154SAPE   O3117113   0.642   0.465   9.055 -0.3887  0.2957  0.0880
  154SAPE   C3117114   0.563   0.366   9.031 -0.0582  0.1827  0.0730
  154SAPE   O3217115   0.489   0.312   9.109  0.6354 -0.5931  0.0301
  154SAPE   C3217116   0.586   0.302   8.897  0.2613  0.5743 -0.0471
  154SAPE   H2X17117   0.519   0.216   8.880 -0.3269  1.1015 -0.4454
  154SAPE   H2Y17118   0.692   0.268   8.897  0.0949  0.0543  0.0122
  154SAPE   C2317119   0.700   0.948   8.975  0.3074  0.3705 -0.0990
  154SAPE   H3R17120   0.795   0.946   8.918 -0.3431  0.5595 -1.2189
  154SAPE   H3S17121   0.649   1.045   8.953  0.0571  0.5443  1.1696
  154SAPE   C2417122   0.598   0.840   8.927  0.6867 -0.3696 -0.2595
  154SAPE   H4R17123   0.630   0.734   8.924 -1.2866 -1.0033 -2.5715
  154SAPE   H4S17124   0.588   0.845   8.816  0.7337  0.7652 -0.2211
  154SAPE   C2517125   0.471   0.846   9.004  0.0537 -0.2518  0.2655
  154SAPE   H5R17126   0.490   0.844   9.113 -1.9935 -1.9949  0.6540
  154SAPE   C2617127   0.352   0.880   8.961 -0.3209  0.6645 -0.5274
  154SAPE   H6R17128   0.272   0.878   9.037  0.4253  1.4092  0.2967
  154SAPE   C2717129   0.313   0.907   8.820  0.2247 -0.0252 -0.3173
  154SAPE   H7R17130   0.329   0.824   8.749 -0.0322 -1.1525  0.9091
  154SAPE   H7S17131   0.378   0.983   8.770 -0.0341 -0.6934 -1.7088
  154SAPE   C2817132   0.176   0.967   8.817  0.8341  0.2466  0.5454
  154SAPE   H8R17133   0.146   1.033   8.900 -0.9197 -0.2597  0.3428
  154SAPE   C2917134   0.091   0.950   8.715  0.2932 -0.6966  0.5212
  154SAPE   H9R17135  -0.000   1.012   8.717  1.2914  0.8100  0.4749
  154SAPE  C21017136   0.099   0.860   8.595 -0.6394  0.5913  0.3176
  154SAPE  H10R17137   0.002   0.808   8.580 -1.1514  1.2239  1.2951
  154SAPE  H10S17138   0.176   0.783   8.617 -1.2867  0.2240  1.4286
  154SAPE  C21117139   0.148   0.927   8.464 -0.1736 -0.4139 -1.0917
  154SAPE  H11R17140   0.238   0.989   8.477  0.9515 -1.9072 -1.4343
  154SAPE  C21217141   0.111   0.889   8.337  0.3949 -0.4040 -0.3053
  154SAPE  H12R17142   0.126   0.956   8.251 -0.1073 -0.5228 -0.4908
  154SAPE  C21317143   0.007   0.786   8.305 -0.3635  1.1133  0.6552
  154SAPE  H13R17144  -0.095   0.829   8.307 -1.2566 -0.9138  0.8784
  154SAPE  H13S17145   0.014   0.709   8.385 -1.2749  0.9299  0.5629
  154SAPE  C21417146   0.020   0.737   8.160  0.1476 -0.2868 -0.8055
  154SAPE  H14R17147  -0.038   0.794   8.086  2.7956  3.2205 -0.4442
  154SAPE  C21517148   0.096   0.633   8.132 -0.9369 -0.2602  0.3814
  154SAPE  H15R17149   0.111   0.607   8.027  0.0416  1.6999  0.0072
  154SAPE  C21617150   0.177   0.549   8.231 -0.2165 -0.5266  0.2866
  154SAPE  H16R17151   0.184   0.609   8.324 -1.9590  1.0216 -0.5161
  154SAPE  H16S17152   0.275   0.539   8.181  0.0249  1.6446  0.2247
  154SAPE  C21717153   0.124   0.410   8.251  0.9708  0.5453 -0.6014
  154SAPE  H17R17154   0.148   0.344   8.165  0.7718 -0.3619  0.0277
  154SAPE  H17S17155   0.013   0.412   8.255  0.9534  2.3203 -1.2575
  154SAPE  C21817156   0.181   0.335   8.374 -0.8766 -0.3872  0.2341
  154SAPE  H18R17157   0.116   0.256   8.418 -4.6185  2.6483  0.7323
  154SAPE  H18S17158   0.180   0.410   8.456  2.2411 -1.6119  1.5223
  154SAPE  C21917159   0.325   0.278   8.362 -0.1880  0.1009  0.1061
  154SAPE  H19R17160   0.355   0.251   8.465 -1.9804 -0.2518  0.5691
  154SAPE  H19S17161   0.393   0.353   8.316 -0.0470 -0.8879 -1.3732
  154SAPE  C22017162   0.320   0.148   8.278  0.5530 -0.0920  0.0572
  154SAPE  H20R17163   0.256   0.082   8.340 -0.2741  1.2180  0.6253
  154SAPE  H20S17164   0.421   0.106   8.256  0.6367 -0.4017  0.9836
  154SAPE  H20T17165   0.276   0.158   8.176 -0.9108 -0.3685  0.6476
  154SAPE   C3317166   0.568   0.399   8.780 -0.5271 -0.4754 -0.2982
  154SAPE   H3X17167   0.593   0.351   8.683 -0.6628 -0.1627 -0.4910
  154SAPE   H3Y17168   0.638   0.486   8.781 -1.9137  0.6823 -0.9249
  154SAPE   C3417169   0.425   0.458   8.775 -0.0470 -0.7873  0.8092
  154SAPE   H4X17170   0.406   0.542   8.845 -0.9945  0.8393 -1.2751
  154SAPE   H4Y17171   0.351   0.379   8.795 -2.2127  1.0067  0.2711
  154SAPE   C3517172   0.391   0.513   8.635 -0.8652  0.7809  0.5689
  154SAPE   H5X17173   0.295   0.566   8.655 -1.0509  1.5919 -2.0420
  154SAPE   H5Y17174   0.363   0.438   8.557  0.2273 -0.1752  1.0757
  154SAPE   C3617175   0.484   0.616   8.573 -0.2768 -0.1090 -0.8676
  154SAPE   H6X17176   0.584   0.573   8.556  0.3024  0.1881  1.3958
  154SAPE   H6Y17177   0.490   0.683   8.662 -0.9090  0.0682 -0.9531
  154SAPE   C3717178   0.435   0.696   8.457  0.5795  0.2544 -0.0158
  154SAPE   H7X17179   0.332   0.730   8.481  0.6872 -0.6153  1.9110
  154SAPE   H7Y17180   0.422   0.624   8.374 -0.0396 -1.6289  1.6258
  154SAPE   C3817181   0.513   0.821   8.424 -0.4251  0.2890  0.5598
  154SAPE   H8X17182   0.622   0.799   8.418 -0.8103 -1.8038  0.4602
  154SAPE   H8Y17183   0.503   0.892   8.509  0.1305  2.3671 -1.0227
  154SAPE   C3917184   0.477   0.902   8.293 -0.2039  0.5013 -0.1403
  154SAPE   H9X17185   0.555   0.978   8.273  0.7190  0.0993  1.7561
  154SAPE   H9Y17186   0.377   0.948   8.307 -0.6718  0.2911 -2.3647
  154SAPE  C31017187   0.462   0.809   8.170  0.4810  0.5632  0.0701
  154SAPE  H10X17188   0.367   0.756   8.191  0.4457  0.2744 -0.7839
  154SAPE  H10Y17189   0.540   0.731   8.179 -0.7542 -0.8296 -0.8260
  154SAPE  C31117190   0.420   0.886   8.039 -0.7686 -0.0383 -0.2415
  154SAPE  H11X17191   0.492   0.967   8.016  0.9637 -1.8895 -1.6574
  154SAPE  H11Y17192   0.318   0.925   8.060 -0.2708  0.5075  1.3651
  154SAPE  C31217193   0.417   0.792   7.915 -0.9155  0.2830 -0.2021
  154SAPE  H12X17194   0.353   0.704   7.938  0.0836 -0.2902  0.4720
  154SAPE  H12Y17195   0.516   0.750   7.885 -0.1236  0.9453  1.3629
  154SAPE  C31317196   0.357   0.856   7.795  0.3378 -0.7807 -0.2388
  154SAPE  H13X17197   0.421   0.936   7.753 -1.0710 -0.5440 -2.0776
  154SAPE  H13Y17198   0.252   0.885   7.818  0.4395  1.2835 -2.0847
  154SAPE  C31417199   0.358   0.759   7.678 -0.0257  0.3245  0.2054
  154SAPE  H14X17200   0.330   0.660   7.721  0.1642 -0.0864 -0.5983
  154SAPE  H14Y17201   0.463   0.751   7.643  0.9427 -1.4149  3.0820
  154SAPE  C31517202   0.259   0.807   7.575 -0.4053 -0.2364  0.5437
  154SAPE  H15X17203   0.161   0.842   7.617 -0.6483  1.4769 -1.2935
  154SAPE  H15Y17204   0.233   0.722   7.509  0.4199  0.4837 -0.7491
  154SAPE  C31617205   0.315   0.908   7.471  0.8099 -1.0616 -0.2359
  154SAPE  H16X17206   0.389   0.858   7.406  0.3492 -0.9115 -0.8874
  154SAPE  H16Y17207   0.369   0.990   7.523 -2.1416  1.3208 -0.6270
  154SAPE  C31717208   0.214   0.982   7.389 -0.1029 -0.3863  0.3671
  154SAPE  H17X17209   0.133   0.906   7.400 -0.3829  0.0533  1.4614
  154SAPE  H17Y17210   0.238   1.006   7.283  0.5576  0.4846  0.7086
  154SAPE  C31817211   0.175   1.121   7.438  0.0287 -0.6775 -0.5033
  154SAPE  H18X17212   0.105   1.179   7.374 -0.2222  0.0677  0.4279
  154SAPE  H18Y17213   0.268   1.182   7.432 -0.0252 -0.5150  0.2273
  154SAPE  H18Z17214   0.144   1.123   7.545 -2.2552 -1.4993 -1.0906
  155SAPE     N17215   1.069   6.768   9.536  0.6139 -0.2060 -0.6464
  155SAPE   HN117216   1.112   6.752   9.443  3.0948  0.1665  0.3616
  155SAPE   HN217217   1.116   6.853   9.574 -1.9838  0.5012  1.2948
  155SAPE   HN317218   1.085   6.680   9.588 -0.1524 -0.6298 -1.1154
  155SAPE   C1217219   0.925   6.810   9.509  0.3732  0.0807  0.2379
  155SAPE  H12A17220   0.871   6.825   9.605  0.6319  2.1210  0.1062
  155SAPE  H12B17221   0.880   6.730   9.447  1.4064  0.4411 -1.0234
  155SAPE   C1117222   0.919   6.950   9.438  0.3967 -0.4150  0.1814
  155SAPE  H11A17223   0.811   6.969   9.418  0.6165  2.2587  1.0884
  155SAPE  H11B17224   0.979   6.944   9.344 -1.2646  0.8828 -1.0308
  155SAPE     P17225   1.105   7.115   9.548 -0.1452 -0.0750 -0.1452
  155SAPE   O1317226   1.091   7.246   9.619 -0.0488 -0.1156  0.3051
  155SAPE   O1417227   1.167   7.006   9.631  0.5319 -0.6586  0.7598
  155SAPE   O1217228   0.953   7.058   9.524  0.7923  0.0860 -0.2520
  155SAPE   O1117229   1.185   7.140   9.411 -0.7965 -0.3533  0.6750
  155SAPE    C117230   1.116   7.229   9.322  0.2463 -0.1715  0.0689
  155SAPE    HA17231   1.010   7.199   9.307  0.1824 -0.7758  1.5936
  155SAPE    HB17232   1.105   7.328   9.370  0.6498  0.1175 -0.4158
  155SAPE    C217233   1.196   7.239   9.190  0.1159 -0.2811  0.3161
  155SAPE    HS17234   1.135   7.314   9.135  0.2243  1.2574  2.1730
  155SAPE   O2117235   1.217   7.117   9.131  0.2143  0.0672 -0.1928
  155SAPE   C2117236   1.111   7.053   9.089  0.3087  0.0583 -0.7761
  155SAPE   O2217237   0.995   7.087   9.106 -0.6531 -0.1308 -0.0108
  155SAPE   C2217238   1.157   6.923   9.027 -0.1200  0.3390 -0.4931
  155SAPE   H2R17239   1.240   6.944   8.956 -0.4789  0.7210 -0.8032
  155SAPE   H2S17240   1.204   6.862   9.107  0.1823  0.6798 -0.4127
  155SAPE    C317241   1.334   7.297   9.217 -0.3765  0.2471  0.5098
  155SAPE    HX17242   1.400   7.231   9.277  0.3035  0.5785  0.1314
  155SAPE    HY17243   1.323   7.381   9.288  1.7009 -0.5304  1.8338
  155SAPE   O3117244   1.388   7.361   9.104  0.2930  0.3379  0.0138
  155SAPE   C3117245   1.469   7.280   9.021  0.5110 -0.0177  0.2553
  155SAPE   O3217246   1.536   7.186   9.064  0.0526  0.1946 -0.0129
  155SAPE   C3217247   1.461   7.321   8.879 -0.1943  0.1290  0.5208
  155SAPE   H2X17248   1.413   7.421   8.869 -0.4338 -0.0156  0.2218
  155SAPE   H2Y17249   1.401   7.242   8.830 -1.3653  0.1304  1.9187
  155SAPE   C2317250   1.055   6.848   8.943  0.0079  0.2872 -0.2030
  155SAPE   H3R17251   0.965   6.822   9.003  0.5747  1.6260  1.2652
  155SAPE   H3S17252   1.101   6.749   8.925  0.3038 -0.0431  2.0956
  155SAPE   C2417253   1.013   6.902   8.802 -0.2708  0.7135 -0.2909
  155SAPE   H4R17254   0.947   6.824   8.757 -0.5082  1.3776 -1.1052
  155SAPE   H4S17255   1.104   6.890   8.740 -0.3424 -1.2182 -0.0945
  155SAPE   C2517256   0.946   7.035   8.809 -0.5434 -0.4127 -0.0432
  155SAPE   H5R17257   0.856   7.043   8.872 -0.5078  0.4005 -0.0869
  155SAPE   C2617258   0.974   7.142   8.727  0.8005  0.8550  0.0275
  155SAPE   H6R17259   0.919   7.237   8.729 -1.7599 -0.5046 -1.1097
  155SAPE   C2717260   1.090   7.137   8.633  0.3995  0.2115  0.9899
  155SAPE   H7R17261   1.067   7.065   8.552 -1.1362  0.9554  0.7396
  155SAPE   H7S17262   1.182   7.093   8.678  1.1611  0.8921  0.1372
  155SAPE   C2817263   1.117   7.278   8.565 -0.6884  0.5466 -1.3574
  155SAPE   H8R17264   1.113   7.285   8.455  2.8974  0.3789 -1.6198
  155SAPE   C2917265   1.141   7.401   8.626 -0.0135 -0.0673 -0.5744
  155SAPE   H9R17266   1.179   7.486   8.567 -1.0532  1.3501  0.7422
  155SAPE  C21017267   1.146   7.428   8.776  0.0298 -0.7895  0.2740
  155SAPE  H10R17268   1.241   7.479   8.801  0.1958 -0.8140 -0.3016
  155SAPE  H10S17269   1.165   7.331   8.828  3.2905 -0.8309 -0.8072
  155SAPE  C21117270   1.015   7.494   8.839 -0.8271 -0.2263  0.1826
  155SAPE  H11R17271   0.937   7.421   8.862 -0.2929 -1.7387 -2.4784
  155SAPE  C21217272   0.992   7.625   8.859  0.1929 -0.4501  0.1201
  155SAPE  H12R17273   0.907   7.664   8.917  1.4083 -1.3980  2.6747
  155SAPE  C21317274   1.090   7.738   8.825 -0.6414  0.6229 -0.0527
  155SAPE  H13R17275   1.179   7.704   8.768  1.3120  0.6936  2.7345
  155SAPE  H13S17276   1.146   7.771   8.915  0.1744  1.0846 -0.7145
  155SAPE  C21417277   1.027   7.861   8.770 -0.4394  0.2307 -0.1614
  155SAPE  H14R17278   1.031   7.950   8.835  1.4531  0.0232  0.0741
  155SAPE  C21517279   0.982   7.873   8.642 -0.0147 -0.2048 -0.2728
  155SAPE  H15R17280   0.914   7.956   8.617 -2.0525 -1.6749  0.0954
  155SAPE  C21617281   0.991   7.765   8.540 -0.1308 -0.7211  0.3615
  155SAPE  H16R17282   1.011   7.667   8.589 -0.8920 -1.6814 -1.1950
  155SAPE  H16S17283   1.069   7.795   8.467  0.4115  0.7686  1.4915
  155SAPE  C21717284   0.853   7.758   8.472  0.4404 -0.4655 -0.0983
  155SAPE  H17R17285   0.820   7.858   8.439 -0.7194 -1.4789 -2.2337
  155SAPE  H17S17286   0.779   7.714   8.542 -2.9830  0.8139 -2.6171
  155SAPE  C21817287   0.849   7.667   8.347 -1.0296  0.6316 -0.2496
  155SAPE  H18R17288   0.888   7.570   8.385  0.7848  1.2183 -0.5674
  155SAPE  H18S17289   0.919   7.710   8.273  1.1399 -0.2480  1.2049
  155SAPE  C21917290   0.713   7.638   8.294  0.2821 -0.5371  0.3555
  155SAPE  H19R17291   0.666   7.737   8.272  1.8794 -0.0399 -0.9536
  155SAPE  H19S17292   0.650   7.596   8.376 -1.3841  2.3963  0.7171
  155SAPE  C22017293   0.695   7.555   8.163  0.4157  0.3277  0.2027
  155SAPE  H20R17294   0.719   7.619   8.075 -2.6856 -1.3333 -2.0742
  155SAPE  H20S17295   0.586   7.534   8.161  0.0584  2.0414 -0.2659
  155SAPE  H20T17296   0.750   7.460   8.148 -2.3870 -1.0583 -2.8137
  155SAPE   C3317297   1.600   7.334   8.810 -0.0067 -0.0191  0.1460
  155SAPE   H3X17298   1.663   7.242   8.812  1.1350  0.7533  0.5000
  155SAPE   H3Y17299   1.658   7.413   8.862  0.0938  0.3830 -0.5672
  155SAPE   C3417300   1.591   7.378   8.659  0.1196  0.2299 -0.0533
  155SAPE   H4X17301   1.540   7.476   8.653  0.0292  0.0930 -3.3383
  155SAPE   H4Y17302   1.529   7.315   8.592  1.1658 -0.4605 -0.4012
  155SAPE   C3517303   1.724   7.384   8.584 -0.5054 -0.2325 -0.3135
  155SAPE   H5X17304   1.757   7.279   8.575 -2.1878 -0.6027 -3.8786
  155SAPE   H5Y17305   1.804   7.450   8.625 -0.1213  1.2195 -3.1307
  155SAPE   C3617306   1.701   7.429   8.440  0.0374  0.0339 -0.1106
  155SAPE   H6X17307   1.668   7.535   8.441 -0.4604 -0.0970 -1.2617
  155SAPE   H6Y17308   1.622   7.360   8.403 -0.3452  0.0346  0.6835
  155SAPE   C3717309   1.822   7.412   8.348  0.5418  0.1249  0.6920
  155SAPE   H7X17310   1.820   7.311   8.302  0.3656  1.0310 -1.4259
  155SAPE   H7Y17311   1.912   7.413   8.412  0.5233  0.5254  0.7152
  155SAPE   C3817312   1.826   7.508   8.226 -0.4326 -0.6641 -0.4739
  155SAPE   H8X17313   1.919   7.499   8.167 -1.8608 -1.1546 -2.7595
  155SAPE   H8Y17314   1.827   7.609   8.272 -0.5488 -0.8144 -0.1361
  155SAPE   C3917315   1.708   7.486   8.129  0.4087  0.2642  0.6568
  155SAPE   H9X17316   1.618   7.484   8.195  1.4287 -3.6343  2.1810
  155SAPE   H9Y17317   1.721   7.389   8.077  0.6915  0.8451 -0.3894
  155SAPE  C31017318   1.701   7.598   8.025  0.7520  0.0631 -0.3836
  155SAPE  H10X17319   1.802   7.606   7.980  0.9952  2.1321  0.4305
  155SAPE  H10Y17320   1.687   7.697   8.074  2.1177 -1.1098  2.5938
  155SAPE  C31117321   1.597   7.576   7.912  0.4162 -0.5332 -0.0516
  155SAPE  H11X17322   1.497   7.572   7.960  0.6250  0.5347  0.4992
  155SAPE  H11Y17323   1.605   7.478   7.860  2.0008  0.1458 -1.1741
  155SAPE  C31217324   1.597   7.685   7.804 -0.2761 -0.2212  0.0606
  155SAPE  H12X17325   1.697   7.683   7.757 -0.2427  0.5213  0.0871
  155SAPE  H12Y17326   1.589   7.786   7.852 -2.9495 -0.2405 -0.1586
  155SAPE  C31317327   1.506   7.660   7.685  0.0090 -0.2717 -0.6046
  155SAPE  H13X17328   1.503   7.551   7.665 -1.0168 -0.4018  0.1960
  155SAPE  H13Y17329   1.542   7.720   7.598  0.6503 -0.9182 -0.7972
  155SAPE  C31417330   1.370   7.716   7.724 -0.1068 -0.7573 -0.2153
  155SAPE  H14X17331   1.377   7.827   7.726 -0.4097 -0.7392 -0.0745
  155SAPE  H14Y17332   1.347   7.674   7.824 -0.9195 -1.8461 -0.8454
  155SAPE  C31517333   1.259   7.666   7.634  0.0761 -0.3110 -0.1310
  155SAPE  H15X17334   1.260   7.556   7.643 -0.8711 -0.2770  0.6897
  155SAPE  H15Y17335   1.289   7.696   7.531 -1.8300  3.3079  0.1708
  155SAPE  C31617336   1.124   7.736   7.659 -0.8441  0.3442  0.1857
  155SAPE  H16X17337   1.110   7.727   7.768  1.5365 -0.3052  0.4892
  155SAPE  H16Y17338   1.049   7.683   7.595 -0.1356  0.2680 -0.6074
  155SAPE  C31717339   1.118   7.885   7.615  0.4738 -0.1111 -0.5822
  155SAPE  H17X17340   1.219   7.930   7.617  0.7526 -0.7456  0.2265
  155SAPE  H17Y17341   1.057   7.937   7.692  0.5465 -0.9284  0.0381
  155SAPE  C31817342   1.053   7.904   7.482 -0.0015 -0.4869 -0.0083
  155SAPE  H18X17343   1.066   8.012   7.459  1.3705 -0.1784  1.9214
  155SAPE  H18Y17344   0.945   7.880   7.489 -0.7692  2.4712 -0.5931
  155SAPE  H18Z17345   1.099   7.836   7.406 -1.1211  0.1476 -1.2886
  156SAPE     N17346   7.086   5.841   9.896  0.3809  0.1382  0.8725
  156SAPE   HN117347   7.131   5.814   9.985 -0.2919 -1.0882  0.8650
  156SAPE   HN217348   7.124   5.937   9.881  2.6531 -0.6207  1.4317
  156SAPE   HN317349   6.985   5.854   9.918 -0.4587 -0.0642 -2.3538
  156SAPE   C1217350   7.116   5.739   9.789 -1.0438  0.7645  0.2469
  156SAPE  H12A17351   7.080   5.640   9.823  0.8079 -0.5517 -1.4076
  156SAPE  H12B17352   7.227   5.728   9.785 -0.9211  0.2558  3.0794
  156SAPE   C1117353   7.045   5.762   9.661 -0.1546 -0.4409 -0.1853
  156SAPE  H11A17354   7.072   5.680   9.590 -3.3887 -0.0341 -2.0931
  156SAPE  H11B17355   7.092   5.855   9.623 -0.0399  1.0551  3.2930
  156SAPE     P17356   6.830   5.899   9.648  0.2217 -0.0377 -0.0831
  156SAPE   O1317357   6.684   5.875   9.671 -0.2736  0.0598  0.1204
  156SAPE   O1417358   6.891   6.007   9.727 -0.9972 -0.2256 -0.1197
  156SAPE   O1217359   6.901   5.761   9.674 -0.4794 -0.1889  0.3683
  156SAPE   O1117360   6.860   5.917   9.493  0.1686 -0.0637 -0.4158
  156SAPE    C117361   6.831   5.821   9.394  0.1125 -0.4527  0.1918
  156SAPE    HA17362   6.841   5.713   9.420  0.3787 -0.8619 -1.4639
  156SAPE    HB17363   6.731   5.848   9.353  0.9174  0.9036 -0.9787
  156SAPE    C217364   6.923   5.843   9.270 -0.7479 -0.2661 -0.6961
  156SAPE    HS17365   6.894   5.937   9.218 -2.3895 -1.2764 -1.7058
  156SAPE   O2117366   6.910   5.725   9.175 -0.7984 -0.1394 -0.1996
  156SAPE   C2117367   6.801   5.743   9.099  0.3325  0.4661  0.6674
  156SAPE   O2217368   6.707   5.810   9.125 -0.1540 -0.1606  0.3875
  156SAPE   C2217369   6.806   5.637   8.984  0.6714 -0.2224 -0.0746
  156SAPE   H2R17370   6.883   5.657   8.906 -0.0165  0.1658 -0.6648
  156SAPE   H2S17371   6.834   5.539   9.028 -0.3765 -1.5118 -2.1389
  156SAPE    C317372   7.067   5.836   9.334 -0.3685 -0.7545 -0.2838
  156SAPE    HX17373   7.065   5.740   9.389  0.5111  0.2911  1.6473
  156SAPE    HY17374   7.093   5.910   9.412  2.4476 -2.9812  1.0418
  156SAPE   O3117375   7.162   5.846   9.230  0.3223 -0.2655 -0.1208
  156SAPE   C3117376   7.255   5.751   9.219  0.5610 -0.5291 -0.0346
  156SAPE   O3217377   7.273   5.661   9.296 -0.1317  0.2583 -0.2280
  156SAPE   C3217378   7.336   5.766   9.075  1.1761  0.1508 -0.0155
  156SAPE   H2X17379   7.437   5.724   9.096  0.8866 -1.2702 -1.2839
  156SAPE   H2Y17380   7.341   5.875   9.054 -0.4492  0.6868  1.9565
  156SAPE   C2317381   6.673   5.626   8.907 -1.0636 -0.0228  0.3279
  156SAPE   H3R17382   6.641   5.726   8.870  0.1592 -0.1129 -1.0550
  156SAPE   H3S17383   6.586   5.586   8.963  0.2514 -2.1607  0.9859
  156SAPE   C2417384   6.698   5.548   8.779  0.0845 -0.2803  0.0427
  156SAPE   H4R17385   6.725   5.445   8.810  0.8380  0.0930  0.6713
  156SAPE   H4S17386   6.779   5.601   8.725 -0.1067  0.0644  0.0914
  156SAPE   C2517387   6.577   5.531   8.692 -0.6463 -0.1995  0.7664
  156SAPE   H5R17388   6.489   5.489   8.744  0.2891 -1.0033  1.7454
  156SAPE   C2617389   6.556   5.581   8.571 -0.3705 -0.2757  0.4301
  156SAPE   H6R17390   6.461   5.568   8.517  0.9419  0.4816 -2.2685
  156SAPE   C2717391   6.656   5.662   8.500 -1.0768 -0.3552 -0.4772
  156SAPE   H7R17392   6.710   5.724   8.575  1.3565 -2.7900 -0.0906
  156SAPE   H7S17393   6.616   5.741   8.433 -0.4594  2.0634  1.8211
  156SAPE   C2817394   6.742   5.571   8.419  0.1565  0.0309 -0.6499
  156SAPE   H8R17395   6.811   5.506   8.476  2.0273  1.2262 -1.4446
  156SAPE   C2917396   6.723   5.538   8.289 -0.0500  0.4966  0.3306
  156SAPE   H9R17397   6.798   5.472   8.241 -1.2225  1.3848 -2.9673
  156SAPE  C21017398   6.612   5.595   8.198 -0.0800 -0.5417  0.1558
  156SAPE  H10R17399   6.660   5.678   8.143 -1.8819  1.6846  1.7278
  156SAPE  H10S17400   6.540   5.661   8.251  0.6833  0.7086 -0.3084
  156SAPE  C21117401   6.538   5.509   8.103  0.4502 -0.1963  0.4037
  156SAPE  H11R17402   6.455   5.447   8.141 -1.8531  2.6011  0.3351
  156SAPE  C21217403   6.580   5.486   7.983 -0.0750 -0.4502 -0.2104
  156SAPE  H12R17404   6.506   5.439   7.916  0.2546 -1.1550 -0.0898
  156SAPE  C21317405   6.700   5.533   7.910 -0.3721 -0.4454 -0.0929
  156SAPE  H13R17406   6.780   5.563   7.980 -1.5166  1.3995  0.5088
  156SAPE  H13S17407   6.684   5.629   7.857  1.5761  1.1307  1.9633
  156SAPE  C21417408   6.747   5.424   7.820  0.4531 -0.9351  0.5967
  156SAPE  H14R17409   6.792   5.337   7.870 -1.3615 -2.8092 -0.8704
  156SAPE  C21517410   6.747   5.426   7.684  0.3074 -0.4218 -0.2663
  156SAPE  H15R17411   6.783   5.335   7.633  0.3803 -0.7231  0.3203
  156SAPE  C21617412   6.706   5.539   7.597 -0.7875  0.1397  0.5049
  156SAPE  H16R17413   6.677   5.628   7.657 -0.0469  0.9619 -0.3145
  156SAPE  H16S17414   6.619   5.505   7.537 -0.8617  1.8300 -0.4232
  156SAPE  C21717415   6.818   5.565   7.497 -0.0270 -0.3326 -0.1166
  156SAPE  H17R17416   6.784   5.634   7.416 -1.4462 -0.1374  0.6040
  156SAPE  H17S17417   6.837   5.469   7.444  2.0153  0.2043 -0.4328
  156SAPE  C21817418   6.947   5.620   7.559 -0.2281 -1.0257  0.3380
  156SAPE  H18R17419   7.022   5.645   7.481  1.2776 -0.9588  1.7803
  156SAPE  H18S17420   6.994   5.553   7.633 -0.3042 -0.5732  0.7988
  156SAPE  C21917421   6.934   5.751   7.635  0.6931  0.0970 -0.2015
  156SAPE  H19R17422   6.867   5.725   7.720 -1.1987  0.9790 -1.3499
  156SAPE  H19S17423   6.886   5.832   7.576  0.8966  0.8354  0.6390
  156SAPE  C22017424   7.068   5.805   7.688  0.0465  0.0114 -0.1544
  156SAPE  H20R17425   7.049   5.902   7.737  1.3884  0.8126 -1.1572
  156SAPE  H20S17426   7.143   5.816   7.607  0.0525 -1.0868 -0.3186
  156SAPE  H20T17427   7.113   5.739   7.765 -1.6985  0.2480  1.1258
  156SAPE   C3317428   7.279   5.690   8.957 -0.7577  0.5381 -0.3211
  156SAPE   H3X17429   7.239   5.589   8.979  0.2900  0.0593 -0.5302
  156SAPE   H3Y17430   7.366   5.682   8.888  0.2985 -1.3143  1.1291
  156SAPE   C3417431   7.167   5.766   8.901 -0.5254 -0.0317  0.4626
  156SAPE   H4X17432   7.199   5.873   8.898  0.8511 -0.2247  3.8240
  156SAPE   H4Y17433   7.078   5.771   8.966 -0.1854  0.0488  0.9278
  156SAPE   C3517434   7.136   5.722   8.752  0.2835  0.3914 -0.4720
  156SAPE   H5X17435   7.065   5.637   8.758 -0.7179  1.1802 -0.9266
  156SAPE   H5Y17436   7.234   5.676   8.726 -0.3642 -0.5409 -1.3403
  156SAPE   C3617437   7.115   5.839   8.653 -0.0514 -0.0220  0.4142
  156SAPE   H6X17438   7.212   5.888   8.630  0.5604 -0.7343  1.3629
  156SAPE   H6Y17439   7.055   5.923   8.693  0.0214  0.6468 -0.8468
  156SAPE   C3717440   7.064   5.808   8.517 -0.2517  0.2539 -0.1931
  156SAPE   H7X17441   7.058   5.905   8.463  2.1164  0.9330  0.6008
  156SAPE   H7Y17442   6.962   5.765   8.518  0.5362 -1.8463 -2.0017
  156SAPE   C3817443   7.146   5.697   8.447  0.3624  0.1251  0.7683
  156SAPE   H8X17444   7.102   5.604   8.488 -1.1241  0.3799 -0.1765
  156SAPE   H8Y17445   7.254   5.705   8.472 -0.0706  0.9973  2.5128
  156SAPE   C3917446   7.120   5.696   8.298 -0.0108 -0.3469  0.1231
  156SAPE   H9X17447   7.146   5.800   8.269 -0.3679  1.2259  4.6670
  156SAPE   H9Y17448   7.015   5.692   8.261 -0.0597  0.4696  0.1655
  156SAPE  C31017449   7.207   5.599   8.221  0.3068 -0.5209  0.8076
  156SAPE  H10X17450   7.177   5.497   8.252 -0.8857  0.1731  2.0917
  156SAPE  H10Y17451   7.315   5.618   8.238  0.5291 -1.9481  1.0787
  156SAPE  C31117452   7.184   5.617   8.067  0.6209 -0.2270  0.6105
  156SAPE  H11X17453   7.235   5.703   8.018  0.4748 -0.7175 -0.4390
  156SAPE  H11Y17454   7.075   5.637   8.063  0.9022  1.2683  0.0745
  156SAPE  C31217455   7.210   5.491   7.986 -0.0116 -0.0281  0.1008
  156SAPE  H12X17456   7.318   5.467   7.984  0.4647  1.9067 -2.7046
  156SAPE  H12Y17457   7.189   5.518   7.881  2.1049  0.4050 -0.2552
  156SAPE  C31317458   7.131   5.366   8.026  0.1345  0.2735  0.2639
  156SAPE  H13X17459   7.022   5.386   8.036 -0.0439 -0.7426  0.5039
  156SAPE  H13Y17460   7.164   5.316   8.120  2.3769  0.5248 -0.3413
  156SAPE  C31417461   7.137   5.260   7.919 -0.4998  0.5654 -0.4106
  156SAPE  H14X17462   7.240   5.224   7.902 -0.3401 -0.4073  2.1519
  156SAPE  H14Y17463   7.085   5.304   7.831 -0.3689 -1.2779 -1.4424
  156SAPE  C31517464   7.062   5.139   7.957  0.4539  0.6124 -0.2174
  156SAPE  H15X17465   6.959   5.161   7.992 -0.1748 -1.7485 -0.3929
  156SAPE  H15Y17466   7.103   5.087   8.046 -1.4274 -0.7879 -0.0885
  156SAPE  C31617467   7.038   5.035   7.838  0.4582 -0.1109 -0.6233
  156SAPE  H16X17468   6.995   5.092   7.753  1.6074  2.5285  0.4593
  156SAPE  H16Y17469   6.963   4.959   7.870  3.3480 -2.2188  1.7168
  156SAPE  C31717470   7.160   4.959   7.807  0.2296 -0.0605 -0.1702
  156SAPE  H17X17471   7.218   4.940   7.899 -0.8679  0.5990  0.6762
  156SAPE  H17Y17472   7.228   5.033   7.760  0.6132  0.2920  0.9193
  156SAPE  C31817473   7.147   4.826   7.731  0.6299  0.1835 -0.1822
  156SAPE  H18X17474   7.084   4.836   7.640 -0.5276 -0.3227  0.5554
  156SAPE  H18Y17475   7.094   4.755   7.798  0.3011  0.0956 -0.5314
  156SAPE  H18Z17476   7.245   4.777   7.712  1.3141  1.8026 -1.0738
  157SAPE     N17477   5.932   6.306   9.579  0.1187  0.1831 -0.0032
  157SAPE   HN117478   5.926   6.203   9.564 -0.2814  0.1622  0.3017
  157SAPE   HN217479   5.962   6.319   9.677 -1.4629  0.8670  0.4237
  157SAPE   HN317480   5.836   6.345   9.580 -0.4141 -1.1059  0.5975
  157SAPE   C1217481   6.019   6.362   9.470 -0.0693  0.4786  0.9878
  157SAPE  H12A17482   6.018   6.472   9.490  0.6320  0.3716  1.6468
  157SAPE  H12B17483   5.974   6.337   9.371 -0.4011 -1.3324  1.5600
  157SAPE   C1117484   6.161   6.318   9.488  0.4138  0.6465  0.2013
  157SAPE  H11A17485   6.223   6.354   9.403 -0.6816 -0.8565 -1.2829
  157SAPE  H11B17486   6.171   6.207   9.486  0.3760  0.5873 -3.6212
  157SAPE     P17487   6.318   6.309   9.701  0.3460  0.2761  0.1266
  157SAPE   O1317488   6.304   6.371   9.833 -0.1416  0.2896 -0.0752
  157SAPE   O1417489   6.320   6.161   9.688 -0.2961  0.8869  0.3215
  157SAPE   O1217490   6.206   6.374   9.610  0.0595 -0.1420  0.7293
  157SAPE   O1117491   6.451   6.360   9.645  0.0444  0.1423  0.7836
  157SAPE    C117492   6.458   6.495   9.603  0.0602 -0.4839 -0.3545
  157SAPE    HA17493   6.372   6.554   9.641  0.7858  0.6975 -0.4998
  157SAPE    HB17494   6.551   6.538   9.647  0.3983 -0.4916 -1.0560
  157SAPE    C217495   6.468   6.506   9.448  0.3095 -0.0194 -0.1218
  157SAPE    HS17496   6.362   6.496   9.415  0.7448  0.5394 -1.7872
  157SAPE   O2117497   6.559   6.399   9.402 -0.2097 -0.0541 -0.6044
  157SAPE   C2117498   6.507   6.324   9.299 -0.3703  0.1454 -0.3928
  157SAPE   O2217499   6.395   6.342   9.253  0.6094  0.1733  0.5596
  157SAPE   C2217500   6.600   6.204   9.265  0.2081  0.1063  0.1459
  157SAPE   H2R17501   6.694   6.250   9.229 -0.6244  1.5281 -0.2993
  157SAPE   H2S17502   6.610   6.152   9.362 -0.6026  1.0597  0.7637
  157SAPE    C317503   6.519   6.648   9.405 -0.0991  0.2662 -0.0564
  157SAPE    HX17504   6.629   6.638   9.409 -0.0815  0.5280  0.2059
  157SAPE    HY17505   6.493   6.721   9.485  1.2630 -0.5744  1.1954
  157SAPE   O3117506   6.462   6.678   9.279 -0.1817 -0.1807 -0.2641
  157SAPE   C3117507   6.547   6.725   9.190  0.5125 -0.6492 -0.0610
  157SAPE   O3217508   6.660   6.765   9.214 -0.0811 -0.1953  0.0317
  157SAPE   C3217509   6.469   6.716   9.058  0.0311  0.0233 -0.7587
  157SAPE   H2X17510   6.510   6.788   8.984  2.0577 -0.1099  0.1717
  157SAPE   H2Y17511   6.366   6.748   9.087  0.4307  0.2447  0.4380
  157SAPE   C2317512   6.546   6.115   9.155  0.4716 -0.5097 -0.2954
  157SAPE   H3R17513   6.445   6.077   9.180  0.8799 -1.5935 -0.2199
  157SAPE   H3S17514   6.603   6.020   9.163 -1.1143 -1.4995 -0.2812
  157SAPE   C2417515   6.551   6.162   9.006 -0.0318 -0.5694  0.2561
  157SAPE   H4R17516   6.648   6.216   8.996 -0.2974 -0.1629 -0.1730
  157SAPE   H4S17517   6.464   6.223   8.975  0.1735 -0.6287 -0.4521
  157SAPE   C2517518   6.584   6.040   8.912 -0.2804 -1.0534 -0.9230
  157SAPE   H5R17519   6.649   5.966   8.961 -0.6120 -1.1352 -0.6029
  157SAPE   C2617520   6.552   6.013   8.786 -0.2124  0.4009  0.5382
  157SAPE   H6R17521   6.590   5.922   8.738 -2.0833 -0.6598  0.9813
  157SAPE   C2717522   6.452   6.087   8.700  0.2569  0.5297  0.2323
  157SAPE   H7R17523   6.507   6.107   8.606 -1.8274 -0.8859 -1.4058
  157SAPE   H7S17524   6.397   6.172   8.747 -4.1849 -0.7807 -1.9620
  157SAPE   C2817525   6.344   5.988   8.654  0.5791 -0.7733 -0.0733
  157SAPE   H8R17526   6.330   5.906   8.725 -0.1529  0.2475  1.0013
  157SAPE   C2917527   6.264   6.007   8.550  0.0190  0.4996  0.2000
  157SAPE   H9R17528   6.208   5.914   8.533  0.1446  0.3644  0.5381
  157SAPE  C21017529   6.252   6.119   8.454  0.6340  0.1128  0.4928
  157SAPE  H10R17530   6.321   6.098   8.369  1.1357  0.7943  0.7249
  157SAPE  H10S17531   6.307   6.204   8.500  0.6303  0.3554  0.0562
  157SAPE  C21117532   6.113   6.166   8.419  0.5278 -0.4308 -0.5566
  157SAPE  H11R17533   6.052   6.179   8.510  2.2004 -3.3800  1.1526
  157SAPE  C21217534   6.059   6.184   8.294 -0.2512 -0.2406  0.2240
  157SAPE  H12R17535   5.964   6.239   8.286  0.2292  0.7107  0.8969
  157SAPE  C21317536   6.138   6.173   8.159 -0.6539  0.8521 -0.3837
  157SAPE  H13R17537   6.173   6.067   8.149 -0.4946  0.6822  1.6472
  157SAPE  H13S17538   6.235   6.226   8.175 -0.0522  0.4625 -2.3728
  157SAPE  C21417539   6.060   6.232   8.048 -0.1324 -0.3720  0.3975
  157SAPE  H14R17540   5.950   6.227   8.052 -0.3239  2.6817  1.8966
  157SAPE  C21517541   6.106   6.310   7.944 -0.4603  0.3166  0.1154
  157SAPE  H15R17542   6.038   6.349   7.866  0.3218  1.3834 -0.0647
  157SAPE  C21617543   6.252   6.349   7.932  0.0722 -0.3358  0.6632
  157SAPE  H16R17544   6.298   6.320   7.835 -0.9160  1.4066 -0.3717
  157SAPE  H16S17545   6.322   6.301   8.004  0.1245  0.8139  1.4120
  157SAPE  C21717546   6.265   6.500   7.957 -0.3741  0.2076  1.1160
  157SAPE  H17R17547   6.222   6.533   8.054 -2.7776 -2.9718  1.2935
  157SAPE  H17S17548   6.200   6.556   7.886  0.2922 -1.0650 -0.5887
  157SAPE  C21817549   6.414   6.538   7.948 -0.4903  0.1792 -0.0565
  157SAPE  H18R17550   6.478   6.493   8.027 -0.1305  0.7785  0.0004
  157SAPE  H18S17551   6.417   6.646   7.973  3.6453  0.7505 -2.1013
  157SAPE  C21917552   6.470   6.525   7.811 -0.0753 -0.2831 -0.3265
  157SAPE  H19R17553   6.404   6.580   7.741 -0.3465  0.2209  0.3199
  157SAPE  H19S17554   6.459   6.421   7.772 -0.3015  0.1201 -1.3768
  157SAPE  C22017555   6.614   6.573   7.795 -0.4686 -0.3359  0.0383
  157SAPE  H20R17556   6.662   6.574   7.695 -2.1059  1.3621 -0.8064
  157SAPE  H20S17557   6.678   6.518   7.867  1.1098  1.3682  0.0162
  157SAPE  H20T17558   6.607   6.681   7.824  1.2904 -0.6373  1.7473
  157SAPE   C3317559   6.470   6.577   8.994  0.0675 -0.1759  0.5511
  157SAPE   H3X17560   6.416   6.513   9.068 -1.5040  1.7282  1.1462
  157SAPE   H3Y17561   6.571   6.536   8.974 -0.6113 -1.6120 -0.1161
  157SAPE   C3417562   6.391   6.573   8.862  0.6303  0.2207  0.2742
  157SAPE   H4X17563   6.310   6.648   8.866 -1.4423 -1.9557  1.6467
  157SAPE   H4Y17564   6.333   6.479   8.849  0.0294  0.0365  3.4835
  157SAPE   C3517565   6.479   6.580   8.737 -0.9178  0.3082 -0.1067
  157SAPE   H5X17566   6.560   6.504   8.741 -1.5079 -0.3105  0.3842
  157SAPE   H5Y17567   6.528   6.676   8.713 -2.5324  0.6457 -2.3461
  157SAPE   C3617568   6.403   6.550   8.609 -0.0059 -0.5598 -0.6214
  157SAPE   H6X17569   6.330   6.633   8.597  0.7234  0.0238 -1.0604
  157SAPE   H6Y17570   6.346   6.457   8.632 -2.2584  0.7934 -0.4100
  157SAPE   C3717571   6.491   6.534   8.487  0.3892 -0.6278 -0.6434
  157SAPE   H7X17572   6.573   6.609   8.484  0.0234 -0.0669  1.6436
  157SAPE   H7Y17573   6.428   6.556   8.398 -0.3815  1.3847  0.3345
  157SAPE   C3817574   6.549   6.392   8.483 -0.0263  0.0971  0.1855
  157SAPE   H8X17575   6.473   6.318   8.514  1.6111 -1.1604  1.3455
  157SAPE   H8Y17576   6.626   6.366   8.558  1.5446 -0.7697 -1.6245
  157SAPE   C3917577   6.608   6.359   8.348  0.2276 -0.5188  0.1590
  157SAPE   H9X17578   6.705   6.408   8.331  0.7393 -1.4548  0.2993
  157SAPE   H9Y17579   6.543   6.397   8.267 -0.7933  1.7642  1.9278
  157SAPE  C31017580   6.645   6.208   8.321 -0.4235 -0.4169  0.4219
  157SAPE  H10X17581   6.553   6.146   8.333 -0.9892 -0.2189 -2.2219
  157SAPE  H10Y17582   6.719   6.174   8.396 -0.3545 -0.6390  0.2570
  157SAPE  C31117583   6.704   6.178   8.180 -0.0844  0.0140  0.6871
  157SAPE  H11X17584   6.792   6.112   8.192  0.9199  1.0969 -0.4475
  157SAPE  H11Y17585   6.741   6.267   8.126 -1.6671 -0.8777 -2.0961
  157SAPE  C31217586   6.601   6.109   8.088 -0.4801 -0.6952 -0.5169
  157SAPE  H12X17587   6.504   6.163   8.078 -0.9049 -1.4991 -0.8090
  157SAPE  H12Y17588   6.575   6.012   8.133 -0.5370 -0.0377  0.9029
  157SAPE  C31317589   6.663   6.075   7.952 -0.0101  0.2573 -0.6766
  157SAPE  H13X17590   6.743   6.002   7.975 -1.0732  0.0228  2.9656
  157SAPE  H13Y17591   6.711   6.168   7.914  2.3619  0.1782  1.8095
  157SAPE  C31417592   6.558   6.026   7.857  0.5508  0.1748 -0.0695
  157SAPE  H14X17593   6.464   6.086   7.858  0.8455  0.6510 -0.5278
  157SAPE  H14Y17594   6.530   5.928   7.901 -1.1809  1.0914  0.9780
  157SAPE  C31517595   6.614   6.008   7.715 -0.4617 -0.2807 -0.0146
  157SAPE  H15X17596   6.545   5.943   7.657 -0.0542 -1.2320  0.5505
  157SAPE  H15Y17597   6.713   5.958   7.720 -0.6517 -0.6687 -0.1041
  157SAPE  C31617598   6.633   6.144   7.646 -0.0719  0.3313  0.4719
  157SAPE  H16X17599   6.710   6.211   7.689 -1.4704  1.1515  1.7974
  157SAPE  H16Y17600   6.534   6.193   7.653 -1.3949 -2.3757  2.1315
  157SAPE  C31717601   6.660   6.124   7.496 -0.0157 -0.1334  0.5680
  157SAPE  H17X17602   6.579   6.075   7.438  1.4620 -1.7291 -0.2576
  157SAPE  H17Y17603   6.747   6.059   7.472  0.6052  1.3516 -1.5196
  157SAPE  C31817604   6.695   6.266   7.441  0.5472 -0.1417  0.3127
  157SAPE  H18X17605   6.775   6.291   7.513  1.9629 -1.2965 -0.7846
  157SAPE  H18Y17606   6.608   6.335   7.451 -0.6852 -1.3465 -1.4720
  157SAPE  H18Z17607   6.740   6.259   7.339 -1.1260 -0.0810 -0.4735
  158SAPE     N17608   6.876   6.433   9.858 -0.6882 -0.1914  0.2146
  158SAPE   HN117609   6.902   6.479   9.768  0.5298  1.0139  1.1354
  158SAPE   HN217610   6.970   6.406   9.894 -1.1665 -0.9123  0.9416
  158SAPE   HN317611   6.825   6.343   9.851 -0.9045 -0.1461  1.0762
  158SAPE   C1217612   6.814   6.533   9.942 -0.3937  0.5089 -0.0522
  158SAPE  H12A17613   6.895   6.573  10.006  0.9611 -1.0277 -0.7220
  158SAPE  H12B17614   6.751   6.470  10.008  0.3503  1.4049  1.5837
  158SAPE   C1117615   6.741   6.646   9.875  0.7154  0.1536 -0.3518
  158SAPE  H11A17616   6.668   6.676   9.953 -0.4429 -1.1743 -0.8949
  158SAPE  H11B17617   6.690   6.600   9.788  2.0005 -1.2550 -0.4095
  158SAPE     P17618   6.899   6.756   9.709  0.0583 -0.2753  0.1178
  158SAPE   O1317619   6.833   6.857   9.622  0.2057 -0.0169  0.1281
  158SAPE   O1417620   7.043   6.784   9.739  0.0161 -0.5734  0.3764
  158SAPE   O1217621   6.822   6.756   9.844 -0.0358 -0.6886 -0.5076
  158SAPE   O1117622   6.879   6.609   9.660  0.2419 -0.0743  0.1471
  158SAPE    C117623   6.888   6.566   9.521  0.1883 -0.2217  0.3611
  158SAPE    HA17624   6.829   6.473   9.505 -0.8665  0.1928  1.6734
  158SAPE    HB17625   6.841   6.639   9.452 -0.6324  0.4772  1.6167
  158SAPE    C217626   7.035   6.545   9.477 -0.3893 -0.0103  0.4038
  158SAPE    HS17627   7.083   6.505   9.569  1.0471  2.3345  0.7763
  158SAPE   O2117628   7.096   6.673   9.451 -0.1907 -0.0953 -1.2980
  158SAPE   C2117629   7.227   6.682   9.456 -0.1324 -0.0492  0.2258
  158SAPE   O2217630   7.309   6.587   9.468 -0.1700 -0.6528 -0.3077
  158SAPE   C2217631   7.261   6.828   9.455 -0.2641 -0.8686 -0.6338
  158SAPE   H2R17632   7.171   6.888   9.430  0.9121  0.4259 -1.9706
  158SAPE   H2S17633   7.296   6.853   9.557 -0.6457  1.0627 -0.9511
  158SAPE    C317634   7.046   6.446   9.363  0.4359 -0.0684  0.8805
  158SAPE    HX17635   6.992   6.351   9.381 -1.9666  1.2583  1.0375
  158SAPE    HY17636   7.153   6.425   9.343  0.6253  2.1647 -0.9134
  158SAPE   O3117637   7.027   6.502   9.234 -0.2353 -1.4200 -0.0799
  158SAPE   C3117638   6.906   6.498   9.186  0.0277 -0.6801 -0.1463
  158SAPE   O3217639   6.805   6.464   9.246 -0.2313  0.5994  0.0845
  158SAPE   C3217640   6.902   6.559   9.042 -0.0312  0.3908 -1.0667
  158SAPE   H2X17641   6.949   6.659   9.051  0.4477  0.0462  0.6124
  158SAPE   H2Y17642   6.795   6.578   9.017 -0.6253 -1.2996  0.0106
  158SAPE   C2317643   7.382   6.872   9.359  0.2013 -0.2076  0.5913
  158SAPE   H3R17644   7.477   6.831   9.398 -0.9222 -2.3753  1.2247
  158SAPE   H3S17645   7.401   6.980   9.371  3.2364 -0.7481  1.4141
  158SAPE   C2417646   7.378   6.821   9.208  0.2223  0.0303 -0.1646
  158SAPE   H4R17647   7.383   6.710   9.212 -0.3618 -0.0525 -1.3160
  158SAPE   H4S17648   7.465   6.864   9.154 -0.7086  1.5093 -0.5402
  158SAPE   C2517649   7.250   6.860   9.139 -0.1685  0.1263  0.2217
  158SAPE   H5R17650   7.182   6.930   9.189  0.4418 -0.1960  1.5646
  158SAPE   C2617651   7.205   6.803   9.023 -0.5165 -0.2066  0.1930
  158SAPE   H6R17652   7.104   6.825   8.986  0.0781 -0.6994 -1.8369
  158SAPE   C2717653   7.271   6.698   8.932  0.2228 -0.0594 -0.4288
  158SAPE   H7R17654   7.196   6.655   8.862  0.8373  1.4034 -2.0482
  158SAPE   H7S17655   7.325   6.619   8.989  1.8497  0.1126 -1.6744
  158SAPE   C2817656   7.364   6.758   8.830 -0.3914 -0.2178 -0.7146
  158SAPE   H8R17657   7.420   6.846   8.864  1.0511 -1.3850  0.0904
  158SAPE   C2917658   7.407   6.709   8.707  0.1288 -0.0320  0.8899
  158SAPE   H9R17659   7.477   6.760   8.639 -0.3603 -0.1807  0.2655
  158SAPE  C21017660   7.355   6.588   8.643  0.1459 -0.7264 -0.1892
  158SAPE  H10R17661   7.284   6.621   8.564 -1.1765  0.9258  1.5726
  158SAPE  H10S17662   7.298   6.527   8.717 -0.4145  2.7019  2.4893
  158SAPE  C21117663   7.457   6.499   8.576 -0.3549 -0.3703  0.2301
  158SAPE  H11R17664   7.533   6.459   8.645 -0.3464 -2.4224 -0.8715
  158SAPE  C21217665   7.484   6.490   8.439  0.0561 -0.2980 -0.0172
  158SAPE  H12R17666   7.554   6.415   8.399 -0.1086 -0.6194  0.2923
  158SAPE  C21317667   7.406   6.564   8.329 -0.4838 -0.8120  0.8682
  158SAPE  H13R17668   7.302   6.524   8.324 -1.1891  0.9537  0.6133
  158SAPE  H13S17669   7.450   6.528   8.233 -0.2630  1.8850 -0.1320
  158SAPE  C21417670   7.401   6.714   8.324  0.7174  0.5291  0.0406
  158SAPE  H14R17671   7.367   6.758   8.419 -0.8630  3.3992 -1.6857
  158SAPE  C21517672   7.451   6.800   8.231  0.2135 -0.2883 -0.0669
  158SAPE  H15R17673   7.432   6.907   8.241 -0.1082 -0.3567  0.0706
  158SAPE  C21617674   7.490   6.765   8.091  0.0852  0.1952  0.3362
  158SAPE  H16R17675   7.468   6.659   8.067  0.2858  0.8792 -3.6556
  158SAPE  H16S17676   7.597   6.795   8.087  0.2850  0.5424  4.3127
  158SAPE  C21717677   7.418   6.846   7.985  0.0494  0.2873 -0.0395
  158SAPE  H17R17678   7.403   6.952   8.015  1.9403  0.5473  0.1190
  158SAPE  H17S17679   7.319   6.796   7.971  1.0498 -2.0218  0.6272
  158SAPE  C21817680   7.498   6.870   7.857 -0.1056  0.6338  0.1426
  158SAPE  H18R17681   7.445   6.934   7.783  1.4594  1.4477 -0.3032
  158SAPE  H18S17682   7.504   6.774   7.800 -0.2184  0.4639  0.4117
  158SAPE  C21917683   7.644   6.930   7.869 -0.1992  0.9868 -0.8219
  158SAPE  H19R17684   7.688   6.926   7.767 -0.2215 -0.0480 -0.8005
  158SAPE  H19S17685   7.708   6.856   7.920 -0.5577  1.2297  0.0085
  158SAPE  C22017686   7.641   7.071   7.931  0.5242 -0.2815 -0.3476
  158SAPE  H20R17687   7.739   7.123   7.937 -0.2686  1.3660 -1.2608
  158SAPE  H20S17688   7.595   7.069   8.032  0.7062  4.6552  0.0639
  158SAPE  H20T17689   7.564   7.127   7.873 -1.1896 -4.3396 -2.4177
  158SAPE   C3317690   6.968   6.465   8.940 -0.3987  0.4204  1.6055
  158SAPE   H3X17691   7.070   6.429   8.963 -0.0698 -0.4369 -0.8231
  158SAPE   H3Y17692   6.984   6.532   8.852  0.9319 -1.5982  0.2065
  158SAPE   C3417693   6.872   6.347   8.894 -0.1525  0.1346  0.5358
  158SAPE   H4X17694   6.784   6.378   8.833  0.4620 -2.0954 -1.6169
  158SAPE   H4Y17695   6.850   6.292   8.988  0.3812  2.8851  2.4049
  158SAPE   C3517696   6.926   6.242   8.787  0.0973  0.1946  0.2417
  158SAPE   H5X17697   6.856   6.157   8.772 -1.7251  2.0463 -2.9327
  158SAPE   H5Y17698   7.018   6.200   8.833  0.7701  1.7812  0.4014
  158SAPE   C3617699   6.973   6.305   8.655  0.4872 -0.2309 -0.4139
  158SAPE   H6X17700   7.040   6.390   8.680  0.9837 -0.7253 -0.0168
  158SAPE   H6Y17701   6.889   6.351   8.599 -1.0288 -1.1391  0.9907
  158SAPE   C3717702   7.051   6.208   8.560 -0.8806  0.3950 -0.6522
  158SAPE   H7X17703   6.971   6.152   8.507  0.0427 -0.7758 -0.8579
  158SAPE   H7Y17704   7.111   6.145   8.629 -1.2086  0.9096  0.1094
  158SAPE   C3817705   7.134   6.271   8.453  0.0574  0.1938 -0.8181
  158SAPE   H8X17706   7.213   6.195   8.438  0.5239  0.7819 -1.3748
  158SAPE   H8Y17707   7.177   6.362   8.500 -1.0174  0.7440 -0.8527
  158SAPE   C3917708   7.066   6.310   8.319 -0.2295  0.6009 -1.0086
  158SAPE   H9X17709   7.121   6.393   8.268  0.0180 -0.4592 -2.5361
  158SAPE   H9Y17710   6.964   6.339   8.352  0.3905  0.7983  0.8331
  158SAPE  C31017711   7.069   6.186   8.223  0.0213  0.0738 -0.4771
  158SAPE  H10X17712   6.991   6.210   8.147  0.2798 -1.1938 -1.1591
  158SAPE  H10Y17713   7.030   6.101   8.282 -1.8057  1.2573  0.1133
  158SAPE  C31117714   7.197   6.155   8.154 -0.1448  0.5078 -0.4862
  158SAPE  H11X17715   7.274   6.137   8.232 -1.9630 -0.6444  1.1201
  158SAPE  H11Y17716   7.242   6.244   8.104 -0.8962  1.6284  0.7454
  158SAPE  C31217717   7.182   6.052   8.047  0.3114  0.1398 -0.3841
  158SAPE  H12X17718   7.108   6.078   7.969  0.9974  0.8535 -0.8010
  158SAPE  H12Y17719   7.140   5.965   8.102  0.6230  1.0763  1.4237
  158SAPE  C31317720   7.313   6.015   7.968 -0.6026  0.1791  0.4445
  158SAPE  H13X17721   7.278   5.968   7.874  0.1202  1.0529 -0.2798
  158SAPE  H13Y17722   7.378   5.950   8.032 -0.7680 -0.1649  0.2684
  158SAPE  C31417723   7.410   6.126   7.933 -0.1693  0.1819 -0.1648
  158SAPE  H14X17724   7.463   6.171   8.020  1.7550 -1.1689 -0.5776
  158SAPE  H14Y17725   7.353   6.193   7.866  1.3461 -0.4391 -2.1596
  158SAPE  C31517726   7.525   6.087   7.835 -0.0487 -0.4973  0.6789
  158SAPE  H15X17727   7.494   6.012   7.758  0.3377 -0.5233  0.5455
  158SAPE  H15Y17728   7.600   6.036   7.900  2.1636  2.2682  0.4875
  158SAPE  C31617729   7.578   6.211   7.760 -1.3791 -0.0410  0.3037
  158SAPE  H16X17730   7.512   6.234   7.674 -0.0843 -0.3092 -0.7887
  158SAPE  H16Y17731   7.671   6.181   7.709 -0.3945  2.7151  0.2860
  158SAPE  C31717732   7.615   6.337   7.841  0.0966  0.2654  0.3816
  158SAPE  H17X17733   7.676   6.315   7.931  0.5169  2.2184  0.6122
  158SAPE  H17Y17734   7.525   6.392   7.877 -0.9085 -0.5651 -0.7820
  158SAPE  C31817735   7.694   6.435   7.752 -0.5518  0.3557 -0.0780
  158SAPE  H18X17736   7.630   6.464   7.666  2.1536 -0.5038 -2.5551
  158SAPE  H18Y17737   7.789   6.398   7.708 -1.0525 -0.1927 -0.7268
  158SAPE  H18Z17738   7.723   6.522   7.815  0.8092 -0.9302  1.1211
  159SAPE     N17739   3.775   2.353   5.767 -0.1310  0.0975  0.1040
  159SAPE   HN117740   3.840   2.433   5.750  2.0880 -1.5871  0.1508
  159SAPE   HN217741   3.812   2.277   5.828 -2.1383 -1.5513 -0.6158
  159SAPE   HN317742   3.744   2.299   5.683 -0.7326 -1.6983  1.4257
  159SAPE   C1217743   3.647   2.402   5.827  0.0766  0.8879 -0.2560
  159SAPE  H12A17744   3.579   2.318   5.854  1.4308  0.1435  0.9920
  159SAPE  H12B17745   3.590   2.452   5.746 -0.1516 -0.9654 -1.2837
  159SAPE   C1117746   3.667   2.489   5.944 -0.0690  0.1504 -0.2972
  159SAPE  H11A17747   3.725   2.426   6.015 -0.1122 -0.0592 -0.4500
  159SAPE  H11B17748   3.573   2.521   5.993  0.0784 -1.6727  1.2732
  159SAPE     P17749   3.697   2.748   5.928  0.1092  0.0164 -0.1597
  159SAPE   O1317750   3.792   2.840   5.863 -0.5118  0.5091 -0.1778
  159SAPE   O1417751   3.558   2.753   5.881 -0.1004  0.1190  0.4640
  159SAPE   O1217752   3.746   2.602   5.906  0.4326 -0.1708  0.1491
  159SAPE   O1117753   3.699   2.766   6.088 -0.6411 -0.0225  0.8863
  159SAPE    C117754   3.818   2.733   6.154  0.1146 -0.0219 -0.1633
  159SAPE    HA17755   3.858   2.631   6.132 -0.7713 -0.4274  0.0393
  159SAPE    HB17756   3.888   2.813   6.123 -1.7335  1.0384 -1.8174
  159SAPE    C217757   3.808   2.758   6.309  0.7223  0.6808 -0.4963
  159SAPE    HS17758   3.908   2.766   6.357  0.4377  1.3473 -0.0028
  159SAPE   O2117759   3.734   2.652   6.377 -0.3123 -0.1363 -0.8084
  159SAPE   C2117760   3.787   2.521   6.375  0.6801 -0.6698 -0.6004
  159SAPE   O2217761   3.884   2.491   6.319 -0.4339 -0.5685  0.7328
  159SAPE   C2217762   3.689   2.419   6.434 -0.4147 -0.7221 -0.3892
  159SAPE   H2R17763   3.601   2.467   6.482 -0.8170 -0.3347 -1.4970
  159SAPE   H2S17764   3.650   2.370   6.343 -0.2457  0.2106 -0.9772
  159SAPE    C317765   3.728   2.888   6.334  0.0386 -0.0095  0.3736
  159SAPE    HX17766   3.622   2.868   6.307  0.1318 -0.3678  0.2520
  159SAPE    HY17767   3.774   2.972   6.277  0.1487 -0.0091  0.4645
  159SAPE   O3117768   3.739   2.926   6.471  0.1951  0.1381 -0.4775
  159SAPE   C3117769   3.671   3.039   6.501 -0.2410  0.4708  0.7143
  159SAPE   O3217770   3.615   3.111   6.424  0.8406 -0.5331 -0.2602
  159SAPE   C3217771   3.672   3.072   6.652 -0.3891  0.0369 -0.0465
  159SAPE   H2X17772   3.564   3.080   6.674 -0.1435  0.5052  1.0318
  159SAPE   H2Y17773   3.706   3.177   6.659 -1.8349  0.5203 -0.0811
  159SAPE   C2317774   3.740   2.319   6.540 -0.5836 -0.4693  0.2125
  159SAPE   H3R17775   3.846   2.300   6.513 -0.1212  2.2178 -0.0869
  159SAPE   H3S17776   3.686   2.222   6.529 -0.1726 -0.8390  1.3063
  159SAPE   C2417777   3.747   2.359   6.691  0.3445 -0.3077  0.7528
  159SAPE   H4R17778   3.792   2.460   6.692  0.9796 -0.5869  0.6249
  159SAPE   H4S17779   3.824   2.293   6.737  0.3843 -0.4651  0.4638
  159SAPE   C2517780   3.617   2.347   6.767  0.3010 -0.1056  0.3782
  159SAPE   H5R17781   3.593   2.248   6.808  0.4495 -0.4995 -0.4543
  159SAPE   C2617782   3.536   2.451   6.790  0.1481 -0.0318  0.7232
  159SAPE   H6R17783   3.448   2.431   6.853 -0.1247  1.7496  0.9732
  159SAPE   C2717784   3.559   2.593   6.760  0.1041 -0.1411  0.1472
  159SAPE   H7R17785   3.624   2.613   6.673 -0.4650  1.4871  0.0668
  159SAPE   H7S17786   3.603   2.639   6.851  1.8896  1.1635 -1.3011
  159SAPE   C2817787   3.423   2.650   6.724 -0.1100  0.4815 -0.0622
  159SAPE   H8R17788   3.393   2.642   6.619 -1.1307 -0.4191  0.2891
  159SAPE   C2917789   3.347   2.736   6.798 -0.1405  0.1348  0.0733
  159SAPE   H9R17790   3.246   2.762   6.762 -0.7876  0.8938  2.2398
  159SAPE  C21017791   3.376   2.771   6.946  0.1215  0.2930 -0.1412
  159SAPE  H10R17792   3.342   2.875   6.967 -0.4847 -0.2633  1.8639
  159SAPE  H10S17793   3.486   2.765   6.967  0.1220 -0.3096 -0.3094
  159SAPE  C21117794   3.315   2.664   7.031 -0.6926 -0.2998 -0.7404
  159SAPE  H11R17795   3.364   2.566   7.039 -0.6752 -0.5328 -3.0053
  159SAPE  C21217796   3.221   2.686   7.127 -0.4534  0.1958  0.4348
  159SAPE  H12R17797   3.168   2.608   7.184  0.0281 -0.0129  0.6061
  159SAPE  C21317798   3.162   2.822   7.149  0.3366 -0.1004 -0.1806
  159SAPE  H13R17799   3.110   2.859   7.058  1.2786 -1.8120 -1.4911
  159SAPE  H13S17800   3.243   2.896   7.166 -0.5152  1.1368 -1.3623
  159SAPE  C21417801   3.066   2.819   7.266  0.0543  0.5615 -0.2184
  159SAPE  H14R17802   2.967   2.796   7.224  0.2408 -3.3334  1.1245
  159SAPE  C21517803   3.086   2.845   7.403  0.3861  0.1875 -0.1236
  159SAPE  H15R17804   3.001   2.822   7.469  0.1618 -0.3110 -0.5724
  159SAPE  C21617805   3.210   2.877   7.479 -0.7913 -0.0563  0.1025
  159SAPE  H16R17806   3.297   2.859   7.413  0.5236  0.2587  1.6898
  159SAPE  H16S17807   3.231   2.822   7.573 -1.2093  0.8696  0.7558
  159SAPE  C21717808   3.211   3.029   7.521 -0.6133  0.4674 -0.1512
  159SAPE  H17R17809   3.126   3.035   7.593 -1.2681 -0.4724 -0.8256
  159SAPE  H17S17810   3.187   3.089   7.431 -1.7693 -0.1239 -0.2586
  159SAPE  C21817811   3.344   3.077   7.598  0.1855 -0.7911  0.3197
  159SAPE  H18R17812   3.432   3.086   7.531 -0.9459  2.0095 -0.9570
  159SAPE  H18S17813   3.357   3.007   7.683 -2.7956 -0.1502  1.4365
  159SAPE  C21917814   3.326   3.223   7.660  0.4873 -0.3386 -0.7484
  159SAPE  H19R17815   3.303   3.289   7.574  2.0511  0.6934 -0.4068
  159SAPE  H19S17816   3.421   3.254   7.707  1.4631 -3.6200 -0.2865
  159SAPE  C22017817   3.223   3.236   7.774  0.2782 -0.5050 -0.3537
  159SAPE  H20R17818   3.215   3.343   7.804 -0.8609  0.7176 -4.2816
  159SAPE  H20S17819   3.253   3.167   7.855  0.7894 -0.7771 -0.7654
  159SAPE  H20T17820   3.121   3.204   7.744 -1.8192  2.3153  2.9408
  159SAPE   C3317821   3.743   2.975   6.747  0.4808  0.5927  0.6317
  159SAPE   H3X17822   3.853   2.986   6.736  0.4337  2.7081  1.7760
  159SAPE   H3Y17823   3.721   2.869   6.723 -0.8169  1.0886 -0.5033
  159SAPE   C3417824   3.701   3.005   6.888 -0.2509  0.0013 -0.4847
  159SAPE   H4X17825   3.590   3.001   6.899 -0.2288 -0.1954 -0.3426
  159SAPE   H4Y17826   3.737   3.106   6.917  0.9369 -0.9403  1.5226
  159SAPE   C3517827   3.747   2.903   6.984  0.0644 -0.2646 -0.5650
  159SAPE   H5X17828   3.857   2.894   6.971  0.4985  1.2298  1.4886
  159SAPE   H5Y17829   3.707   2.801   6.963  1.2287 -0.8504 -0.0171
  159SAPE   C3617830   3.721   2.936   7.134 -0.7215  0.5005 -0.2150
  159SAPE   H6X17831   3.615   2.962   7.153 -0.3720  1.3029  0.7842
  159SAPE   H6Y17832   3.766   3.036   7.156  2.2586 -0.6135 -0.7510
  159SAPE   C3717833   3.759   2.824   7.231  0.1816  0.3024 -1.0858
  159SAPE   H7X17834   3.773   2.861   7.335  3.6390 -0.8268 -1.0315
  159SAPE   H7Y17835   3.856   2.775   7.207  0.3035 -0.3458  0.6169
  159SAPE   C3817836   3.658   2.706   7.233  0.0331  0.1441 -0.1846
  159SAPE   H8X17837   3.652   2.666   7.129  1.1363 -0.2859 -0.0963
  159SAPE   H8Y17838   3.565   2.759   7.263 -0.3989 -1.5712  1.7163
  159SAPE   C3917839   3.694   2.577   7.322  0.1631  0.3648  0.5874
  159SAPE   H9X17840   3.646   2.589   7.421 -0.0209 -0.2882  0.5811
  159SAPE   H9Y17841   3.805   2.580   7.333  0.1373  2.0132  0.6382
  159SAPE  C31017842   3.676   2.433   7.267  0.0958 -0.8443  1.0290
  159SAPE  H10X17843   3.682   2.435   7.156 -0.4760  1.2581  0.9892
  159SAPE  H10Y17844   3.572   2.401   7.286 -0.1063 -1.7037 -1.2458
  159SAPE  C31117845   3.768   2.326   7.325  0.4980  0.2336  0.5648
  159SAPE  H11X17846   3.751   2.316   7.434 -2.7081  1.5715  0.3111
  159SAPE  H11Y17847   3.871   2.366   7.335  0.2751  1.4331 -1.3734
  159SAPE  C31217848   3.772   2.191   7.256  0.0977 -0.2364 -0.4572
  159SAPE  H12X17849   3.732   2.127   7.338  1.8236 -1.2424 -0.3433
  159SAPE  H12Y17850   3.877   2.165   7.233  0.5084  2.5203 -2.0554
  159SAPE  C31317851   3.689   2.177   7.131  0.4168  0.1435 -0.7134
  159SAPE  H13X17852   3.747   2.226   7.051  4.1986 -2.2137  0.3216
  159SAPE  H13Y17853   3.588   2.220   7.151 -0.1739 -1.6692  0.4461
  159SAPE  C31417854   3.672   2.028   7.096  0.5703 -0.7748  0.4181
  159SAPE  H14X17855   3.643   1.967   7.184  1.5757 -2.5228 -0.4081
  159SAPE  H14Y17856   3.763   1.980   7.055  0.5213  0.6484 -1.4974
  159SAPE  C31517857   3.574   1.995   6.986  0.3013  0.0627  0.1787
  159SAPE  H15X17858   3.596   2.055   6.895 -0.8031  1.1892  0.6219
  159SAPE  H15Y17859   3.475   2.030   7.023  0.0965  0.1345 -0.4342
  159SAPE  C31617860   3.553   1.838   6.959  0.0799  0.6288  0.0281
  159SAPE  H16X17861   3.514   1.827   6.855  2.3364  1.1804 -0.9408
  159SAPE  H16Y17862   3.462   1.814   7.019  0.6298  1.6471  1.3207
  159SAPE  C31717863   3.663   1.731   6.971 -0.4302  0.1149 -1.0603
  159SAPE  H17X17864   3.693   1.729   7.078 -0.9222  1.6139 -0.8701
  159SAPE  H17Y17865   3.752   1.764   6.913 -0.3981 -0.6266 -1.4447
  159SAPE  C31817866   3.619   1.600   6.911 -0.8478  0.5248  0.4251
  159SAPE  H18X17867   3.639   1.587   6.802 -1.2740 -2.5925  0.6232
  159SAPE  H18Y17868   3.510   1.578   6.917 -0.9597  1.0038  0.1612
  159SAPE  H18Z17869   3.672   1.512   6.953 -0.1107  0.2123 -1.0727
  160SAPE     N17870   2.955   3.512   5.438 -0.5604 -0.1182  0.4678
  160SAPE   HN117871   3.045   3.484   5.394 -0.9558  1.2686 -1.3138
  160SAPE   HN217872   2.962   3.503   5.541  0.4315 -0.1592  0.4066
  160SAPE   HN317873   2.873   3.456   5.407  0.5896 -0.0941 -3.0534
  160SAPE   C1217874   2.917   3.650   5.383 -0.3717  0.0986  0.0016
  160SAPE  H12A17875   2.913   3.648   5.272  0.7716 -1.2385 -0.0459
  160SAPE  H12B17876   3.008   3.711   5.404  0.6932 -2.0079  2.0417
  160SAPE   C1117877   2.785   3.698   5.441 -0.1982 -0.3386 -0.1117
  160SAPE  H11A17878   2.775   3.808   5.440 -3.7714 -0.5173 -0.6119
  160SAPE  H11B17879   2.787   3.671   5.549  3.1048  0.2030  0.0482
  160SAPE     P17880   2.596   3.516   5.413  0.2451  0.0505 -0.3664
  160SAPE   O1317881   2.476   3.498   5.329 -0.4009  0.2954 -0.8224
  160SAPE   O1417882   2.688   3.402   5.418 -0.3238 -0.0967 -0.0768
  160SAPE   O1217883   2.678   3.637   5.361  0.0252  0.2194  0.5025
  160SAPE   O1117884   2.555   3.561   5.561  0.1662  0.2466  0.7705
  160SAPE    C117885   2.536   3.454   5.650  0.0649 -0.4161 -0.7817
  160SAPE    HA17886   2.454   3.385   5.621 -1.8722  1.2823  0.3960
  160SAPE    HB17887   2.625   3.390   5.665  1.4214  1.7827  1.1136
  160SAPE    C217888   2.520   3.506   5.793  0.0966 -0.7873  0.4661
  160SAPE    HS17889   2.545   3.419   5.857  1.0606  0.0084  1.2158
  160SAPE   O2117890   2.388   3.569   5.813 -0.1080  0.9862  0.3031
  160SAPE   C2117891   2.294   3.485   5.850 -0.1432  0.7295 -0.5920
  160SAPE   O2217892   2.309   3.371   5.882 -0.1609 -0.1026  0.0669
  160SAPE   C2217893   2.167   3.568   5.874 -0.2108  0.5519  0.4764
  160SAPE   H2R17894   2.133   3.615   5.779  0.3156  2.4857  1.1827
  160SAPE   H2S17895   2.099   3.497   5.925 -0.8140  0.4664 -0.4388
  160SAPE    C317896   2.618   3.625   5.825  0.8459  0.7682  0.1810
  160SAPE    HX17897   2.575   3.719   5.784  0.5283  1.0276  1.0963
  160SAPE    HY17898   2.707   3.600   5.762 -0.0946 -1.4884 -0.3811
  160SAPE   O3117899   2.638   3.649   5.963  0.0235 -0.2793  0.0932
  160SAPE   C3117900   2.708   3.565   6.034  0.1204  0.6555  0.6900
  160SAPE   O3217901   2.743   3.452   5.995  0.1371  0.1159  0.0809
  160SAPE   C3217902   2.734   3.623   6.173 -0.4757  0.8170  0.3869
  160SAPE   H2X17903   2.631   3.640   6.211 -0.3156  2.6107  0.0975
  160SAPE   H2Y17904   2.787   3.721   6.169 -0.9478  1.0371 -1.3710
  160SAPE   C2317905   2.199   3.700   5.952 -0.6531  0.1532 -0.3022
  160SAPE   H3R17906   2.113   3.770   5.955 -0.0691  0.8865  1.5827
  160SAPE   H3S17907   2.276   3.766   5.905  1.2339 -1.5742  0.2119
  160SAPE   C2417908   2.257   3.680   6.099 -0.0966 -0.5760  0.6642
  160SAPE   H4R17909   2.337   3.605   6.085  0.9480  0.4767  0.9098
  160SAPE   H4S17910   2.172   3.631   6.153 -0.7617 -1.3313 -1.0155
  160SAPE   C2517911   2.308   3.814   6.156  0.6464 -0.1407 -0.0306
  160SAPE   H5R17912   2.385   3.856   6.090  1.7885 -1.3225  0.5095
  160SAPE   C2617913   2.277   3.868   6.277 -0.0008 -0.3353 -0.0942
  160SAPE   H6R17914   2.328   3.958   6.314  1.0632  0.1341 -2.4896
  160SAPE   C2717915   2.181   3.809   6.380 -0.1924  0.6665  0.0492
  160SAPE   H7R17916   2.103   3.749   6.329 -0.5918  0.8934  0.3901
  160SAPE   H7S17917   2.128   3.890   6.434  0.7475  0.7857  0.8316
  160SAPE   C2817918   2.262   3.711   6.471  0.4355 -0.7948 -0.8310
  160SAPE   H8R17919   2.315   3.628   6.423  2.8591 -0.8727  1.7302
  160SAPE   C2917920   2.254   3.717   6.607 -0.1212 -0.1824  0.1244
  160SAPE   H9R17921   2.316   3.656   6.674  0.4265  0.6515  0.3797
  160SAPE  C21017922   2.176   3.818   6.697  0.0755  0.7542 -0.5456
  160SAPE  H10R17923   2.136   3.908   6.648 -0.0858  1.1358  0.2718
  160SAPE  H10S17924   2.247   3.852   6.776  0.5750 -1.1979 -0.0923
  160SAPE  C21117925   2.068   3.735   6.760  0.4594  0.0827  0.8846
  160SAPE  H11R17926   1.966   3.758   6.724  0.5719  0.5209  0.8381
  160SAPE  C21217927   2.077   3.666   6.869  0.1931  0.2003 -0.4913
  160SAPE  H12R17928   1.983   3.628   6.912  0.7501 -0.0564  0.5298
  160SAPE  C21317929   2.196   3.634   6.958  0.3168  0.4237 -0.6141
  160SAPE  H13R17930   2.289   3.637   6.899  0.0963 -2.7916 -1.3255
  160SAPE  H13S17931   2.173   3.533   7.000  1.3671 -1.0697 -3.3960
  160SAPE  C21417932   2.208   3.743   7.057 -0.3836 -0.5926 -0.2299
  160SAPE  H14R17933   2.206   3.844   7.013 -1.1028 -1.0433 -1.2754
  160SAPE  C21517934   2.218   3.732   7.193 -0.3848  0.4018  0.0375
  160SAPE  H15R17935   2.224   3.830   7.244 -0.8424  1.7052 -2.2722
  160SAPE  C21617936   2.221   3.601   7.276 -0.7606  0.2470  0.9963
  160SAPE  H16R17937   2.129   3.540   7.268 -2.3374  2.5106  0.9665
  160SAPE  H16S17938   2.224   3.636   7.381 -2.4831 -2.1236  1.9111
  160SAPE  C21717939   2.351   3.511   7.259  0.9007 -0.1475  0.3717
  160SAPE  H17R17940   2.450   3.559   7.272  1.8614 -1.3420 -1.8104
  160SAPE  H17S17941   2.356   3.476   7.153 -0.8880  1.5280 -0.3150
  160SAPE  C21817942   2.361   3.384   7.355  0.9548 -0.1095  0.2592
  160SAPE  H18R17943   2.266   3.327   7.349  0.0489  1.4727 -2.4804
  160SAPE  H18S17944   2.365   3.409   7.463 -0.2231 -0.5405  0.4154
  160SAPE  C21917945   2.474   3.291   7.318  0.3643  0.1597  0.2837
  160SAPE  H19R17946   2.570   3.347   7.321 -0.6059  2.2324 -2.7282
  160SAPE  H19S17947   2.461   3.259   7.212  1.4336 -1.1579  0.5055
  160SAPE  C22017948   2.488   3.174   7.409  0.3881 -0.4516 -0.1722
  160SAPE  H20R17949   2.408   3.100   7.386  0.3829 -1.3472  2.4492
  160SAPE  H20S17950   2.479   3.200   7.516 -1.1073 -0.4793 -0.2699
  160SAPE  H20T17951   2.577   3.111   7.391  0.2751 -1.5424  2.5404
  160SAPE   C3317952   2.822   3.529   6.262  0.1564 -0.0777  0.1137
  160SAPE   H3X17953   2.922   3.513   6.215  0.4334  1.1640  0.2512
  160SAPE   H3Y17954   2.789   3.425   6.281  1.4579 -0.6553 -0.6544
  160SAPE   C3417955   2.843   3.601   6.397  0.3179 -0.4554  0.0271
  160SAPE   H4X17956   2.757   3.575   6.462 -0.3628 -1.1597 -1.1200
  160SAPE   H4Y17957   2.849   3.710   6.378 -0.1664  0.0506  2.4524
  160SAPE   C3517958   2.955   3.540   6.475 -0.1476 -0.0948 -0.7917
  160SAPE   H5X17959   3.051   3.547   6.420  0.5603 -0.9902  0.2875
  160SAPE   H5Y17960   2.949   3.431   6.495 -2.4068  0.5356  2.8462
  160SAPE   C3617961   2.970   3.608   6.611 -0.2422  0.0346  0.1972
  160SAPE   H6X17962   2.890   3.557   6.667 -0.2865 -1.1871 -0.9380
  160SAPE   H6Y17963   2.957   3.719   6.605  0.0381  0.0711  0.2283
  160SAPE   C3717964   3.106   3.595   6.688  0.0516  0.6989  0.3637
  160SAPE   H7X17965   3.187   3.603   6.612  0.3098  0.8581  0.6530
  160SAPE   H7Y17966   3.109   3.493   6.732  0.9035  0.1399 -0.9218
  160SAPE   C3817967   3.129   3.698   6.804  0.2150  0.5262 -0.2965
  160SAPE   H8X17968   3.043   3.685   6.873 -0.7912  1.3296 -1.3369
  160SAPE   H8Y17969   3.131   3.803   6.769  2.2166  0.9434  0.9231
  160SAPE   C3917970   3.261   3.669   6.872  0.2731 -0.1592 -0.4672
  160SAPE   H9X17971   3.334   3.680   6.789  1.0570 -0.3220  0.1828
  160SAPE   H9Y17972   3.263   3.569   6.919 -1.0555 -0.9266 -1.9476
  160SAPE  C31017973   3.290   3.769   6.981 -0.2059 -0.3651 -0.4334
  160SAPE  H10X17974   3.199   3.786   7.042 -1.1044 -0.6856 -1.6576
  160SAPE  H10Y17975   3.306   3.872   6.943  1.4358  0.2753  1.7912
  160SAPE  C31117976   3.408   3.726   7.059 -0.7581  0.3839  0.3262
  160SAPE  H11X17977   3.493   3.704   6.992  0.4930  0.6033  1.7827
  160SAPE  H11Y17978   3.386   3.624   7.099  3.1625 -1.7885 -2.4103
  160SAPE  C31217979   3.428   3.826   7.168  0.2126 -0.2898  0.1921
  160SAPE  H12X17980   3.334   3.849   7.222 -0.3020  0.1930 -0.8957
  160SAPE  H12Y17981   3.446   3.924   7.119 -0.8838  0.0151  0.3684
  160SAPE  C31317982   3.544   3.789   7.261 -0.2545  0.0790 -0.0017
  160SAPE  H13X17983   3.624   3.751   7.194  1.9195 -2.4533  3.6997
  160SAPE  H13Y17984   3.519   3.699   7.320  0.9740 -0.0463  0.3484
  160SAPE  C31417985   3.599   3.906   7.346 -0.2863  0.1301 -0.7009
  160SAPE  H14X17986   3.518   3.947   7.410 -1.3447  1.7069 -2.9219
  160SAPE  H14Y17987   3.647   3.989   7.290  3.1311 -0.7546  0.6619
  160SAPE  C31517988   3.704   3.853   7.448 -0.2568 -0.5326  0.9988
  160SAPE  H15X17989   3.792   3.831   7.383 -2.3220 -1.4586 -1.6864
  160SAPE  H15Y17990   3.676   3.758   7.497  0.1485 -1.5328 -0.6154
  160SAPE  C31617991   3.736   3.951   7.563 -0.1045 -0.0441  0.2867
  160SAPE  H16X17992   3.799   3.905   7.642 -0.8740 -2.1226 -0.2530
  160SAPE  H16Y17993   3.646   3.993   7.613  1.6120  0.2307  3.3850
  160SAPE  C31717994   3.836   4.063   7.509  0.8415  0.6547 -0.6176
  160SAPE  H17X17995   3.780   4.135   7.447 -2.2180  1.7908  3.1148
  160SAPE  H17Y17996   3.908   4.006   7.446  0.8655 -0.3400  0.2713
  160SAPE  C31817997   3.916   4.128   7.623  0.2930 -0.4305  0.3865
  160SAPE  H18X17998   4.000   4.184   7.576  0.0668 -1.2493 -1.0486
  160SAPE  H18Y17999   3.969   4.052   7.685 -0.8710 -3.3592 -1.9310
  160SAPE  H18Z18000   3.857   4.188   7.695  0.7322  1.1065 -0.4974
  161SAPE     N18001   3.646   1.778   5.951  0.5828  0.1008 -0.0983
  161SAPE   HN118002   3.639   1.678   5.981  2.2732  0.2650  0.9338
  161SAPE   HN218003   3.738   1.806   5.990  0.7236 -4.5156  3.8698
  161SAPE   HN318004   3.571   1.843   5.981  2.4046  4.0228 -3.1898
  161SAPE   C1218005   3.652   1.798   5.799 -0.7212 -0.6665 -0.6737
  161SAPE  H12A18006   3.558   1.775   5.746 -0.9105 -4.2401  0.9494
  161SAPE  H12B18007   3.719   1.720   5.757  1.5040  0.9378 -0.3475
  161SAPE   C1118008   3.729   1.936   5.762 -0.0574  0.0153 -0.7289
  161SAPE  H11A18009   3.683   2.018   5.819  1.7138  0.1424  0.6051
  161SAPE  H11B18010   3.694   1.945   5.657 -1.0386  0.3231 -0.3831
  161SAPE     P18011   3.942   2.000   5.888  0.1319  0.0370 -0.1215
  161SAPE   O1318012   4.085   1.980   5.866 -1.0646 -0.7672 -0.0969
  161SAPE   O1418013   3.889   2.139   5.890 -0.0149 -0.3850 -0.4276
  161SAPE   O1218014   3.873   1.928   5.774  0.7606  0.4848  0.5335
  161SAPE   O1118015   3.882   1.927   6.011  0.0068  0.4107  0.3780
  161SAPE    C118016   3.955   1.811   6.061  0.5874  0.4519 -0.0458
  161SAPE    HA18017   3.926   1.720   6.004 -0.4351  0.7906 -0.0853
  161SAPE    HB18018   4.065   1.826   6.055  0.3775  3.7160  1.8545
  161SAPE    C218019   3.925   1.787   6.214 -0.0729  0.1147 -0.3298
  161SAPE    HS18020   4.021   1.775   6.270 -0.4781  1.4960  0.7344
  161SAPE   O2118021   3.830   1.682   6.228 -0.1098 -0.0346 -0.4204
  161SAPE   C2118022   3.849   1.607   6.335  0.0759 -0.1038 -0.6995
  161SAPE   O2218023   3.935   1.617   6.420 -0.0688  0.1013 -0.0411
  161SAPE   C2218024   3.739   1.500   6.339  0.3604 -0.0173 -0.4697
  161SAPE   H2R18025   3.693   1.489   6.238 -0.6272  0.1863 -0.0511
  161SAPE   H2S18026   3.789   1.403   6.363  3.0021  1.2467 -0.5446
  161SAPE    C318027   3.870   1.916   6.273  0.7605  0.1618 -0.9338
  161SAPE    HX18028   3.784   1.964   6.221  0.2976  1.2515  0.7477
  161SAPE    HY18029   3.945   1.997   6.259  2.8796 -1.5355  0.1076
  161SAPE   O3118030   3.840   1.900   6.412 -0.7853 -0.0947 -0.1419
  161SAPE   C3118031   3.945   1.920   6.492 -0.1417 -0.7055 -0.1916
  161SAPE   O3218032   4.053   1.957   6.453 -1.1412  0.0351 -0.6833
  161SAPE   C3218033   3.920   1.904   6.643  0.6330  0.0607  0.2692
  161SAPE   H2X18034   3.903   1.795   6.653 -0.4691  0.0502 -1.3657
  161SAPE   H2Y18035   3.828   1.964   6.663 -2.7986 -3.8670 -2.0151
  161SAPE   C2318036   3.632   1.530   6.441  0.0623 -0.6178  0.3889
  161SAPE   H3R18037   3.690   1.534   6.536  0.2660  0.9596  0.2145
  161SAPE   H3S18038   3.559   1.446   6.442 -0.8846  0.0689 -2.4412
  161SAPE   C2418039   3.560   1.666   6.420 -0.8879  0.3557 -0.0106
  161SAPE   H4R18040   3.521   1.662   6.316  0.3522 -0.2088 -0.4717
  161SAPE   H4S18041   3.637   1.745   6.421 -2.5942  2.1389 -1.5057
  161SAPE   C2518042   3.451   1.687   6.509  0.0468 -0.0289  0.5247
  161SAPE   H5R18043   3.378   1.605   6.521 -0.1474  0.1455  0.5473
  161SAPE   C2618044   3.428   1.795   6.575 -0.4182  0.3012  0.3107
  161SAPE   H6R18045   3.341   1.796   6.642 -1.2153 -0.7188 -0.6716
  161SAPE   C2718046   3.508   1.922   6.583  0.1997  0.5004  0.2042
  161SAPE   H7R18047   3.617   1.906   6.567  0.0952  1.0400 -1.2404
  161SAPE   H7S18048   3.495   1.970   6.682 -0.9205 -0.5302  0.5818
  161SAPE   C2818049   3.454   2.018   6.474  0.2195  0.1009  0.2523
  161SAPE   H8R18050   3.483   1.980   6.375  1.9602  0.2231  0.6840
  161SAPE   C2918051   3.367   2.118   6.495  0.7720  0.3050  0.1838
  161SAPE   H9R18052   3.351   2.170   6.399  0.5077 -0.7672 -0.3787
  161SAPE  C21018053   3.308   2.175   6.625 -0.3886 -0.3542 -0.3060
  161SAPE  H10R18054   3.382   2.212   6.700  0.4632 -0.6227 -1.0006
  161SAPE  H10S18055   3.259   2.098   6.688 -2.4041  0.9225 -0.2162
  161SAPE  C21118056   3.218   2.290   6.600  0.1625  0.6451 -0.8616
  161SAPE  H11R18057   3.243   2.348   6.510 -2.2264 -0.1540 -2.1372
  161SAPE  C21218058   3.122   2.338   6.683 -0.2854 -0.3489  0.0879
  161SAPE  H12R18059   3.072   2.432   6.657 -0.0324 -0.1179  0.4355
  161SAPE  C21318060   3.074   2.272   6.806  0.2367 -0.6360 -0.1426
  161SAPE  H13R18061   3.075   2.161   6.796  2.0267 -0.4529 -3.0188
  161SAPE  H13S18062   2.968   2.296   6.827  0.9924  0.2081  3.3099
  161SAPE  C21418063   3.145   2.328   6.930 -0.4587  0.2939 -0.1030
  161SAPE  H14R18064   3.136   2.436   6.948  1.0456  0.2452  1.1250
  161SAPE  C21518065   3.190   2.253   7.035  0.5018  0.0791  0.6766
  161SAPE  H15R18066   3.254   2.305   7.108 -0.4191  0.8860  0.9372
  161SAPE  C21618067   3.186   2.106   7.060 -0.1633  0.2280 -0.5226
  161SAPE  H16R18068   3.293   2.078   7.056 -0.2611 -0.1979 -0.2500
  161SAPE  H16S18069   3.134   2.051   6.978  0.6796 -0.2719 -0.7376
  161SAPE  C21718070   3.118   2.055   7.195 -0.0425 -0.6367  0.2955
  161SAPE  H17R18071   3.119   1.945   7.211 -2.7319 -0.3620  3.3347
  161SAPE  H17S18072   3.010   2.081   7.198 -0.1176 -0.9428  0.2917
  161SAPE  C21818073   3.175   2.111   7.329 -0.5637 -0.2499 -0.6974
  161SAPE  H18R18074   3.131   2.057   7.416  0.8745 -0.7733 -0.2629
  161SAPE  H18S18075   3.137   2.214   7.346 -3.2136 -1.4091  1.2149
  161SAPE  C21918076   3.326   2.101   7.342  0.1605 -0.0283 -0.0276
  161SAPE  H19R18077   3.352   2.136   7.444 -1.9388 -1.3900  1.0279
  161SAPE  H19S18078   3.380   2.173   7.276 -2.1313  0.7904 -1.0989
  161SAPE  C22018079   3.387   1.959   7.336 -0.0744 -0.0235  0.2140
  161SAPE  H20R18080   3.381   1.920   7.232  5.0588 -0.8200 -0.0510
  161SAPE  H20S18081   3.346   1.883   7.406  0.7990  1.0131  1.9136
  161SAPE  H20T18082   3.496   1.969   7.355  0.0663  1.0129 -1.0164
  161SAPE   C3318083   4.032   1.940   6.748 -0.6416 -0.1456 -0.2516
  161SAPE   H3X18084   4.125   1.881   6.733 -0.2734 -0.6867  3.3646
  161SAPE   H3Y18085   3.982   1.910   6.842 -2.9828  3.5380 -0.0816
  161SAPE   C3418086   4.068   2.086   6.756 -0.6472 -0.2331  0.4403
  161SAPE   H4X18087   3.980   2.148   6.782  0.8627  1.8924  0.6883
  161SAPE   H4Y18088   4.103   2.117   6.656 -1.8146  0.6049  0.2630
  161SAPE   C3518089   4.177   2.117   6.862 -0.4227  0.2848 -0.1703
  161SAPE   H5X18090   4.191   2.225   6.843  0.6568  0.1468 -0.1990
  161SAPE   H5Y18091   4.273   2.067   6.837 -0.0364  0.9404 -0.0050
  161SAPE   C3618092   4.142   2.092   7.010 -0.6514 -0.0095  0.0419
  161SAPE   H6X18093   4.180   1.992   7.039 -2.0994 -1.3934 -2.4310
  161SAPE   H6Y18094   4.031   2.098   7.017 -0.7369  0.6922 -1.5408
  161SAPE   C3718095   4.208   2.205   7.097  0.3221 -0.3883 -0.1258
  161SAPE   H7X18096   4.315   2.203   7.067  0.2557 -2.6566 -0.3769
  161SAPE   H7Y18097   4.200   2.174   7.203 -0.1625  0.1240 -0.0071
  161SAPE   C3818098   4.127   2.331   7.079  0.4755 -0.1260 -0.2277
  161SAPE   H8X18099   4.022   2.316   7.111 -0.3550  0.6153 -2.4043
  161SAPE   H8Y18100   4.127   2.368   6.974 -0.4492 -0.8728 -0.5062
  161SAPE   C3918101   4.187   2.441   7.166  0.3052  0.3551  0.0999
  161SAPE   H9X18102   4.134   2.535   7.138  0.2927  0.1511 -0.5744
  161SAPE   H9Y18103   4.298   2.446   7.154  0.6374 -3.8130  0.0638
  161SAPE  C31018104   4.172   2.411   7.322 -0.1408  0.3922  0.0044
  161SAPE  H10X18105   4.244   2.328   7.339 -0.8833 -0.8334 -2.3376
  161SAPE  H10Y18106   4.068   2.379   7.339 -1.2875  1.6618 -3.5665
  161SAPE  C31118107   4.191   2.525   7.423  0.2563 -0.2703 -0.3689
  161SAPE  H11X18108   4.287   2.580   7.413  0.0165  0.4667  1.1731
  161SAPE  H11Y18109   4.192   2.475   7.522  0.6261 -1.7606 -1.0898
  161SAPE  C31218110   4.064   2.614   7.437  0.9833  1.0230 -0.2628
  161SAPE  H12X18111   3.970   2.556   7.449  1.2899  0.7876  1.0988
  161SAPE  H12Y18112   4.056   2.687   7.354  0.2486 -0.8830 -1.9684
  161SAPE  C31318113   4.069   2.696   7.561 -0.6730 -0.3142  0.4176
  161SAPE  H13X18114   4.173   2.733   7.563 -0.9836  0.5596  1.1324
  161SAPE  H13Y18115   4.063   2.628   7.649  0.2859 -0.2478  0.5397
  161SAPE  C31418116   3.975   2.824   7.558 -0.3282  0.7093 -0.3913
  161SAPE  H14X18117   3.875   2.781   7.538  0.3581 -1.5342  0.6909
  161SAPE  H14Y18118   4.009   2.882   7.470 -2.4579 -0.9369 -2.4126
  161SAPE  C31518119   3.978   2.899   7.692  0.4619 -0.3416  0.2871
  161SAPE  H15X18120   3.953   2.828   7.773 -1.0824  1.4618  1.4760
  161SAPE  H15Y18121   3.906   2.983   7.684 -0.4229 -1.1038  0.1339
  161SAPE  C31618122   4.111   2.965   7.722 -0.7320 -0.0354 -0.1217
  161SAPE  H16X18123   4.195   2.894   7.729 -0.4130  0.3731  0.2816
  161SAPE  H16Y18124   4.112   3.018   7.820 -1.2512 -0.4051  0.0868
  161SAPE  C31718125   4.153   3.070   7.619 -0.3277  1.2812  0.4135
  161SAPE  H17X18126   4.077   3.151   7.615  0.3195  2.0834  2.6435
  161SAPE  H17Y18127   4.166   3.020   7.521  0.9351 -0.1434  1.2668
  161SAPE  C31818128   4.288   3.131   7.656 -0.7845 -0.5349  0.2070
  161SAPE  H18X18129   4.367   3.056   7.677 -0.0105  0.6312  1.6829
  161SAPE  H18Y18130   4.285   3.206   7.738 -0.0002 -2.2309  1.8588
  161SAPE  H18Z18131   4.323   3.183   7.564  0.6279  0.6941  1.3817
  162SAPE     N18132   3.375   6.134   5.609  0.1447  0.8514  0.3840
  162SAPE   HN118133   3.458   6.192   5.633  1.0705 -0.0896 -0.4282
  162SAPE   HN218134   3.399   6.115   5.509  2.1997  3.9013  0.1505
  162SAPE   HN318135   3.286   6.187   5.611  0.5343  1.5023  1.5086
  162SAPE   C1218136   3.375   6.013   5.694  0.0871  0.2037  0.1125
  162SAPE  H12A18137   3.305   5.950   5.635 -0.0135  2.6914 -2.6699
  162SAPE  H12B18138   3.321   6.026   5.790  0.7500 -0.5275  0.6015
  162SAPE   C1118139   3.522   5.960   5.717 -0.2293  0.2659  0.3924
  162SAPE  H11A18140   3.515   5.869   5.782  0.9392 -2.1008 -2.5750
  162SAPE  H11B18141   3.585   6.046   5.747  0.3090  0.1670 -0.4329
  162SAPE     P18142   3.608   5.788   5.529 -0.0792 -0.0609  0.6392
  162SAPE   O1318143   3.534   5.786   5.402  0.8758 -0.5406  0.0147
  162SAPE   O1418144   3.755   5.776   5.512 -0.3893  0.2068 -0.0833
  162SAPE   O1218145   3.578   5.927   5.597  0.1744  0.2670 -0.4477
  162SAPE   O1118146   3.550   5.674   5.617  0.5926 -0.2810 -0.6462
  162SAPE    C118147   3.628   5.583   5.702  0.2912  0.1483  0.2128
  162SAPE    HA18148   3.733   5.618   5.705  0.7501 -1.1885  0.5390
  162SAPE    HB18149   3.599   5.589   5.809  0.5810 -0.7181  0.3560
  162SAPE    C218150   3.639   5.438   5.651  0.4848 -0.9596  0.4245
  162SAPE    HS18151   3.642   5.445   5.540 -2.1989  0.4600  0.3593
  162SAPE   O2118152   3.518   5.377   5.695  0.2053 -0.2555  0.4482
  162SAPE   C2118153   3.419   5.379   5.616 -0.8142  0.0485 -0.2403
  162SAPE   O2218154   3.421   5.422   5.499  0.2691  0.8372  0.0487
  162SAPE   C2218155   3.301   5.320   5.682  0.0372 -0.2192  0.0970
  162SAPE   H2R18156   3.257   5.253   5.606  0.1636 -0.6327  0.3848
  162SAPE   H2S18157   3.324   5.264   5.775  1.5715  0.4180  0.1273
  162SAPE    C318158   3.762   5.361   5.713 -0.1571  0.5091  0.0112
  162SAPE    HX18159   3.856   5.415   5.691  1.5637 -2.6275 -1.0077
  162SAPE    HY18160   3.769   5.267   5.654  0.8030  0.8587 -0.4481
  162SAPE   O3118161   3.763   5.346   5.859 -0.3256 -0.0635 -0.2590
  162SAPE   C3118162   3.692   5.248   5.911 -0.1326 -0.7172  0.3637
  162SAPE   O3218163   3.625   5.165   5.853 -0.2381 -0.0454 -0.4983
  162SAPE   C3218164   3.703   5.269   6.062  0.4260  0.2232 -0.1082
  162SAPE   H2X18165   3.732   5.368   6.101 -1.4299 -0.0402  2.2050
  162SAPE   H2Y18166   3.774   5.192   6.100  0.2233  0.7401  1.3680
  162SAPE   C2318167   3.181   5.416   5.717 -0.0483 -0.4168  0.0775
  162SAPE   H3R18168   3.103   5.353   5.766 -1.5192  1.2319 -0.0306
  162SAPE   H3S18169   3.137   5.462   5.626 -0.4376  1.0910  0.9848
  162SAPE   C2418170   3.232   5.525   5.810 -0.2944  0.4607 -0.0696
  162SAPE   H4R18171   3.325   5.560   5.760 -1.5867  2.2058 -1.3692
  162SAPE   H4S18172   3.248   5.462   5.900 -0.7577 -0.4134 -0.5943
  162SAPE   C2518173   3.142   5.640   5.837 -0.0651 -1.0646  0.8187
  162SAPE   H5R18174   3.093   5.686   5.750  2.3312 -0.2933 -0.2045
  162SAPE   C2618175   3.118   5.698   5.957  0.0931 -0.0025 -0.1158
  162SAPE   H6R18176   3.038   5.771   5.972 -1.2531 -1.5599  0.6454
  162SAPE   C2718177   3.180   5.649   6.085 -0.0983 -0.0045 -0.4206
  162SAPE   H7R18178   3.265   5.578   6.069 -0.0920  0.0377 -0.5673
  162SAPE   H7S18179   3.105   5.585   6.137  0.8324  0.0127  1.0023
  162SAPE   C2818180   3.225   5.757   6.181  0.2592 -0.1919  0.5677
  162SAPE   H8R18181   3.264   5.852   6.141 -0.1686 -0.0401  0.5052
  162SAPE   C2918182   3.231   5.758   6.314 -0.3812  0.1221  0.6676
  162SAPE   H9R18183   3.268   5.844   6.372 -1.3156  0.8051  0.2826
  162SAPE  C21018184   3.187   5.641   6.406  0.2407 -0.1311  0.8209
  162SAPE  H10R18185   3.274   5.578   6.435  0.3049  0.3719  1.7478
  162SAPE  H10S18186   3.130   5.570   6.343  0.8789 -1.5658  1.8124
  162SAPE  C21118187   3.118   5.689   6.529 -0.9494 -0.1092  0.2346
  162SAPE  H11R18188   3.022   5.741   6.513 -1.4248  0.2156  3.5079
  162SAPE  C21218189   3.167   5.675   6.653  0.0846  0.7009 -0.1221
  162SAPE  H12R18190   3.101   5.720   6.729 -1.1070  0.1030 -0.7656
  162SAPE  C21318191   3.301   5.616   6.699 -0.0563  0.1850 -0.4738
  162SAPE  H13R18192   3.381   5.692   6.711  1.8528 -2.0770  2.2113
  162SAPE  H13S18193   3.338   5.530   6.639  0.5993  0.4095 -0.3929
  162SAPE  C21418194   3.301   5.564   6.845 -0.2588  0.2785 -0.6525
  162SAPE  H14R18195   3.360   5.628   6.913 -1.9331 -0.0686  1.2440
  162SAPE  C21518196   3.226   5.463   6.910 -0.3978  0.2942 -0.2910
  162SAPE  H15R18197   3.253   5.438   7.014  0.8353 -1.9005 -1.0724
  162SAPE  C21618198   3.129   5.366   6.849  0.4947  0.0003 -0.1750
  162SAPE  H16R18199   3.109   5.396   6.744  0.6445  1.1339  0.0967
  162SAPE  H16S18200   3.031   5.366   6.902  1.1902 -1.3543  1.1779
  162SAPE  C21718201   3.176   5.219   6.853  0.2660 -0.7531  0.1335
  162SAPE  H17R18202   3.285   5.219   6.829  0.2953 -0.5969  0.2638
  162SAPE  H17S18203   3.120   5.150   6.786  2.5615 -0.9453 -1.7406
  162SAPE  C21818204   3.172   5.159   6.994  0.2595  0.2803 -0.2001
  162SAPE  H18R18205   3.228   5.226   7.064 -1.4355  1.8257 -0.2513
  162SAPE  H18S18206   3.237   5.070   6.986 -0.0402  0.0275  0.1359
  162SAPE  C21918207   3.043   5.122   7.059  0.3168 -0.3845  0.1344
  162SAPE  H19R18208   2.982   5.214   7.067  0.8712  0.0794 -0.9276
  162SAPE  H19S18209   3.078   5.082   7.157  0.7335 -1.4696 -0.4393
  162SAPE  C22018210   2.978   5.010   6.984 -0.0988  0.2231 -0.7790
  162SAPE  H20R18211   3.048   4.942   6.931  2.0918  1.1912  0.7210
  162SAPE  H20S18212   2.917   5.057   6.904 -1.1518 -1.3273 -0.9207
  162SAPE  H20T18213   2.918   4.948   7.054  1.0126 -0.5026 -0.4509
  162SAPE   C3318214   3.575   5.224   6.133  0.9717 -0.0772  0.5264
  162SAPE   H3X18215   3.565   5.114   6.127 -0.7875  0.0921 -0.1486
  162SAPE   H3Y18216   3.482   5.274   6.100  1.0050 -0.0708  0.4414
  162SAPE   C3418217   3.588   5.251   6.289  1.0441  0.1130  0.2222
  162SAPE   H4X18218   3.586   5.359   6.312  0.3963 -0.2276  1.8945
  162SAPE   H4Y18219   3.689   5.214   6.319  1.7696  1.7492 -0.1065
  162SAPE   C3518220   3.471   5.184   6.366 -0.3082 -0.8735 -0.0726
  162SAPE   H5X18221   3.380   5.218   6.311  0.3294  2.8620  0.9123
  162SAPE   H5Y18222   3.453   5.235   6.463 -1.3191  1.3074 -1.3073
  162SAPE   C3618223   3.471   5.033   6.366 -0.3683  0.1394 -0.0999
  162SAPE   H6X18224   3.576   4.999   6.354 -0.4415 -1.4915  2.9344
  162SAPE   H6Y18225   3.416   4.986   6.282  0.4331 -0.1038 -0.5060
  162SAPE   C3718226   3.436   4.973   6.505  0.0487 -0.2302 -0.2766
  162SAPE   H7X18227   3.350   5.024   6.554  0.9816  1.2656 -0.1277
  162SAPE   H7Y18228   3.521   4.995   6.574 -0.9087 -1.6293  1.4328
  162SAPE   C3818229   3.425   4.821   6.510  0.2697 -0.2281 -1.3075
  162SAPE   H8X18230   3.508   4.767   6.459  0.9383 -0.5323  0.0572
  162SAPE   H8Y18231   3.332   4.784   6.462 -0.2925 -0.1847 -0.2718
  162SAPE   C3918232   3.429   4.759   6.649 -0.0749 -0.0218 -0.1441
  162SAPE   H9X18233   3.526   4.774   6.700 -1.7817  0.8884  3.1642
  162SAPE   H9Y18234   3.420   4.648   6.639 -1.0783  0.0905 -0.6092
  162SAPE  C31018235   3.329   4.816   6.757  0.9338  0.0790 -0.0468
  162SAPE  H10X18236   3.235   4.828   6.698  0.1863  1.2554  1.3125
  162SAPE  H10Y18237   3.372   4.912   6.793 -1.1701  0.8064  0.6515
  162SAPE  C31118238   3.298   4.716   6.874 -0.2043 -0.7697  0.7536
  162SAPE  H11X18239   3.282   4.615   6.829  1.7790 -0.6215 -0.3581
  162SAPE  H11Y18240   3.197   4.741   6.913 -0.9734  0.3654 -1.7621
  162SAPE  C31218241   3.398   4.714   6.986 -0.2637 -0.5399  0.0354
  162SAPE  H12X18242   3.434   4.818   7.004 -1.1136  0.0758 -1.6193
  162SAPE  H12Y18243   3.486   4.656   6.950 -0.2685 -1.4356  1.4088
  162SAPE  C31318244   3.359   4.650   7.117 -0.2617  0.8757  0.1761
  162SAPE  H13X18245   3.451   4.643   7.178 -0.4333  0.5418  0.4043
  162SAPE  H13Y18246   3.316   4.549   7.099 -3.0828  1.8803  0.6864
  162SAPE  C31418247   3.260   4.728   7.209  0.0810 -0.1850  0.2744
  162SAPE  H14X18248   3.165   4.699   7.160  1.1196 -0.5266 -1.6080
  162SAPE  H14Y18249   3.265   4.838   7.192 -0.4544  0.4040  3.2885
  162SAPE  C31518250   3.275   4.699   7.360 -0.0950 -0.5052  0.5640
  162SAPE  H15X18251   3.380   4.727   7.384 -0.0305  0.0345 -0.3100
  162SAPE  H15Y18252   3.263   4.590   7.381  0.1165 -0.3000  1.8708
  162SAPE  C31618253   3.176   4.775   7.448  0.3407  0.0984  0.8206
  162SAPE  H16X18254   3.191   4.747   7.554  1.4434  0.7459  0.8579
  162SAPE  H16Y18255   3.073   4.746   7.419 -0.0810  2.5004 -0.2988
  162SAPE  C31718256   3.179   4.924   7.440 -0.4375 -0.7235 -0.8151
  162SAPE  H17X18257   3.198   4.961   7.337  2.7663 -0.6256 -0.3074
  162SAPE  H17Y18258   3.270   4.956   7.494 -1.2114 -1.8694  1.2610
  162SAPE  C31818259   3.061   5.000   7.490  0.3090 -0.6497  0.5838
  162SAPE  H18X18260   3.034   4.982   7.596  2.6940  1.6202  1.6932
  162SAPE  H18Y18261   2.981   4.983   7.415 -0.1223 -1.9923  1.3110
  162SAPE  H18Z18262   3.074   5.110   7.502 -2.9600 -0.4009  3.2495
  163SAPE     N18263   2.234   3.580   5.417  0.1267 -0.1951  0.0435
  163SAPE   HN118264   2.173   3.596   5.335 -0.7275  0.6240  0.8111
  163SAPE   HN218265   2.326   3.552   5.376 -0.1094  0.4932 -0.9837
  163SAPE   HN318266   2.186   3.513   5.480 -0.6044  1.5394  1.4390
  163SAPE   C1218267   2.241   3.717   5.495 -1.1360 -0.1395  0.2149
  163SAPE  H12A18268   2.317   3.776   5.441  3.9729 -5.9673 -0.0872
  163SAPE  H12B18269   2.289   3.701   5.594  0.7771  3.1702 -0.0558
  163SAPE   C1118270   2.109   3.792   5.512  1.0023 -0.1878  0.1341
  163SAPE  H11A18271   2.129   3.871   5.588  0.1670  0.5956 -0.4380
  163SAPE  H11B18272   2.034   3.730   5.567  0.3008  0.2226 -0.3499
  163SAPE     P18273   2.102   3.960   5.317 -0.0265  0.3409 -0.2043
  163SAPE   O1318274   2.223   3.916   5.246  0.4467  0.5217 -0.5562
  163SAPE   O1418275   1.990   4.017   5.240 -0.8654  0.1419 -0.7495
  163SAPE   O1218276   2.038   3.839   5.399  0.3028 -0.0864 -0.1628
  163SAPE   O1118277   2.156   4.058   5.431  0.0965 -0.0135  0.0249
  163SAPE    C118278   2.053   4.124   5.505 -0.5614  0.6140 -0.1501
  163SAPE    HA18279   2.000   4.200   5.443  0.9608  1.4750 -0.4316
  163SAPE    HB18280   1.977   4.058   5.551  1.4591  0.4120  3.2296
  163SAPE    C218281   2.118   4.203   5.619  0.0512 -0.2667  0.1042
  163SAPE    HS18282   2.209   4.241   5.568 -0.9427 -1.6358 -2.9022
  163SAPE   O2118283   2.152   4.109   5.719 -0.3809 -0.1416 -0.2137
  163SAPE   C2118284   2.226   4.164   5.812  0.1984 -0.1245  0.4692
  163SAPE   O2218285   2.312   4.248   5.790 -0.2561 -0.4599  0.9021
  163SAPE   C2218286   2.192   4.115   5.952 -0.3284 -0.0656  0.3910
  163SAPE   H2R18287   2.238   4.014   5.966  2.1198  1.1188  1.6618
  163SAPE   H2S18288   2.233   4.177   6.035  1.0831  0.7009 -0.8250
  163SAPE    C318289   2.016   4.316   5.669  0.1257  0.4861  0.3469
  163SAPE    HX18290   1.993   4.369   5.574  0.2716 -0.7591 -0.4068
  163SAPE    HY18291   2.074   4.385   5.734 -0.3916  0.4124  0.8987
  163SAPE   O3118292   1.903   4.264   5.742 -0.3947  0.4409 -0.1285
  163SAPE   C3118293   1.815   4.359   5.779  0.0162  0.5197 -0.3331
  163SAPE   O3218294   1.820   4.480   5.759  0.8264  0.6675  0.6510
  163SAPE   C3218295   1.710   4.296   5.868 -0.9765 -0.0128 -0.0564
  163SAPE   H2X18296   1.760   4.288   5.967  1.4047  0.5411 -1.1718
  163SAPE   H2Y18297   1.685   4.197   5.824  0.3762  0.2159 -1.4248
  163SAPE   C2318298   2.041   4.106   5.968  0.4361  0.2405 -0.0188
  163SAPE   H3R18299   1.989   4.042   5.894  0.9413  0.2859 -0.4157
  163SAPE   H3S18300   1.986   4.203   5.968  1.0813  0.6092 -0.2740
  163SAPE   C2418301   2.004   4.035   6.102 -0.1571 -0.2802  0.4507
  163SAPE   H4R18302   2.049   4.090   6.188 -0.0892  1.1018 -0.4366
  163SAPE   H4S18303   2.040   3.930   6.096  0.0129 -0.2659  1.0849
  163SAPE   C2518304   1.857   4.029   6.120  0.4498 -0.1574  0.3181
  163SAPE   H5R18305   1.798   4.055   6.031  2.3921  0.8552 -0.7537
  163SAPE   C2618306   1.793   3.988   6.235  0.1318  0.5088 -0.2608
  163SAPE   H6R18307   1.684   3.992   6.236  0.1205  0.5510 -1.0899
  163SAPE   C2718308   1.850   3.940   6.367 -0.1502  0.0783 -0.4203
  163SAPE   H7R18309   1.958   3.967   6.372  0.5936 -2.0969 -2.6574
  163SAPE   H7S18310   1.856   3.831   6.386  0.8625 -0.1077 -1.6357
  163SAPE   C2818311   1.769   4.016   6.474 -0.0930 -0.4178 -0.4335
  163SAPE   H8R18312   1.766   4.124   6.454  1.5182 -0.1154  0.7319
  163SAPE   C2918313   1.700   3.972   6.584  0.1598 -0.2055  0.3345
  163SAPE   H9R18314   1.671   4.056   6.649  2.0408  0.3523  0.5220
  163SAPE  C21018315   1.676   3.837   6.640 -0.1877 -0.1262  0.0977
  163SAPE  H10R18316   1.699   3.841   6.749 -1.1379  2.0819  0.2756
  163SAPE  H10S18317   1.750   3.771   6.590 -0.6631  0.6929 -1.7775
  163SAPE  C21118318   1.535   3.785   6.620 -0.2963  0.3370  0.5030
  163SAPE  H11R18319   1.487   3.805   6.523 -1.3829 -0.8970  0.7500
  163SAPE  C21218320   1.462   3.723   6.716 -0.7061 -0.0788 -0.0013
  163SAPE  H12R18321   1.363   3.686   6.686  0.0472 -3.1621  0.9427
  163SAPE  C21318322   1.503   3.671   6.855 -0.2224 -0.0731  0.1549
  163SAPE  H13R18323   1.469   3.754   6.921 -0.7292  0.7861 -1.1485
  163SAPE  H13S18324   1.613   3.663   6.864 -0.2286 -0.3873 -0.0211
  163SAPE  C21418325   1.430   3.547   6.897  0.3704  0.3030 -0.0043
  163SAPE  H14R18326   1.425   3.468   6.821 -0.1730 -0.0026  0.3464
  163SAPE  C21518327   1.407   3.511   7.025  0.4129 -0.3415  0.2451
  163SAPE  H15R18328   1.336   3.428   7.041 -0.6084  0.5931  0.6933
  163SAPE  C21618329   1.448   3.577   7.150  0.8499  0.4081 -0.5222
  163SAPE  H16R18330   1.520   3.655   7.116  0.6581 -0.3545 -2.8617
  163SAPE  H16S18331   1.496   3.511   7.225 -2.6358 -1.1537  0.5384
  163SAPE  C21718332   1.337   3.662   7.216  0.2756  0.2420  0.0645
  163SAPE  H17R18333   1.278   3.603   7.289 -0.1191 -0.0349 -0.4722
  163SAPE  H17S18334   1.277   3.705   7.133  0.8515 -0.0017 -0.4884
  163SAPE  C21818335   1.391   3.782   7.297  0.5973 -0.3940  0.4513
  163SAPE  H18R18336   1.299   3.823   7.344 -0.4492 -0.0540 -1.7590
  163SAPE  H18S18337   1.428   3.871   7.242 -1.8179  1.5387  1.7338
  163SAPE  C21918338   1.494   3.742   7.402  0.0952  0.6633  0.0124
  163SAPE  H19R18339   1.572   3.677   7.357  0.5212  1.4375 -0.3825
  163SAPE  H19S18340   1.443   3.686   7.483  0.5158  0.5317  0.1882
  163SAPE  C22018341   1.550   3.870   7.449  0.2547 -0.1365 -0.5339
  163SAPE  H20R18342   1.468   3.931   7.492  0.1423 -1.3011  0.9765
  163SAPE  H20S18343   1.594   3.919   7.359  0.1126 -2.9837 -2.2744
  163SAPE  H20T18344   1.635   3.858   7.519  0.4929 -0.8922 -0.9364
  163SAPE   C3318345   1.572   4.373   5.896 -0.1577  0.3396 -0.2953
  163SAPE   H3X18346   1.502   4.337   5.819  1.5066  0.4045 -1.9039
  163SAPE   H3Y18347   1.599   4.481   5.895  1.7265  0.0242  2.4586
  163SAPE   C3418348   1.517   4.348   6.035  0.9851 -0.3475  0.3547
  163SAPE   H4X18349   1.519   4.241   6.068  2.4149 -0.6907 -0.7615
  163SAPE   H4Y18350   1.412   4.383   6.029  0.2594 -2.3385  0.4377
  163SAPE   C3518351   1.577   4.439   6.135 -0.2899 -0.5698 -0.1299
  163SAPE   H5X18352   1.514   4.530   6.143  0.4070 -0.1648  0.8501
  163SAPE   H5Y18353   1.668   4.490   6.099 -0.4215  0.2428  0.6625
  163SAPE   C3618354   1.609   4.365   6.262 -0.0959 -0.6415  0.0338
  163SAPE   H6X18355   1.668   4.442   6.316  1.4948 -1.2376 -0.7944
  163SAPE   H6Y18356   1.686   4.287   6.248  1.6801  0.9862  0.2592
  163SAPE   C3718357   1.500   4.310   6.357 -0.0501 -0.7086 -0.6162
  163SAPE   H7X18358   1.493   4.201   6.341  2.0381 -0.5479 -3.3028
  163SAPE   H7Y18359   1.400   4.350   6.329  1.1165  2.2078 -0.9815
  163SAPE   C3818360   1.504   4.358   6.508 -0.7638  0.3128 -0.0403
  163SAPE   H8X18361   1.472   4.464   6.493 -3.0896 -0.2120  0.8102
  163SAPE   H8Y18362   1.601   4.344   6.559  0.4089  0.3225 -2.1459
  163SAPE   C3918363   1.390   4.290   6.588 -0.2654 -0.1106 -0.3192
  163SAPE   H9X18364   1.406   4.180   6.583  1.8303  0.0481  1.5052
  163SAPE   H9Y18365   1.291   4.312   6.544 -0.5980  0.8332  0.8538
  163SAPE  C31018366   1.379   4.330   6.730  0.5964 -1.2299 -0.1695
  163SAPE  H10X18367   1.289   4.283   6.776 -0.5473  0.7133 -0.3074
  163SAPE  H10Y18368   1.366   4.439   6.748  2.7351 -1.1989  1.6215
  163SAPE  C31118369   1.494   4.285   6.817  0.2362  0.3611  0.7530
  163SAPE  H11X18370   1.590   4.323   6.775  0.0658  0.7726  0.7332
  163SAPE  H11Y18371   1.502   4.174   6.818 -1.3046  0.2015  3.7599
  163SAPE  C31218372   1.489   4.333   6.961 -0.2364 -0.7841  0.0524
  163SAPE  H12X18373   1.503   4.442   6.975  0.2221 -0.9193  0.7075
  163SAPE  H12Y18374   1.574   4.284   7.015 -0.7902 -1.0561  0.6867
  163SAPE  C31318375   1.371   4.277   7.037  0.0736  0.2297 -0.4590
  163SAPE  H13X18376   1.373   4.166   7.027 -1.2316  0.2047 -0.5585
  163SAPE  H13Y18377   1.277   4.314   6.992  0.1096  1.7539  0.6560
  163SAPE  C31418378   1.370   4.299   7.189 -0.1495 -0.0665 -0.9456
  163SAPE  H14X18379   1.297   4.232   7.238  1.8589 -1.2928  0.5378
  163SAPE  H14Y18380   1.346   4.406   7.209 -1.0349 -0.2830 -0.8037
  163SAPE  C31518381   1.510   4.269   7.265  0.6786 -0.5108 -0.0170
  163SAPE  H15X18382   1.592   4.330   7.221 -0.6724  0.6849 -0.9778
  163SAPE  H15Y18383   1.528   4.160   7.261 -0.2452 -0.8195  2.4935
  163SAPE  C31618384   1.501   4.297   7.420 -0.5817 -0.2032  0.0250
  163SAPE  H16X18385   1.400   4.267   7.457 -1.6811  1.1154 -1.6791
  163SAPE  H16Y18386   1.495   4.408   7.424  0.0591  0.0845 -3.4116
  163SAPE  C31718387   1.621   4.247   7.500  0.2546  0.9011 -0.5750
  163SAPE  H17X18388   1.621   4.136   7.489  2.5135  0.8479 -0.6719
  163SAPE  H17Y18389   1.603   4.263   7.608  2.8148 -1.0349  0.2417
  163SAPE  C31818390   1.764   4.298   7.461 -0.6509  0.2397 -0.0646
  163SAPE  H18X18391   1.796   4.279   7.357  2.6365 -2.0325  1.1687
  163SAPE  H18Y18392   1.841   4.235   7.512 -2.3205 -1.6686  0.2435
  163SAPE  H18Z18393   1.768   4.404   7.495  2.4380 -0.0883  0.9811
  164SAPE     N18394   5.836   0.997   5.136 -0.0890  0.0769  0.2874
  164SAPE   HN118395   5.845   1.025   5.036  1.8773 -0.3458  0.2933
  164SAPE   HN218396   5.862   0.896   5.133 -2.8683 -0.6806 -1.6829
  164SAPE   HN318397   5.737   1.002   5.166 -0.1794 -1.1080  0.2257
  164SAPE   C1218398   5.921   1.089   5.221 -0.0060 -0.0901 -1.3016
  164SAPE  H12A18399   5.912   1.186   5.167  0.5273  1.2855  0.9647
  164SAPE  H12B18400   6.025   1.051   5.208  0.5395  0.7601  0.2362
  164SAPE   C1118401   5.874   1.084   5.370  0.1359  0.2346  0.3253
  164SAPE  H11A18402   5.940   1.144   5.437 -0.3783 -0.0770  1.1281
  164SAPE  H11B18403   5.871   0.979   5.408  0.2143 -0.0510 -0.4493
  164SAPE     P18404   5.649   1.150   5.504 -0.1652 -0.3886  0.3957
  164SAPE   O1318405   5.589   1.288   5.512 -0.2011  0.3300  0.3423
  164SAPE   O1418406   5.549   1.042   5.512  0.0595 -0.2135  0.2093
  164SAPE   O1218407   5.736   1.133   5.370 -0.1691  0.2817 -1.2197
  164SAPE   O1118408   5.754   1.149   5.625  0.2058 -0.6637 -0.2403
  164SAPE    C118409   5.803   1.038   5.701 -0.0730 -0.8811  0.1498
  164SAPE    HA18410   5.776   0.941   5.653 -0.1473 -1.1767  0.7816
  164SAPE    HB18411   5.913   1.044   5.710  0.3226 -0.2111 -3.4947
  164SAPE    C218412   5.743   1.036   5.842  0.1196 -1.0109  0.3527
  164SAPE    HS18413   5.638   1.003   5.825  0.0788 -0.1173 -1.3184
  164SAPE   O2118414   5.754   1.173   5.892  0.2319  0.3464 -0.5546
  164SAPE   C2118415   5.646   1.253   5.877  0.4545 -0.5520 -0.5196
  164SAPE   O2218416   5.534   1.212   5.841  0.1998  0.0922  0.0173
  164SAPE   C2218417   5.675   1.399   5.911 -0.3537  0.4953  0.5383
  164SAPE   H2R18418   5.783   1.409   5.937  0.3737  0.7827 -2.2855
  164SAPE   H2S18419   5.658   1.450   5.814 -0.8763 -0.9296 -0.1434
  164SAPE    C318420   5.804   0.934   5.936  0.3989 -0.2696 -0.0311
  164SAPE    HX18421   5.915   0.930   5.925  0.5355  0.1012  1.0573
  164SAPE    HY18422   5.761   0.841   5.892  2.6171 -0.2859 -2.3949
  164SAPE   O3118423   5.766   0.951   6.075  0.3078 -0.1230 -0.3997
  164SAPE   C3118424   5.636   0.911   6.106  0.1979 -0.6243 -0.2204
  164SAPE   O3218425   5.558   0.869   6.024 -0.2208  0.0105 -0.1139
  164SAPE   C3218426   5.617   0.928   6.260 -0.2979  0.1778 -0.7212
  164SAPE   H2X18427   5.641   1.033   6.285  0.8074 -0.1445 -0.3409
  164SAPE   H2Y18428   5.688   0.855   6.305 -1.3659 -0.2805  0.2969
  164SAPE   C2318429   5.584   1.446   6.021  0.5326 -0.0378 -0.4425
  164SAPE   H3R18430   5.483   1.456   5.976  0.3902 -1.1691 -0.3990
  164SAPE   H3S18431   5.625   1.549   6.036 -0.0328  0.0564  0.5222
  164SAPE   C2418432   5.590   1.351   6.136  0.3913 -0.1147  0.6662
  164SAPE   H4R18433   5.696   1.320   6.149  0.2450 -1.4683 -1.0145
  164SAPE   H4S18434   5.544   1.253   6.112  0.8528 -0.2357  0.2350
  164SAPE   C2518435   5.534   1.421   6.256  0.1678 -0.0430  0.3626
  164SAPE   H5R18436   5.596   1.511   6.267  0.1173  0.0377  0.0062
  164SAPE   C2618437   5.439   1.380   6.338  0.3039  0.1626  0.0470
  164SAPE   H6R18438   5.427   1.426   6.437 -1.8492  0.7286 -0.4257
  164SAPE   C2718439   5.368   1.249   6.325  0.5237  0.4221 -0.0831
  164SAPE   H7R18440   5.407   1.182   6.405  1.2344  2.2109  1.1079
  164SAPE   H7S18441   5.377   1.202   6.225 -2.9531  1.4032 -0.9962
  164SAPE   C2818442   5.217   1.269   6.347  0.3059 -0.2973 -0.5582
  164SAPE   H8R18443   5.168   1.309   6.258  0.6299  1.4373  0.0074
  164SAPE   C2918444   5.138   1.276   6.458 -0.8003 -0.0254  0.4361
  164SAPE   H9R18445   5.033   1.309   6.455 -1.4211 -1.6044  2.5607
  164SAPE  C21018446   5.188   1.256   6.600  0.6428  0.4242  0.2584
  164SAPE  H10R18447   5.297   1.278   6.608  0.6495  0.3617  0.3335
  164SAPE  H10S18448   5.161   1.149   6.610 -0.5118  0.2552 -3.2296
  164SAPE  C21118449   5.126   1.346   6.697 -0.1240  0.4344  0.8139
  164SAPE  H11R18450   5.057   1.419   6.652  1.3528  1.2276 -0.2401
  164SAPE  C21218451   5.131   1.336   6.832 -0.3348 -0.5678  0.6914
  164SAPE  H12R18452   5.092   1.414   6.899  0.3648  0.2471  0.1771
  164SAPE  C21318453   5.201   1.221   6.897  0.2785 -0.2101  1.1384
  164SAPE  H13R18454   5.272   1.178   6.823  1.0070  3.1362 -0.2815
  164SAPE  H13S18455   5.124   1.143   6.915  0.4807 -0.9707 -1.0119
  164SAPE  C21418456   5.278   1.250   7.019  0.5961  0.2713 -0.4813
  164SAPE  H14R18457   5.386   1.261   7.004  1.1634 -0.6557  2.4096
  164SAPE  C21518458   5.248   1.264   7.148  0.3022  0.5727 -0.9898
  164SAPE  H15R18459   5.320   1.301   7.223 -0.3376  0.7069 -0.4307
  164SAPE  C21618460   5.109   1.261   7.196  0.2724 -0.2862  0.5870
  164SAPE  H16R18461   5.087   1.161   7.240 -4.2136  0.3656  0.1898
  164SAPE  H16S18462   5.036   1.272   7.113  1.8109 -2.9220 -1.2633
  164SAPE  C21718463   5.090   1.373   7.298  0.4086 -0.2231  0.1679
  164SAPE  H17R18464   5.107   1.470   7.247  1.8306 -0.3026  0.4426
  164SAPE  H17S18465   5.161   1.369   7.384 -0.0930  0.7709  0.6485
  164SAPE  C21818466   4.950   1.379   7.355  0.4854  0.5944  0.0005
  164SAPE  H18R18467   4.871   1.368   7.278  0.1880 -0.4295  0.4326
  164SAPE  H18S18468   4.922   1.470   7.414 -0.7314 -0.7911  1.6760
  164SAPE  C21918469   4.923   1.268   7.458  0.1254 -0.5293  0.7729
  164SAPE  H19R18470   5.011   1.247   7.522 -0.9703 -1.3937  2.0530
  164SAPE  H19S18471   4.892   1.178   7.401 -0.0230 -2.0495  3.1043
  164SAPE  C22018472   4.804   1.293   7.545  0.0679  0.1976 -0.5425
  164SAPE  H20R18473   4.708   1.290   7.490 -0.7392  0.6389  0.8114
  164SAPE  H20S18474   4.816   1.395   7.588 -0.2608  0.2508 -0.5746
  164SAPE  H20T18475   4.795   1.222   7.629  2.0059  0.7093  0.1406
  164SAPE   C3318476   5.481   0.877   6.294 -0.1597  0.1561  0.5543
  164SAPE   H3X18477   5.439   0.784   6.249 -1.4701  1.5998 -1.3364
  164SAPE   H3Y18478   5.400   0.945   6.262 -1.1947 -0.9055  0.8197
  164SAPE   C3418479   5.468   0.869   6.445 -0.1132 -0.0949 -0.8947
  164SAPE   H4X18480   5.512   0.960   6.492  1.7856 -1.6400  0.4508
  164SAPE   H4Y18481   5.524   0.780   6.478 -0.0726  0.3762  0.3457
  164SAPE   C3518482   5.314   0.859   6.483  0.4697  0.6940  0.7277
  164SAPE   H5X18483   5.275   0.771   6.430  0.2339  2.2222 -1.8041
  164SAPE   H5Y18484   5.270   0.950   6.437  1.0837  0.8844  0.4945
  164SAPE   C3618485   5.297   0.833   6.627 -0.6300  0.9091 -0.0316
  164SAPE   H6X18486   5.352   0.903   6.695 -0.9863  0.7686  0.4089
  164SAPE   H6Y18487   5.336   0.730   6.640 -1.8619  0.4193 -0.0925
  164SAPE   C3718488   5.151   0.838   6.675  0.6659  0.0501 -0.3239
  164SAPE   H7X18489   5.093   0.763   6.617 -0.4415  2.8533 -3.1387
  164SAPE   H7Y18490   5.120   0.943   6.656  2.7212  0.2963 -2.8977
  164SAPE   C3818491   5.123   0.824   6.830 -0.9248 -0.9196  0.1908
  164SAPE   H8X18492   5.020   0.840   6.868 -1.2307 -1.4415 -0.4080
  164SAPE   H8Y18493   5.195   0.891   6.882 -1.7090  0.3273 -0.2917
  164SAPE   C3918494   5.170   0.686   6.868  0.5802 -0.5589 -0.8097
  164SAPE   H9X18495   5.268   0.653   6.826  0.5994  0.4855 -1.6217
  164SAPE   H9Y18496   5.091   0.616   6.831 -1.4510  0.6012  1.0994
  164SAPE  C31018497   5.172   0.666   7.024 -0.6860 -0.0099  0.1228
  164SAPE  H10X18498   5.067   0.643   7.053 -0.7898  2.2989  1.8497
  164SAPE  H10Y18499   5.189   0.756   7.087  1.3031 -1.0760  1.2065
  164SAPE  C31118500   5.250   0.550   7.086  0.4814 -0.0572  0.4395
  164SAPE  H11X18501   5.358   0.561   7.062  0.0939  1.8989 -0.6381
  164SAPE  H11Y18502   5.211   0.452   7.053 -1.5234  0.7567  0.2512
  164SAPE  C31218503   5.242   0.551   7.236  0.1776  0.2604 -0.4626
  164SAPE  H12X18504   5.170   0.473   7.268 -0.0558  0.6073 -0.1267
  164SAPE  H12Y18505   5.184   0.636   7.277 -1.7787 -1.1079 -0.2811
  164SAPE  C31318506   5.379   0.522   7.304 -0.0997 -0.0282  0.0146
  164SAPE  H13X18507   5.411   0.603   7.374  1.8061  0.6916 -1.5965
  164SAPE  H13Y18508   5.466   0.514   7.236  0.9272 -0.0823  1.2914
  164SAPE  C31418509   5.377   0.384   7.375 -0.3134 -0.6702  0.3887
  164SAPE  H14X18510   5.478   0.337   7.382 -0.3614 -0.8584 -0.1240
  164SAPE  H14Y18511   5.326   0.308   7.313 -0.2622 -2.7892  2.7537
  164SAPE  C31518512   5.309   0.398   7.510  0.3551 -0.4355  0.2028
  164SAPE  H15X18513   5.229   0.474   7.499  1.6448  0.8612 -0.6289
  164SAPE  H15Y18514   5.382   0.443   7.581 -0.4093 -1.6037  1.8021
  164SAPE  C31618515   5.259   0.263   7.569  0.4070  0.4012  0.3463
  164SAPE  H16X18516   5.235   0.312   7.666  0.4855  1.5256 -0.1880
  164SAPE  H16Y18517   5.341   0.189   7.575 -0.1360 -0.2465 -0.1164
  164SAPE  C31718518   5.132   0.196   7.508  0.2192 -0.6790  1.0856
  164SAPE  H17X18519   5.144   0.175   7.400 -1.5509  1.5102  0.3836
  164SAPE  H17Y18520   5.060   0.281   7.501 -1.9621 -2.5688 -2.5959
  164SAPE  C31818521   5.092   0.072   7.585 -0.1769 -0.4718  0.6716
  164SAPE  H18X18522   5.072   0.103   7.690  0.9221 -1.2167  1.1206
  164SAPE  H18Y18523   5.172  -0.005   7.590 -0.6322 -1.2860 -2.4907
  164SAPE  H18Z18524   5.003   0.021   7.543  0.0633 -1.2869  1.1277
  165SAPE     N18525   6.809   3.656   5.598 -0.1661  0.0498  0.1893
  165SAPE   HN118526   6.813   3.760   5.594  0.1276  0.0101 -1.2376
  165SAPE   HN218527   6.906   3.619   5.607 -0.4810 -0.4208  1.9125
  165SAPE   HN318528   6.779   3.621   5.504  3.2230 -1.3329 -0.5407
  165SAPE   C1218529   6.714   3.612   5.704 -0.1085  0.6340  0.5576
  165SAPE  H12A18530   6.618   3.658   5.672 -0.5946  0.4003  1.6222
  165SAPE  H12B18531   6.746   3.639   5.806 -0.2557 -0.7917  1.0136
  165SAPE   C1118532   6.692   3.453   5.704  0.3522 -0.2615  0.0111
  165SAPE  H11A18533   6.596   3.433   5.757  0.1329 -3.5434 -1.3827
  165SAPE  H11B18534   6.776   3.403   5.756  1.6127  0.5562 -1.1935
  165SAPE     P18535   6.566   3.390   5.475 -0.0356  0.0602 -0.0068
  165SAPE   O1318536   6.615   3.420   5.338  0.0899 -0.0739  0.1481
  165SAPE   O1418537   6.493   3.269   5.514  0.2935  0.2581 -0.3794
  165SAPE   O1218538   6.689   3.412   5.567 -0.4983  0.1201  0.2488
  165SAPE   O1118539   6.478   3.515   5.526 -0.4306  0.1606 -0.0989
  165SAPE    C118540   6.346   3.506   5.586 -0.8974 -0.2720 -0.5327
  165SAPE    HA18541   6.269   3.538   5.512 -2.9289 -0.1901  1.4974
  165SAPE    HB18542   6.332   3.404   5.627  1.3062 -0.7476 -0.8253
  165SAPE    C218543   6.324   3.605   5.708 -0.5859 -0.3728 -0.7815
  165SAPE    HS18544   6.366   3.703   5.677 -0.4899  0.4992  1.8610
  165SAPE   O2118545   6.384   3.543   5.822 -0.0264  0.1983 -0.5133
  165SAPE   C2118546   6.415   3.625   5.913 -0.1323 -0.7830 -0.0236
  165SAPE   O2218547   6.395   3.745   5.915 -0.2369 -0.2008  0.2713
  165SAPE   C2218548   6.485   3.556   6.023 -0.1106 -0.2225  0.9710
  165SAPE   H2R18549   6.432   3.460   6.038  0.1429 -0.6444 -0.6146
  165SAPE   H2S18550   6.594   3.539   6.010 -0.2058 -0.0881 -0.1162
  165SAPE    C318551   6.170   3.622   5.744 -0.2778  0.8005 -0.0252
  165SAPE    HX18552   6.123   3.677   5.660  0.4106 -2.2423 -2.6000
  165SAPE    HY18553   6.167   3.691   5.831  0.2988  0.5722  0.1789
  165SAPE   O3118554   6.099   3.499   5.750  0.5996  0.4737  0.7271
  165SAPE   C3118555   6.075   3.456   5.879 -0.3724  0.3783  0.6981
  165SAPE   O3218556   6.098   3.529   5.976 -0.1911 -0.2527 -0.8266
  165SAPE   C3218557   6.029   3.310   5.885 -0.3709  0.0104 -0.0225
  165SAPE   H2X18558   6.047   3.258   5.788 -1.3702  0.2026 -0.3323
  165SAPE   H2Y18559   5.919   3.308   5.900 -0.5306  0.5278 -1.0432
  165SAPE   C2318560   6.477   3.631   6.160 -0.5091  0.2277  0.4421
  165SAPE   H3R18561   6.526   3.730   6.145 -0.4769  0.0256 -1.0160
  165SAPE   H3S18562   6.537   3.569   6.229  0.5289 -1.2701 -1.6897
  165SAPE   C2418563   6.338   3.659   6.213 -0.0070 -0.4668  0.9110
  165SAPE   H4R18564   6.282   3.713   6.135  1.0774  0.0706  0.4820
  165SAPE   H4S18565   6.349   3.740   6.289 -1.0446 -0.1173  0.7023
  165SAPE   C2518566   6.263   3.535   6.269  0.2353 -0.3836 -0.2474
  165SAPE   H5R18567   6.234   3.474   6.183  0.0172 -1.4697  0.5763
  165SAPE   C2618568   6.242   3.505   6.395 -0.3740  0.2921 -0.6991
  165SAPE   H6R18569   6.192   3.411   6.423  0.6646  0.1110  0.6258
  165SAPE   C2718570   6.285   3.583   6.511  0.0916 -0.2763  0.4142
  165SAPE   H7R18571   6.199   3.623   6.569 -2.3167 -1.4351 -2.1269
  165SAPE   H7S18572   6.344   3.674   6.484  0.6962 -0.6957  0.3141
  165SAPE   C2818573   6.376   3.504   6.601 -0.7966  0.3420  0.6376
  165SAPE   H8R18574   6.426   3.415   6.559  0.2119  0.2288  1.9922
  165SAPE   C2918575   6.396   3.519   6.734  1.1648  0.0682  0.7118
  165SAPE   H9R18576   6.452   3.443   6.791 -0.3518 -1.7821 -0.1697
  165SAPE  C21018577   6.343   3.624   6.825 -0.3430  0.1717 -0.3882
  165SAPE  H10R18578   6.249   3.673   6.792 -0.7758  0.2067  0.8392
  165SAPE  H10S18579   6.414   3.709   6.839  0.3949 -0.0354 -2.5508
  165SAPE  C21118580   6.285   3.580   6.959 -0.4172 -0.6171  0.1677
  165SAPE  H11R18581   6.190   3.525   6.949  0.3095 -2.0249  0.8577
  165SAPE  C21218582   6.347   3.591   7.081  0.3239 -0.2422 -0.5989
  165SAPE  H12R18583   6.295   3.560   7.172  0.5776  0.5443 -0.1735
  165SAPE  C21318584   6.483   3.660   7.098 -0.1024  0.6687 -0.9021
  165SAPE  H13R18585   6.507   3.644   7.206  0.2413 -0.3617 -1.1142
  165SAPE  H13S18586   6.493   3.769   7.081  2.8415  0.7609  0.7853
  165SAPE  C21418587   6.607   3.594   7.039 -0.1012  0.5272  0.3245
  165SAPE  H14R18588   6.587   3.497   6.991 -1.4969  0.7266  0.4526
  165SAPE  C21518589   6.736   3.631   7.039 -0.1898  0.0926  0.5851
  165SAPE  H15R18590   6.809   3.563   6.993  1.4999  1.7207  0.7274
  165SAPE  C21618591   6.809   3.756   7.091  0.1204  0.0447  0.6893
  165SAPE  H16R18592   6.732   3.819   7.142  1.3173  1.6124  0.6509
  165SAPE  H16S18593   6.865   3.807   7.010  0.6085  0.3223  1.1987
  165SAPE  C21718594   6.915   3.725   7.201 -0.3273 -0.0901 -0.2787
  165SAPE  H17R18595   6.968   3.823   7.201 -0.8835  0.2118 -0.0429
  165SAPE  H17S18596   6.968   3.632   7.170 -1.4021 -1.3546  1.5338
  165SAPE  C21818597   6.856   3.704   7.340  0.1115  0.0389  0.4120
  165SAPE  H18R18598   6.796   3.610   7.343 -0.4347  0.3698  0.1567
  165SAPE  H18S18599   6.794   3.793   7.364  0.9682  1.1172 -1.1817
  165SAPE  C21918600   6.960   3.670   7.450 -0.1448  0.1765  0.1627
  165SAPE  H19R18601   6.900   3.654   7.543  0.4972 -1.3840  0.3348
  165SAPE  H19S18602   7.024   3.758   7.471 -1.8124  1.1783  1.3438
  165SAPE  C22018603   7.041   3.545   7.421  0.0657  0.3733 -0.5269
  165SAPE  H20R18604   7.106   3.509   7.503  0.4185  1.4115 -0.3349
  165SAPE  H20S18605   7.111   3.561   7.336  0.0866 -2.2400 -1.0677
  165SAPE  H20T18606   6.977   3.459   7.392  1.0910 -0.1755 -1.2086
  165SAPE   C3318607   6.097   3.244   6.006 -0.3410 -0.6859  0.0698
  165SAPE   H3X18608   6.089   3.303   6.099 -4.0059 -0.7501 -0.0499
  165SAPE   H3Y18609   6.207   3.236   5.989  0.0286  0.9980  1.4693
  165SAPE   C3418610   6.055   3.101   6.051 -0.0607 -1.0371 -0.5623
  165SAPE   H4X18611   6.105   3.041   5.972  2.5772 -3.6806  2.8085
  165SAPE   H4Y18612   5.946   3.085   6.059 -0.5063  1.6301 -0.2756
  165SAPE   C3518613   6.145   3.075   6.179  0.1869 -0.1561  0.2961
  165SAPE   H5X18614   6.175   3.176   6.214  0.6427 -0.2673  0.2411
  165SAPE   H5Y18615   6.239   3.022   6.150 -0.6122 -1.5895  0.2080
  165SAPE   C3618616   6.078   2.992   6.298 -0.2535  0.8068 -0.5608
  165SAPE   H6X18617   6.068   2.886   6.268 -0.9275  1.0186 -1.0995
  165SAPE   H6Y18618   5.976   3.035   6.312 -0.9161 -0.3896 -1.5297
  165SAPE   C3718619   6.162   3.008   6.426  0.5269  0.4369 -0.1746
  165SAPE   H7X18620   6.105   2.957   6.506 -2.3174  0.4316 -2.0746
  165SAPE   H7Y18621   6.164   3.118   6.447  0.5162  0.4815 -0.4139
  165SAPE   C3818622   6.295   2.940   6.405 -0.9400 -0.0235 -0.0524
  165SAPE   H8X18623   6.350   2.996   6.326 -1.2549  0.6600  0.1983
  165SAPE   H8Y18624   6.273   2.834   6.380  0.6739 -0.8068  1.5960
  165SAPE   C3918625   6.380   2.935   6.532 -0.3573  0.1741 -0.4319
  165SAPE   H9X18626   6.458   2.857   6.540 -0.5288  0.1464  1.3931
  165SAPE   H9Y18627   6.310   2.919   6.617  1.0347 -1.6744  0.4361
  165SAPE  C31018628   6.450   3.068   6.562  0.2320 -0.2798  0.4348
  165SAPE  H10X18629   6.379   3.148   6.590  1.8262  0.7466  1.6706
  165SAPE  H10Y18630   6.486   3.101   6.462  0.7421  2.4132  1.4222
  165SAPE  C31118631   6.562   3.062   6.667 -0.2958 -0.7283  0.7254
  165SAPE  H11X18632   6.612   2.964   6.649 -2.2403 -1.7051  0.3961
  165SAPE  H11Y18633   6.529   3.065   6.773  1.2228 -1.0360  1.2320
  165SAPE  C31218634   6.684   3.157   6.657 -0.3294 -0.2141  0.2997
  165SAPE  H12X18635   6.758   3.138   6.737  0.7760  2.2915 -0.0308
  165SAPE  H12Y18636   6.634   3.256   6.665 -0.8811 -0.4000 -0.6390
  165SAPE  C31318637   6.744   3.149   6.516  0.0438 -0.0472  0.1871
  165SAPE  H13X18638   6.677   3.158   6.428 -0.6890  1.2546  0.8555
  165SAPE  H13Y18639   6.782   3.044   6.515  1.9104  0.5869 -0.8833
  165SAPE  C31418640   6.868   3.247   6.500  0.1497 -0.1124 -0.2848
  165SAPE  H14X18641   6.905   3.253   6.395 -0.6986 -1.8800 -0.7380
  165SAPE  H14Y18642   6.953   3.201   6.555 -0.5354 -0.0172  0.8836
  165SAPE  C31518643   6.843   3.394   6.532  0.0560 -0.4279 -0.9967
  165SAPE  H15X18644   6.940   3.446   6.515  0.2319  0.1427  1.4222
  165SAPE  H15Y18645   6.827   3.394   6.642 -1.6817 -2.0379 -1.2058
  165SAPE  C31618646   6.734   3.470   6.457  0.4156 -0.4099  0.1906
  165SAPE  H16X18647   6.636   3.427   6.487  0.0449 -0.8453 -1.5767
  165SAPE  H16Y18648   6.746   3.460   6.348  2.7691  2.4060  0.0569
  165SAPE  C31718649   6.731   3.618   6.489 -0.4438  0.1809 -0.5689
  165SAPE  H17X18650   6.745   3.613   6.599  1.6985 -4.0919 -0.8092
  165SAPE  H17Y18651   6.637   3.664   6.452  0.3347  1.3182 -1.2429
  165SAPE  C31818652   6.848   3.687   6.421 -0.3434  0.2447  0.1982
  165SAPE  H18X18653   6.946   3.634   6.414  0.4068  1.6758 -0.4351
  165SAPE  H18Y18654   6.844   3.789   6.464 -1.1216  0.0293  0.6590
  165SAPE  H18Z18655   6.820   3.695   6.314  0.8832  0.5956 -0.1164
  166SAPE     N18656   4.656   0.119   5.511 -0.3911  0.3383  0.2965
  166SAPE   HN118657   4.741   0.158   5.466 -0.6633 -0.5660 -1.0317
  166SAPE   HN218658   4.673   0.019   5.533 -1.4586  0.0305 -0.2298
  166SAPE   HN318659   4.579   0.120   5.441  1.8137  0.1299 -2.2583
  166SAPE   C1218660   4.619   0.191   5.642 -0.0092 -0.2823 -0.1495
  166SAPE  H12A18661   4.622   0.301   5.627 -0.0041 -0.4357 -1.3696
  166SAPE  H12B18662   4.703   0.160   5.709 -1.5227 -1.0504  1.4875
  166SAPE   C1118663   4.482   0.143   5.699 -0.0227  0.5656  0.1325
  166SAPE  H11A18664   4.458   0.210   5.784 -0.2457 -1.2926  1.5820
  166SAPE  H11B18665   4.488   0.044   5.750  0.9406  0.7306  0.3598
  166SAPE     P18666   4.278   0.234   5.572  0.3466 -0.3643  0.3025
  166SAPE   O1318667   4.338   0.352   5.511 -0.1659 -0.2631  0.0534
  166SAPE   O1418668   4.162   0.167   5.502 -0.5636 -0.3565  0.3496
  166SAPE   O1218669   4.386   0.125   5.591  0.2769 -0.2211  0.2954
  166SAPE   O1118670   4.228   0.271   5.723  0.7721  0.5105  0.4042
  166SAPE    C118671   4.163   0.177   5.804 -0.0297  0.1189 -0.3602
  166SAPE    HA18672   4.184   0.069   5.789  1.0829 -0.0476  2.0274
  166SAPE    HB18673   4.184   0.194   5.912 -2.8855  0.2548  0.2282
  166SAPE    C218674   4.006   0.184   5.793 -0.1175  0.0808  0.9152
  166SAPE    HS18675   3.975   0.190   5.686  0.2677 -0.2843  0.7780
  166SAPE   O2118676   3.972   0.305   5.862  0.3865  0.0365  0.5961
  166SAPE   C2118677   3.846   0.343   5.842  0.9516 -0.7599 -0.5094
  166SAPE   O2218678   3.766   0.294   5.766  0.0698  0.0418  0.4636
  166SAPE   C2218679   3.803   0.452   5.944 -0.7792 -0.3551 -0.0518
  166SAPE   H2R18680   3.740   0.533   5.901  1.5909  2.3442  1.2642
  166SAPE   H2S18681   3.750   0.405   6.030 -1.6044  1.9834  0.7831
  166SAPE    C318682   3.938   0.056   5.852  0.0723  0.4898 -0.2640
  166SAPE    HX18683   3.978  -0.033   5.800  1.6442  1.4195 -0.7001
  166SAPE    HY18684   3.828   0.063   5.835 -0.1849  2.0577  1.6278
  166SAPE   O3118685   3.973   0.038   5.992 -0.5488 -0.5691 -0.4456
  166SAPE   C3118686   3.878   0.066   6.082  0.0149  0.5327 -0.3937
  166SAPE   O3218687   3.762   0.088   6.052 -0.0555 -0.2356 -0.2114
  166SAPE   C3218688   3.941   0.074   6.217 -0.2826  0.8389 -0.6534
  166SAPE   H2X18689   4.011   0.160   6.225 -1.5320  1.7686  0.8091
  166SAPE   H2Y18690   4.002  -0.018   6.224 -1.1842  0.2660 -0.0936
  166SAPE   C2318691   3.928   0.535   6.001 -0.1514  0.7597  0.2981
  166SAPE   H3R18692   3.993   0.567   5.917  1.8277  2.0274  2.2407
  166SAPE   H3S18693   3.999   0.465   6.050 -0.6664 -0.6822 -0.9008
  166SAPE   C2418694   3.879   0.652   6.081 -0.0295 -0.1459 -0.6029
  166SAPE   H4R18695   3.820   0.719   6.015  1.4584  1.1317 -0.6856
  166SAPE   H4S18696   3.960   0.723   6.107  0.9854 -0.6692 -2.2021
  166SAPE   C2518697   3.809   0.613   6.209 -0.0882  0.3283 -0.2666
  166SAPE   H5R18698   3.709   0.571   6.192 -0.4699  0.3539  1.7103
  166SAPE   C2618699   3.869   0.614   6.330  1.1782 -0.2620  0.3898
  166SAPE   H6R18700   3.815   0.572   6.416 -1.2810 -1.5604 -1.6763
  166SAPE   C2718701   4.015   0.650   6.363  0.1006  0.3887  0.0231
  166SAPE   H7R18702   4.019   0.705   6.459 -2.4557 -1.3012  1.2088
  166SAPE   H7S18703   4.063   0.722   6.294  0.5266  0.8104  0.7532
  166SAPE   C2818704   4.100   0.527   6.357 -0.5769 -0.0818 -0.2884
  166SAPE   H8R18705   4.123   0.484   6.259 -0.0708  1.3466 -0.8210
  166SAPE   C2918706   4.145   0.463   6.469  0.6381 -0.1951  0.3084
  166SAPE   H9R18707   4.173   0.359   6.450  1.1128  0.0077 -0.1513
  166SAPE  C21018708   4.122   0.498   6.621 -0.1455 -0.5966 -0.2187
  166SAPE  H10R18709   4.145   0.404   6.677  0.3463 -0.6791 -0.5515
  166SAPE  H10S18710   4.015   0.519   6.643 -0.3455 -1.9254  0.1442
  166SAPE  C21118711   4.224   0.599   6.652 -0.4286  0.1516  0.3024
  166SAPE  H11R18712   4.236   0.681   6.580 -0.8027  1.6442  1.8624
  166SAPE  C21218713   4.291   0.613   6.766 -0.3626  0.1414  0.3986
  166SAPE  H12R18714   4.375   0.683   6.764 -0.7422  0.6020  0.4032
  166SAPE  C21318715   4.260   0.534   6.883 -0.3387 -0.2052 -0.7229
  166SAPE  H13R18716   4.150   0.528   6.894 -0.6053 -0.5009 -3.0426
  166SAPE  H13S18717   4.296   0.600   6.965 -0.5459 -0.9573 -0.0036
  166SAPE  C21418718   4.328   0.402   6.904 -0.8931 -0.1108 -0.7384
  166SAPE  H14R18719   4.352   0.357   6.807  0.3177  0.8672 -0.9076
  166SAPE  C21518720   4.368   0.347   7.024 -0.1024 -0.0055 -0.1881
  166SAPE  H15R18721   4.422   0.251   7.015 -0.2327  0.1055 -2.9574
  166SAPE  C21618722   4.352   0.405   7.164  0.4831  0.3894  0.3915
  166SAPE  H16R18723   4.335   0.513   7.142  1.6238  0.2268 -1.4984
  166SAPE  H16S18724   4.444   0.383   7.221  0.2974 -2.5334 -0.3007
  166SAPE  C21718725   4.227   0.330   7.225  0.2202  0.1397 -0.0277
  166SAPE  H17R18726   4.234   0.219   7.220 -0.5295  0.1240 -1.0806
  166SAPE  H17S18727   4.141   0.356   7.160 -0.0384 -0.9666 -0.1510
  166SAPE  C21818728   4.170   0.375   7.364 -0.3185  0.1705 -0.0843
  166SAPE  H18R18729   4.080   0.309   7.374  2.1325 -3.5218 -0.2702
  166SAPE  H18S18730   4.152   0.484   7.369 -0.2197  0.1808  0.0533
  166SAPE  C21918731   4.256   0.329   7.487  0.5217  0.5321  0.3002
  166SAPE  H19R18732   4.198   0.344   7.581 -2.1689  0.4637 -1.2257
  166SAPE  H19S18733   4.351   0.386   7.484  1.4982 -0.9225  1.5472
  166SAPE  C22018734   4.275   0.179   7.479  0.4047  0.7613 -0.2050
  166SAPE  H20R18735   4.182   0.125   7.449  0.3328 -0.3916  1.9072
  166SAPE  H20S18736   4.300   0.128   7.574 -0.2211 -1.0735 -0.9805
  166SAPE  H20T18737   4.345   0.149   7.397 -0.7446 -1.4384 -0.4691
  166SAPE   C3318738   3.847   0.075   6.336  0.2403  0.1596  0.4503
  166SAPE   H3X18739   3.902   0.040   6.425  2.0451 -1.6602 -1.2932
  166SAPE   H3Y18740   3.761   0.007   6.314  1.4335 -1.3011  0.1756
  166SAPE   C3418741   3.785   0.211   6.362  0.1237 -1.1253  0.1097
  166SAPE   H4X18742   3.702   0.234   6.292  2.6939  2.2954 -2.0713
  166SAPE   H4Y18743   3.864   0.288   6.354  0.1837 -1.3265 -1.4979
  166SAPE   C3518744   3.720   0.215   6.501 -0.7333  0.1947 -0.3764
  166SAPE   H5X18745   3.633   0.147   6.514  0.3625 -0.9440  1.5580
  166SAPE   H5Y18746   3.684   0.320   6.512 -1.9782 -0.1894 -0.6732
  166SAPE   C3618747   3.819   0.187   6.616 -0.6440  0.1603  0.3262
  166SAPE   H6X18748   3.920   0.230   6.598 -0.5684  0.1099  0.6417
  166SAPE   H6Y18749   3.830   0.077   6.623 -1.2074 -0.0369 -1.3264
  166SAPE   C3718750   3.787   0.250   6.757  0.1738 -0.8234  0.4166
  166SAPE   H7X18751   3.791   0.358   6.734  0.8928 -1.3047 -2.0284
  166SAPE   H7Y18752   3.875   0.234   6.824 -0.5869  0.9512  1.9177
  166SAPE   C3818753   3.653   0.216   6.813 -0.7302  0.6355  0.2152
  166SAPE   H8X18754   3.656   0.108   6.840 -1.4029  0.7088  0.6051
  166SAPE   H8Y18755   3.576   0.224   6.733  0.8431 -0.9317 -1.5661
  166SAPE   C3918756   3.617   0.305   6.936  0.3278  0.3205  0.6329
  166SAPE   H9X18757   3.610   0.409   6.897  2.5573  0.2608 -0.0763
  166SAPE   H9Y18758   3.690   0.295   7.019  0.2877  4.2627  1.3314
  166SAPE  C31018759   3.474   0.264   6.983 -0.3885  0.1304  0.4524
  166SAPE  H10X18760   3.418   0.222   6.897  1.3306 -0.4000 -0.4616
  166SAPE  H10Y18761   3.420   0.352   7.025  1.2537  2.1355 -1.4180
  166SAPE  C31118762   3.473   0.151   7.086 -0.9246 -0.5046  1.0060
  166SAPE  H11X18763   3.533   0.194   7.169  0.5831  3.1150 -1.6642
  166SAPE  H11Y18764   3.512   0.064   7.029  2.4680  2.4926 -1.7951
  166SAPE  C31218765   3.330   0.116   7.127  0.0094  0.4426  0.2374
  166SAPE  H12X18766   3.265   0.135   7.039 -0.1113 -1.4051 -0.1125
  166SAPE  H12Y18767   3.295   0.179   7.212 -2.2393 -1.0284  0.4670
  166SAPE  C31318768   3.308  -0.027   7.190  0.4702  0.5161 -0.8057
  166SAPE  H13X18769   3.362  -0.034   7.287  0.3423 -0.3274 -0.7892
  166SAPE  H13Y18770   3.341  -0.107   7.120 -2.5063  1.3031 -3.2712
  166SAPE  C31418771   3.165  -0.070   7.224  0.3824 -0.3153 -0.4286
  166SAPE  H14X18772   3.177  -0.178   7.251 -1.5321 -0.5757 -0.5095
  166SAPE  H14Y18773   3.097  -0.072   7.136  0.2850 -1.3604 -0.3399
  166SAPE  C31518774   3.099   0.004   7.339  0.2736  0.0050 -0.1760
  166SAPE  H15X18775   2.993  -0.027   7.342 -0.3803  1.8800 -2.1034
  166SAPE  H15Y18776   3.094   0.110   7.307 -0.9944 -0.0879 -0.3196
  166SAPE  C31618777   3.177   0.013   7.478  0.8401  0.1035  0.1788
  166SAPE  H16X18778   3.274   0.065   7.461  0.1935  1.1964 -0.2725
  166SAPE  H16Y18779   3.201  -0.094   7.498  0.7049 -0.4994 -2.4904
  166SAPE  C31718780   3.115   0.083   7.596 -0.2173  0.4372  0.5379
  166SAPE  H17X18781   3.018   0.031   7.614  0.3419 -0.5762  0.7367
  166SAPE  H17Y18782   3.098   0.186   7.559  0.0138  0.0663 -0.6436
  166SAPE  C31818783   3.201   0.090   7.720  0.1992  0.2823  0.8538
  166SAPE  H18X18784   3.183  -0.004   7.777 -2.8975 -0.0795 -0.4682
  166SAPE  H18Y18785   3.166   0.174   7.783  0.4250  1.0249  0.0165
  166SAPE  H18Z18786   3.308   0.110   7.697  0.2783 -2.2657 -1.7073
  167SAPE     N18787   6.195   6.258   5.567 -0.0924 -0.4602 -0.0547
  167SAPE   HN118788   6.232   6.210   5.651 -1.8782  0.2208  1.1715
  167SAPE   HN218789   6.119   6.196   5.532 -0.1351 -1.1489  1.2193
  167SAPE   HN318790   6.273   6.261   5.498 -1.5435  1.2013 -1.7866
  167SAPE   C1218791   6.144   6.397   5.603  0.3320  0.3968  0.1321
  167SAPE  H12A18792   6.080   6.422   5.516  0.8058 -1.6708 -0.8736
  167SAPE  H12B18793   6.224   6.473   5.611 -0.1595  1.1284 -1.5140
  167SAPE   C1118794   6.042   6.375   5.714  0.5400 -0.1966 -0.7445
  167SAPE  H11A18795   6.032   6.471   5.769  2.9612 -0.2542 -0.1030
  167SAPE  H11B18796   6.083   6.308   5.792 -0.7005  0.9480  0.9718
  167SAPE     P18797   5.784   6.385   5.657  0.0056 -0.0382  0.2292
  167SAPE   O1318798   5.813   6.513   5.592 -0.2487 -0.1364  0.1552
  167SAPE   O1418799   5.682   6.300   5.588 -0.1296 -0.1315 -0.0593
  167SAPE   O1218800   5.921   6.307   5.661 -0.5151  0.5290 -0.0971
  167SAPE   O1118801   5.750   6.419   5.804 -0.1815 -0.4114  0.0187
  167SAPE    C118802   5.775   6.317   5.903  0.1063  0.1397  0.9648
  167SAPE    HA18803   5.710   6.228   5.890 -0.4164  0.4710  1.2956
  167SAPE    HB18804   5.875   6.271   5.885  0.7163  1.3945  1.0730
  167SAPE    C218805   5.769   6.386   6.035 -0.5074  0.5275  0.2391
  167SAPE    HS18806   5.820   6.316   6.105 -0.5741 -0.6418 -0.8494
  167SAPE   O2118807   5.635   6.397   6.089  0.4098  0.7589  0.7959
  167SAPE   C2118808   5.573   6.274   6.103  0.5021 -0.7350 -0.0116
  167SAPE   O2218809   5.626   6.164   6.111 -0.2883 -0.2524  0.6513
  167SAPE   C2218810   5.420   6.303   6.102  0.6787  0.7540 -0.1730
  167SAPE   H2R18811   5.391   6.379   6.179 -0.4601 -1.1425  1.3726
  167SAPE   H2S18812   5.392   6.345   6.004  1.2646 -1.3835 -1.3080
  167SAPE    C318813   5.838   6.524   6.033  0.6517 -0.2253 -0.3117
  167SAPE    HX18814   5.767   6.593   5.984 -1.1075 -1.0123  0.9918
  167SAPE    HY18815   5.925   6.520   5.964  0.6434  0.3740 -0.3620
  167SAPE   O3118816   5.874   6.567   6.170 -0.2614  0.5172  0.2285
  167SAPE   C3118817   5.811   6.673   6.213 -0.4324  1.1247  0.0324
  167SAPE   O3218818   5.727   6.731   6.150 -0.1208  0.3820  0.1689
  167SAPE   C3218819   5.845   6.692   6.357  0.1969  0.1690 -0.7600
  167SAPE   H2X18820   5.771   6.757   6.407  0.8266 -0.1839  0.7175
  167SAPE   H2Y18821   5.946   6.739   6.354  0.0712  0.4335 -0.7967
  167SAPE   C2318822   5.334   6.177   6.124 -0.6418  0.3513  0.2869
  167SAPE   H3R18823   5.380   6.090   6.072  1.0114  0.5738  1.3227
  167SAPE   H3S18824   5.232   6.181   6.079 -0.8405 -0.1249  0.6877
  167SAPE   C2418825   5.324   6.133   6.276  0.3903  0.1680  0.2197
  167SAPE   H4R18826   5.293   6.221   6.337  0.2977  0.2414  0.0689
  167SAPE   H4S18827   5.424   6.103   6.313  1.5922 -0.0334 -2.8712
  167SAPE   C2518828   5.212   6.035   6.299 -0.5380 -0.0471  0.5164
  167SAPE   H5R18829   5.132   6.036   6.224 -0.6709  3.8557  0.4992
  167SAPE   C2618830   5.187   5.995   6.424  0.4443 -0.1125  0.2849
  167SAPE   H6R18831   5.101   5.928   6.442  1.2931 -1.5711 -0.8637
  167SAPE   C2718832   5.264   6.029   6.548  0.0834  0.1502 -0.4964
  167SAPE   H7R18833   5.368   6.057   6.520 -0.6217  1.1154 -2.2911
  167SAPE   H7S18834   5.273   5.947   6.622  0.3901  0.8191  0.2201
  167SAPE   C2818835   5.196   6.154   6.598  0.3335 -0.1351  0.2890
  167SAPE   H8R18836   5.096   6.179   6.559  0.4280  0.9828  0.7530
  167SAPE   C2918837   5.244   6.232   6.696 -0.3493 -0.7169 -0.6536
  167SAPE   H9R18838   5.209   6.335   6.708 -1.4132 -0.9598 -1.5206
  167SAPE  C21018839   5.381   6.198   6.771  0.3074  0.6133  0.1459
  167SAPE  H10R18840   5.457   6.170   6.696 -1.3956 -2.7762 -0.4959
  167SAPE  H10S18841   5.373   6.114   6.844 -0.4582  0.0102 -0.6075
  167SAPE  C21118842   5.412   6.309   6.865  0.3775  0.7569  0.4525
  167SAPE  H11R18843   5.334   6.383   6.887 -0.2929 -0.3227  1.8034
  167SAPE  C21218844   5.522   6.322   6.936  0.7603  0.2779 -0.3970
  167SAPE  H12R18845   5.533   6.408   7.004  0.2134 -0.1888  0.2865
  167SAPE  C21318846   5.649   6.239   6.909 -0.0743 -0.2086  0.5730
  167SAPE  H13R18847   5.737   6.284   6.959  0.2604  3.8818 -3.0897
  167SAPE  H13S18848   5.666   6.251   6.800 -0.7129  0.2110  0.5099
  167SAPE  C21418849   5.659   6.090   6.929 -0.3204 -0.3689 -0.4800
  167SAPE  H14R18850   5.638   6.018   6.849 -0.5546 -2.0706  1.0431
  167SAPE  C21518851   5.677   6.030   7.050 -0.2864 -0.2976 -0.3540
  167SAPE  H15R18852   5.679   5.920   7.051  1.4283 -0.3582 -2.4111
  167SAPE  C21618853   5.691   6.088   7.185 -1.0970 -0.2257 -0.1581
  167SAPE  H16R18854   5.678   6.198   7.181  2.4399  0.4025  1.4993
  167SAPE  H16S18855   5.784   6.063   7.240 -1.1791  1.6178  0.8944
  167SAPE  C21718856   5.571   6.028   7.268 -0.2673 -0.5486  0.0388
  167SAPE  H17R18857   5.562   5.919   7.249 -0.1873 -0.0661 -3.4652
  167SAPE  H17S18858   5.482   6.081   7.227  0.7718  1.3256  0.0891
  167SAPE  C21818859   5.596   6.059   7.406 -0.1093 -0.0753 -0.0972
  167SAPE  H18R18860   5.648   6.155   7.425  1.7083 -1.1992  0.8141
  167SAPE  H18S18861   5.675   5.992   7.446  0.7854  0.2032 -1.3565
  167SAPE  C21918862   5.471   6.040   7.486  0.4311  0.4674  0.0360
  167SAPE  H19R18863   5.433   5.941   7.452  0.1141  0.5025  0.2864
  167SAPE  H19S18864   5.386   6.107   7.460 -1.4592 -0.8944  2.3506
  167SAPE  C22018865   5.495   6.057   7.636 -0.2094  0.4240  0.2862
  167SAPE  H20R18866   5.579   5.991   7.667  0.8315  1.2422 -0.7095
  167SAPE  H20S18867   5.408   6.021   7.696  1.7183 -1.6954  1.9753
  167SAPE  H20T18868   5.512   6.165   7.657 -1.2630  0.6774 -0.0791
  167SAPE   C3318869   5.835   6.553   6.431 -0.3661  0.5156  0.8078
  167SAPE   H3X18870   5.863   6.575   6.537  1.3965 -3.4318  1.3705
  167SAPE   H3Y18871   5.901   6.476   6.385 -2.5394 -0.8126 -0.2779
  167SAPE   C3418872   5.686   6.500   6.428 -0.0686  0.0985 -0.3607
  167SAPE   H4X18873   5.652   6.493   6.323  2.1244 -0.7743 -1.0785
  167SAPE   H4Y18874   5.626   6.583   6.471  0.4055 -0.9754  2.6827
  167SAPE   C3518875   5.649   6.381   6.521 -0.1657 -0.1197  0.5760
  167SAPE   H5X18876   5.540   6.392   6.543 -0.5633 -1.3320 -0.6502
  167SAPE   H5Y18877   5.697   6.395   6.621  1.6869 -1.8739 -0.0049
  167SAPE   C3618878   5.670   6.243   6.459 -1.1370  0.2346  0.1722
  167SAPE   H6X18879   5.668   6.251   6.348 -0.7916 -0.0526  0.1449
  167SAPE   H6Y18880   5.590   6.167   6.474  0.4051 -2.0904 -2.3625
  167SAPE   C3718881   5.803   6.181   6.494 -0.7447 -0.1656  0.3354
  167SAPE   H7X18882   5.827   6.191   6.602  1.3102 -2.8857  0.2765
  167SAPE   H7Y18883   5.886   6.229   6.437  1.1470 -2.5243  0.9233
  167SAPE   C3818884   5.796   6.030   6.475  0.1180 -0.4214  0.1251
  167SAPE   H8X18885   5.756   6.009   6.374  1.7545 -0.4746 -0.5465
  167SAPE   H8Y18886   5.732   5.981   6.551  0.7120 -4.2027 -1.5850
  167SAPE   C3918887   5.941   5.968   6.461 -0.1052 -0.5220  0.1386
  167SAPE   H9X18888   6.007   6.044   6.415 -2.1372  2.1651  1.4036
  167SAPE   H9Y18889   5.931   5.875   6.400 -0.9388 -0.1867 -0.2498
  167SAPE  C31018890   6.008   5.932   6.596 -0.7294  0.2857 -0.0094
  167SAPE  H10X18891   5.956   5.986   6.678  0.5687 -1.1567  1.8363
  167SAPE  H10Y18892   6.117   5.955   6.593  0.4941 -4.3963  0.3203
  167SAPE  C31118893   6.005   5.780   6.607  0.5194 -0.9378  0.4381
  167SAPE  H11X18894   6.066   5.735   6.526 -1.2011  0.4443 -1.7416
  167SAPE  H11Y18895   5.902   5.740   6.596 -0.0342  0.8717 -1.6155
  167SAPE  C31218896   6.045   5.726   6.747 -0.4545 -0.7940  0.9585
  167SAPE  H12X18897   6.142   5.777   6.762 -1.2724  1.4422 -0.7395
  167SAPE  H12Y18898   6.070   5.619   6.733  3.8193  0.1068  0.2352
  167SAPE  C31318899   5.942   5.720   6.857 -0.5001 -0.2794 -0.5972
  167SAPE  H13X18900   5.862   5.649   6.826  0.4312 -0.9653 -1.5156
  167SAPE  H13Y18901   5.904   5.821   6.880 -1.4030 -0.6279 -0.5125
  167SAPE  C31418902   5.996   5.660   6.990  0.3253  0.4749 -0.2469
  167SAPE  H14X18903   6.104   5.680   6.972  0.6623  0.9411  2.0044
  167SAPE  H14Y18904   5.980   5.551   6.996 -0.6204  0.3838 -3.0151
  167SAPE  C31518905   5.962   5.723   7.128 -0.2217  0.5263  0.0678
  167SAPE  H15X18906   5.932   5.829   7.116  2.3760  1.5609  1.9367
  167SAPE  H15Y18907   6.051   5.718   7.193  0.8399  1.8051 -1.2210
  167SAPE  C31618908   5.841   5.653   7.198  0.3000  0.0182  0.3884
  167SAPE  H16X18909   5.868   5.547   7.217 -0.3790 -0.2264  0.0109
  167SAPE  H16Y18910   5.749   5.644   7.137  0.5924 -2.2450  0.2067
  167SAPE  C31718911   5.795   5.729   7.328  0.2998  0.7221 -0.5423
  167SAPE  H17X18912   5.764   5.827   7.286  0.7807  0.1898 -2.2229
  167SAPE  H17Y18913   5.883   5.738   7.396  1.2165 -1.0934 -1.4074
  167SAPE  C31818914   5.682   5.664   7.406 -0.1791  0.3943  1.1893
  167SAPE  H18X18915   5.715   5.572   7.457  2.1534  0.0359 -0.7864
  167SAPE  H18Y18916   5.606   5.630   7.332 -0.5664  0.0635  1.7246
  167SAPE  H18Z18917   5.639   5.743   7.472  0.0353  0.8692  0.7610
  168SAPE     N18918   6.303   1.019   5.436 -0.5447  0.1972 -0.4582
  168SAPE   HN118919   6.257   0.926   5.441  1.6803 -0.9110  0.4144
  168SAPE   HN218920   6.328   1.041   5.535 -0.9164  1.6882 -0.6778
  168SAPE   HN318921   6.227   1.087   5.414 -1.6409 -0.6193  0.6567
  168SAPE   C1218922   6.422   1.015   5.345  0.4906 -0.5351 -0.4883
  168SAPE  H12A18923   6.477   1.109   5.367 -1.4453  0.8572 -1.3657
  168SAPE  H12B18924   6.383   1.017   5.241  0.3954 -1.5232 -0.4879
  168SAPE   C1118925   6.506   0.882   5.376 -0.0143  0.5380  0.9877
  168SAPE  H11A18926   6.525   0.866   5.484  1.8097 -2.3321  0.3639
  168SAPE  H11B18927   6.608   0.897   5.335 -0.0882 -1.7649 -0.2174
  168SAPE     P18928   6.523   0.636   5.343 -0.1240 -0.7312  0.0205
  168SAPE   O1318929   6.431   0.530   5.294 -0.0288 -0.0085 -0.2856
  168SAPE   O1418930   6.652   0.643   5.276 -0.4485 -0.5056  0.3363
  168SAPE   O1218931   6.446   0.764   5.319  0.7957 -0.2516 -0.2382
  168SAPE   O1118932   6.538   0.630   5.496  0.3977  0.0934 -0.2351
  168SAPE    C118933   6.428   0.638   5.588  0.2803 -0.1533 -0.2139
  168SAPE    HA18934   6.473   0.676   5.683 -0.1997  0.5281 -0.2597
  168SAPE    HB18935   6.348   0.704   5.550  1.0094  0.5245 -0.5875
  168SAPE    C218936   6.357   0.499   5.609 -0.9217 -0.3495 -0.0399
  168SAPE    HS18937   6.292   0.488   5.520  1.2656  3.0239 -2.2657
  168SAPE   O2118938   6.285   0.495   5.731  0.2029 -0.0583  0.4777
  168SAPE   C2118939   6.181   0.568   5.741 -0.3446 -0.9736  0.3348
  168SAPE   O2218940   6.136   0.643   5.652 -0.0925  0.5946 -0.1053
  168SAPE   C2218941   6.109   0.539   5.880 -0.2632 -0.5683  0.0989
  168SAPE   H2R18942   6.082   0.433   5.864  0.0612 -0.3503 -2.3141
  168SAPE   H2S18943   6.179   0.550   5.965 -2.3545  1.3524  1.7288
  168SAPE    C318944   6.445   0.378   5.609 -0.4061 -0.0493 -0.9869
  168SAPE    HX18945   6.485   0.363   5.507 -1.7343 -1.8408 -1.2835
  168SAPE    HY18946   6.374   0.294   5.622 -0.5120  0.2864  0.8739
  168SAPE   O3118947   6.547   0.389   5.711 -0.0989  0.2486  0.3217
  168SAPE   C3118948   6.530   0.307   5.811  0.2772 -0.4527 -0.1610
  168SAPE   O3218949   6.426   0.247   5.826  0.0820  0.4406  0.3335
  168SAPE   C3218950   6.646   0.308   5.905 -0.5556  0.3870  0.8194
  168SAPE   H2X18951   6.744   0.294   5.853 -0.3151 -1.9236  1.7454
  168SAPE   H2Y18952   6.641   0.220   5.973  3.7226 -0.3604  0.4537
  168SAPE   C2318953   5.971   0.622   5.901 -0.0378 -0.1458  0.3534
  168SAPE   H3R18954   5.887   0.583   5.840 -0.2190 -0.1260  0.5880
  168SAPE   H3S18955   6.000   0.729   5.889  3.2391 -0.8093  1.3603
  168SAPE   C2418956   5.912   0.600   6.041 -0.0253  0.3096  0.5167
  168SAPE   H4R18957   5.808   0.640   6.039  0.4788  1.6594 -0.7189
  168SAPE   H4S18958   5.965   0.662   6.116 -1.8429  1.1458  1.1880
  168SAPE   C2518959   5.918   0.445   6.071  0.1670 -0.2705  0.0374
  168SAPE   H5R18960   5.866   0.382   5.997  0.0602  0.1064 -0.2118
  168SAPE   C2618961   5.988   0.387   6.175  0.0300  0.8308  0.0098
  168SAPE   H6R18962   5.961   0.285   6.204 -1.0134  0.8018 -1.0198
  168SAPE   C2718963   6.063   0.463   6.283 -0.0598  0.5748 -0.0798
  168SAPE   H7R18964   5.995   0.502   6.362  1.6568  0.7330  1.4010
  168SAPE   H7S18965   6.119   0.554   6.251  1.5014 -0.1455  0.4702
  168SAPE   C2818966   6.169   0.375   6.352  0.3224 -0.1552  0.1097
  168SAPE   H8R18967   6.248   0.331   6.290 -0.6081 -1.9784  0.1634
  168SAPE   C2918968   6.167   0.334   6.482 -0.3655 -0.7126 -0.3793
  168SAPE   H9R18969   6.247   0.273   6.526  0.4991 -0.3934 -1.4629
  168SAPE  C21018970   6.059   0.373   6.581 -0.5325  0.2000 -0.3075
  168SAPE  H10R18971   5.965   0.376   6.522  0.1598 -0.4793 -1.4811
  168SAPE  H10S18972   6.079   0.476   6.617  2.0256 -0.7464  1.2590
  168SAPE  C21118973   6.059   0.281   6.701  0.2433  0.4399  0.4660
  168SAPE  H11R18974   6.007   0.188   6.673 -0.1157  1.1444 -1.3742
  168SAPE  C21218975   6.113   0.299   6.827  0.0264 -0.2906 -0.1028
  168SAPE  H12R18976   6.110   0.227   6.910 -0.4123  0.3540  0.4427
  168SAPE  C21318977   6.195   0.414   6.879  0.1084  0.0794  0.3691
  168SAPE  H13R18978   6.188   0.398   6.989  0.1952  0.7685  0.4816
  168SAPE  H13S18979   6.155   0.511   6.844 -0.8919  0.2269  1.8242
  168SAPE  C21418980   6.343   0.421   6.826 -0.0104  0.5817 -0.8198
  168SAPE  H14R18981   6.345   0.432   6.716 -0.7791  0.9247 -0.8091
  168SAPE  C21518982   6.451   0.424   6.902 -0.0092  0.5373 -0.3020
  168SAPE  H15R18983   6.548   0.424   6.850  0.2927 -0.1358  0.2352
  168SAPE  C21618984   6.448   0.432   7.046 -0.5848  0.3277 -0.4993
  168SAPE  H16R18985   6.509   0.347   7.084 -1.0847 -0.1829 -0.8074
  168SAPE  H16S18986   6.349   0.417   7.096 -0.6688 -1.5419 -1.1308
  168SAPE  C21718987   6.496   0.569   7.103 -0.5030 -0.6967  0.3344
  168SAPE  H17R18988   6.440   0.651   7.052  1.4476  0.0574 -0.6898
  168SAPE  H17S18989   6.602   0.591   7.078 -0.7391  3.7316  2.3409
  168SAPE  C21818990   6.498   0.576   7.254  0.1970  0.9470  0.5280
  168SAPE  H18R18991   6.550   0.664   7.299 -0.7131  2.2119 -0.7858
  168SAPE  H18S18992   6.541   0.484   7.298  2.3681  1.4117 -0.5173
  168SAPE  C21918993   6.355   0.589   7.303 -0.1062 -0.0250 -0.2076
  168SAPE  H19R18994   6.348   0.579   7.413  0.0698 -0.6761 -0.2533
  168SAPE  H19S18995   6.292   0.507   7.261  1.3991 -0.8585 -0.9151
  168SAPE  C22018996   6.286   0.722   7.261 -0.9254  0.5813  0.5396
  168SAPE  H20R18997   6.251   0.715   7.156 -2.2632 -1.3472  1.0669
  168SAPE  H20S18998   6.357   0.807   7.274 -0.1381 -0.1594  1.1556
  168SAPE  H20T18999   6.197   0.743   7.323 -0.7610 -0.2038  1.0487
  168SAPE   C3319000   6.668   0.439   5.987 -0.2438  0.4148  0.4759
  168SAPE   H3X19001   6.693   0.523   5.919 -0.6518  0.9993  1.0364
  168SAPE   H3Y19002   6.751   0.396   6.047 -2.4785 -2.3689  1.8297
  168SAPE   C3419003   6.546   0.471   6.069 -0.5911 -0.0893  0.6182
  168SAPE   H4X19004   6.522   0.374   6.117  1.2988 -1.5614 -1.2312
  168SAPE   H4Y19005   6.469   0.510   6.000 -0.7193 -2.4504 -0.6500
  168SAPE   C3519006   6.594   0.570   6.182 -0.0563 -0.6945 -0.3652
  168SAPE   H5X19007   6.616   0.668   6.134  0.8185 -0.6353  0.1464
  168SAPE   H5Y19008   6.681   0.525   6.233 -1.0622 -1.9565  0.3097
  168SAPE   C3619009   6.484   0.590   6.291 -0.1319 -0.2224  0.1525
  168SAPE   H6X19010   6.454   0.497   6.343 -4.8905  1.7021  1.3287
  168SAPE   H6Y19011   6.400   0.615   6.223  1.6754 -2.8388 -3.3491
  168SAPE   C3719012   6.530   0.693   6.381  0.1645  0.0241 -0.0048
  168SAPE   H7X19013   6.530   0.792   6.329  1.1318 -0.1647 -0.3870
  168SAPE   H7Y19014   6.636   0.683   6.413  0.2724  1.8038  0.2926
  168SAPE   C3819015   6.437   0.704   6.503  0.1064  0.9675 -1.0390
  168SAPE   H8X19016   6.462   0.619   6.570 -2.2716  2.1646  1.5502
  168SAPE   H8Y19017   6.333   0.676   6.476 -1.3416  4.3288  0.5335
  168SAPE   C3919018   6.463   0.829   6.586 -0.4321  0.3606 -0.1320
  168SAPE   H9X19019   6.423   0.917   6.531 -2.8028  0.1084  1.0487
  168SAPE   H9Y19020   6.570   0.847   6.609 -0.4798  0.5214 -0.0274
  168SAPE  C31019021   6.390   0.814   6.720  0.1331  0.7088  0.1319
  168SAPE  H10X19022   6.428   0.726   6.776  1.3221 -0.2292 -1.9959
  168SAPE  H10Y19023   6.285   0.799   6.688  0.6108  2.0947 -2.3860
  168SAPE  C31119024   6.408   0.930   6.816 -0.1087  0.2018  0.7391
  168SAPE  H11X19025   6.383   1.026   6.766 -0.8841  0.6802  2.0037
  168SAPE  H11Y19026   6.512   0.948   6.848  0.6093 -2.0738 -0.0865
  168SAPE  C31219027   6.325   0.917   6.939  0.4354 -0.1755  0.0569
  168SAPE  H12X19028   6.378   0.850   7.010  1.5855  0.0842 -0.5270
  168SAPE  H12Y19029   6.223   0.889   6.905 -0.3842  1.1558  1.2637
  168SAPE  C31319030   6.307   1.044   7.018 -0.5939 -0.1749 -0.7449
  168SAPE  H13X19031   6.226   1.028   7.091  0.6363 -0.0199  0.7143
  168SAPE  H13Y19032   6.281   1.127   6.948 -2.1771 -0.0972 -0.0868
  168SAPE  C31419033   6.426   1.073   7.115  0.8657  0.2796 -0.1690
  168SAPE  H14X19034   6.521   1.083   7.059  0.2639 -1.1163 -1.5297
  168SAPE  H14Y19035   6.437   0.992   7.191 -2.7574 -0.5219 -0.3250
  168SAPE  C31519036   6.410   1.203   7.195  0.2260 -0.3047 -0.1629
  168SAPE  H15X19037   6.325   1.190   7.266 -1.4903 -1.3476 -2.2933
  168SAPE  H15Y19038   6.399   1.286   7.122  1.7853  0.5020  0.4898
  168SAPE  C31619039   6.535   1.238   7.278 -0.2261 -0.1651  0.8373
  168SAPE  H16X19040   6.626   1.229   7.215 -0.8445 -1.5143  0.0884
  168SAPE  H16Y19041   6.542   1.157   7.354 -0.5624  0.2923  1.3573
  168SAPE  C31719042   6.536   1.380   7.347 -0.3415 -0.3487 -0.4477
  168SAPE  H17X19043   6.446   1.385   7.412 -0.0013 -1.3974  0.1188
  168SAPE  H17Y19044   6.526   1.457   7.267  1.2198  1.6804  1.1988
  168SAPE  C31819045   6.668   1.410   7.428 -0.0319  0.2849 -0.1589
  168SAPE  H18X19046   6.648   1.502   7.487 -0.8957 -1.6050  2.7168
  168SAPE  H18Y19047   6.744   1.429   7.349 -0.0241 -2.6910 -1.0104
  168SAPE  H18Z19048   6.704   1.332   7.498  0.6412  0.5750 -0.1746
  169SAPE     N19049   0.168   3.225   5.648 -0.1313 -0.4141  0.2175
  169SAPE   HN119050   0.130   3.280   5.569 -1.7615 -1.3208  0.3243
  169SAPE   HN219051   0.250   3.176   5.608  0.3731 -0.8706  1.7495
  169SAPE   HN319052   0.099   3.148   5.658 -0.1975 -0.1783  2.0147
  169SAPE   C1219053   0.196   3.310   5.766 -0.2293 -0.2294 -0.0097
  169SAPE  H12A19054   0.278   3.267   5.829  1.5060  1.5583 -0.9201
  169SAPE  H12B19055   0.105   3.306   5.830 -0.4152 -2.7695 -0.3399
  169SAPE   C1119056   0.237   3.453   5.727 -0.3875 -0.0338 -0.0514
  169SAPE  H11A19057   0.321   3.432   5.658  3.4453  3.4757  2.9626
  169SAPE  H11B19058   0.276   3.516   5.810  1.1832 -0.0579 -0.7407
  169SAPE     P19059   0.016   3.609   5.719  0.0439  0.5252  0.0027
  169SAPE   O1319060   0.057   3.747   5.741  0.0802  0.0404  0.6149
  169SAPE   O1419061  -0.097   3.596   5.628 -0.4206  0.7460  0.6008
  169SAPE   O1219062   0.134   3.527   5.661  0.3046  0.2340  0.2724
  169SAPE   O1119063   0.001   3.538   5.853  0.0983  0.2013  0.3055
  169SAPE    C119064  -0.128   3.493   5.899 -0.2625  0.5843 -0.7864
  169SAPE    HA19065  -0.205   3.571   5.884 -0.3655  0.4244 -1.1148
  169SAPE    HB19066  -0.154   3.410   5.830  1.6800 -0.6115 -0.1776
  169SAPE    C219067  -0.108   3.450   6.047  0.9949  0.1304 -0.7782
  169SAPE    HS19068  -0.081   3.538   6.110 -0.4704 -0.7629  1.2322
  169SAPE   O2119069  -0.022   3.334   6.056 -0.3173 -0.9025  0.3281
  169SAPE   C2119070   0.019   3.297   6.181  0.0763  0.5300 -0.5622
  169SAPE   O2219071  -0.002   3.351   6.286 -0.3800  0.3742  0.4591
  169SAPE   C2219072   0.092   3.164   6.169 -0.5122 -0.1264 -0.4904
  169SAPE   H2R19073   0.025   3.078   6.145  2.4732 -3.1410  1.1728
  169SAPE   H2S19074   0.162   3.175   6.084 -1.1272  0.1977 -0.9682
  169SAPE    C319075  -0.250   3.417   6.120  0.1418 -0.2803 -0.6940
  169SAPE    HX19076  -0.294   3.516   6.142  4.8357  1.7380  0.9743
  169SAPE    HY19077  -0.237   3.373   6.222  2.9226  1.5429 -0.1556
  169SAPE   O3119078  -0.345   3.354   6.040  0.2626  0.0887  0.0116
  169SAPE   C3119079  -0.337   3.220   6.036 -0.0363  0.3516  0.6871
  169SAPE   O3219080  -0.262   3.146   6.098  0.5324 -0.2506  0.4327
  169SAPE   C3219081  -0.440   3.163   5.942  0.2740  0.8574 -0.5613
  169SAPE   H2X19082  -0.381   3.149   5.848  0.8289  1.4342 -0.3007
  169SAPE   H2Y19083  -0.523   3.236   5.928 -1.5241 -1.0651 -0.6182
  169SAPE   C2319084   0.177   3.121   6.285 -0.3609 -0.8338 -0.7538
  169SAPE   H3R19085   0.200   3.013   6.280  1.8565 -0.4614  0.3197
  169SAPE   H3S19086   0.127   3.139   6.383  0.0713  0.4875 -0.7643
  169SAPE   C2419087   0.305   3.205   6.305 -0.0377 -0.1344 -0.5107
  169SAPE   H4R19088   0.344   3.186   6.406 -0.8709  0.2064 -0.1122
  169SAPE   H4S19089   0.277   3.312   6.294  2.5055  0.4317 -2.5547
  169SAPE   C2519090   0.413   3.179   6.204 -0.7379 -0.2305  0.1200
  169SAPE   H5R19091   0.410   3.247   6.117 -2.0548 -0.4079  0.0131
  169SAPE   C2619092   0.513   3.088   6.217  0.2924  0.1234 -0.0857
  169SAPE   H6R19093   0.578   3.077   6.129  0.8826  2.9009 -0.1053
  169SAPE   C2719094   0.548   3.003   6.347  0.1964  1.0675  0.2431
  169SAPE   H7R19095   0.606   3.054   6.427  1.8330  0.0746 -0.2525
  169SAPE   H7S19096   0.628   2.933   6.315 -0.6100 -0.3038  1.1674
  169SAPE   C2819097   0.441   2.911   6.406 -0.3211 -0.8380  0.0705
  169SAPE   H8R19098   0.392   2.843   6.335  1.7784 -0.5160 -1.7840
  169SAPE   C2919099   0.384   2.924   6.531  0.2684  0.2646 -0.1915
  169SAPE   H9R19100   0.298   2.860   6.556  3.0447 -2.9418  1.8967
  169SAPE  C21019101   0.419   3.030   6.635 -0.4046 -0.3967  0.7986
  169SAPE  H10R19102   0.320   3.074   6.663 -1.9495 -2.1559 -1.5313
  169SAPE  H10S19103   0.491   3.106   6.597  1.1067 -1.1464  2.0439
  169SAPE  C21119104   0.500   2.960   6.747  1.1567  0.4073  0.6590
  169SAPE  H11R19105   0.516   2.852   6.733  0.5952  0.2351  1.2951
  169SAPE  C21219106   0.550   3.021   6.862 -0.1620  1.1147 -0.4938
  169SAPE  H12R19107   0.608   2.964   6.935 -0.8988  0.1027 -0.6771
  169SAPE  C21319108   0.524   3.162   6.888 -0.2310 -0.2922  0.3642
  169SAPE  H13R19109   0.446   3.163   6.967 -0.6323 -1.6303  0.0037
  169SAPE  H13S19110   0.478   3.212   6.799  1.2395  0.6587  0.1067
  169SAPE  C21419111   0.645   3.241   6.935 -0.2207  0.1668  0.0270
  169SAPE  H14R19112   0.737   3.225   6.877 -0.1224  0.3366  0.1354
  169SAPE  C21519113   0.653   3.327   7.038 -0.9480  0.2179  0.2371
  169SAPE  H15R19114   0.743   3.390   7.039 -0.8970  0.1554  1.4199
  169SAPE  C21619115   0.546   3.363   7.137 -0.0290  0.2915 -0.5878
  169SAPE  H16R19116   0.447   3.314   7.121  0.7633 -1.3225 -0.8164
  169SAPE  H16S19117   0.531   3.472   7.128  0.6542  0.5790  1.3156
  169SAPE  C21719118   0.580   3.315   7.284 -0.7653 -0.0135 -0.2607
  169SAPE  H17R19119   0.684   3.345   7.305 -0.6573 -1.6919  1.9123
  169SAPE  H17S19120   0.577   3.205   7.294  0.1297  0.0826  1.3498
  169SAPE  C21819121   0.494   3.395   7.395  0.3686  0.5477 -0.7335
  169SAPE  H18R19122   0.393   3.350   7.382  0.2417  1.0573 -1.6160
  169SAPE  H18S19123   0.488   3.503   7.370 -0.4428  0.8596  0.6823
  169SAPE  C21919124   0.530   3.365   7.540  0.7790  0.0133 -0.2250
  169SAPE  H19R19125   0.638   3.387   7.553  0.9101 -0.6328 -0.2317
  169SAPE  H19S19126   0.518   3.255   7.546 -0.8610  0.1227 -0.8692
  169SAPE  C22019127   0.451   3.439   7.642 -1.2015 -0.2841 -0.2923
  169SAPE  H20R19128   0.343   3.414   7.641 -1.4539  0.4984  1.7451
  169SAPE  H20S19129   0.453   3.549   7.624  0.0020  0.5337  3.8113
  169SAPE  H20T19130   0.484   3.406   7.743  0.5737  0.5935 -0.5423
  169SAPE   C3319131  -0.504   3.029   5.994 -0.3925  0.2800  0.4641
  169SAPE   H3X19132  -0.417   2.961   5.981  0.1560  0.5432  2.4067
  169SAPE   H3Y19133  -0.584   2.997   5.924  0.1940  0.8099 -0.4685
  169SAPE   C3419134  -0.566   3.043   6.133 -0.1244  0.3081  0.7202
  169SAPE   H4X19135  -0.676   3.059   6.131 -0.2922 -0.8108  0.3526
  169SAPE   H4Y19136  -0.527   3.129   6.192  1.3976 -1.3882  2.3115
  169SAPE   C3519137  -0.549   2.921   6.228 -0.1164  0.6458  0.4597
  169SAPE   H5X19138  -0.616   2.941   6.314 -0.6928  1.2941 -0.1313
  169SAPE   H5Y19139  -0.449   2.912   6.275 -0.5060 -0.9886  1.0479
  169SAPE   C3619140  -0.586   2.780   6.166 -0.2466 -0.0843  0.0248
  169SAPE   H6X19141  -0.548   2.774   6.062 -0.6766  1.4448 -0.2375
  169SAPE   H6Y19142  -0.696   2.764   6.154 -0.9707  3.1179  1.3498
  169SAPE   C3719143  -0.522   2.659   6.254  0.1279 -0.7487  0.0726
  169SAPE   H7X19144  -0.419   2.682   6.219 -0.4128  0.6008 -0.7576
  169SAPE   H7Y19145  -0.560   2.560   6.222  1.6321 -1.1507 -0.5680
  169SAPE   C3819146  -0.536   2.671   6.406  0.1545  0.1902 -0.1619
  169SAPE   H8X19147  -0.643   2.673   6.434  0.0390  1.5312 -0.6068
  169SAPE   H8Y19148  -0.496   2.766   6.447 -0.9560  1.2534 -1.4352
  169SAPE   C3919149  -0.465   2.550   6.466 -0.5015 -0.4713  0.0012
  169SAPE   H9X19150  -0.373   2.534   6.406  0.1076 -1.6471  1.1769
  169SAPE   H9Y19151  -0.517   2.453   6.450 -3.0681  0.0696  3.7131
  169SAPE  C31019152  -0.430   2.557   6.621  0.0667  0.2718  0.4352
  169SAPE  H10X19153  -0.358   2.635   6.652 -0.2604 -0.3074  2.9042
  169SAPE  H10Y19154  -0.391   2.461   6.660 -0.2240  0.4585  1.2041
  169SAPE  C31119155  -0.551   2.574   6.712 -1.0905  0.4600 -0.1343
  169SAPE  H11X19156  -0.633   2.514   6.667  0.0290 -1.2777  0.0554
  169SAPE  H11Y19157  -0.592   2.677   6.704 -0.3451  0.8209  0.5063
  169SAPE  C31219158  -0.514   2.543   6.857 -0.2434  0.1115  0.2834
  169SAPE  H12X19159  -0.475   2.439   6.860  0.1255  0.2535  0.4592
  169SAPE  H12Y19160  -0.616   2.541   6.901 -0.8254 -0.6793 -1.0329
  169SAPE  C31319161  -0.410   2.633   6.934  0.6429 -0.6532  0.5970
  169SAPE  H13X19162  -0.307   2.631   6.893 -1.1112 -0.9727 -4.5483
  169SAPE  H13Y19163  -0.411   2.587   7.035  0.4836 -1.5436  0.1999
  169SAPE  C31419164  -0.439   2.782   6.947  0.4535 -0.3539  0.0473
  169SAPE  H14X19165  -0.540   2.802   6.987 -0.0044  1.8631 -1.9890
  169SAPE  H14Y19166  -0.443   2.834   6.849 -1.5968  2.5735  1.5121
  169SAPE  C31519167  -0.339   2.863   7.032 -0.0635 -0.0733  0.5242
  169SAPE  H15X19168  -0.240   2.869   6.981 -0.5336  0.0606 -0.3993
  169SAPE  H15Y19169  -0.329   2.806   7.127 -0.0843  2.0646  1.8925
  169SAPE  C31619170  -0.376   3.004   7.072 -0.1084 -0.8259 -0.3969
  169SAPE  H16X19171  -0.486   3.020   7.068  0.0697  0.7186  0.0129
  169SAPE  H16Y19172  -0.345   3.078   6.995  1.5298  1.3493  2.1373
  169SAPE  C31719173  -0.318   3.048   7.201  0.3960  0.0250 -0.0551
  169SAPE  H17X19174  -0.353   2.983   7.284 -0.3657  0.6569  0.1294
  169SAPE  H17Y19175  -0.353   3.150   7.231  1.7143  1.1937 -2.2528
  169SAPE  C31819176  -0.164   3.046   7.203 -0.2556 -0.3827  0.4555
  169SAPE  H18X19177  -0.131   3.090   7.299 -1.4858 -0.5601  0.9800
  169SAPE  H18Y19178  -0.131   3.117   7.124  0.7329 -1.7899 -0.4385
  169SAPE  H18Z19179  -0.115   2.947   7.188  0.0834 -0.4717  2.0430
  170SAPE     N19180   6.386   6.974   5.278  0.3426  0.3203 -0.4348
  170SAPE   HN119181   6.357   6.976   5.178 -2.1237  0.2215  0.2183
  170SAPE   HN219182   6.433   6.882   5.288 -3.0108 -2.0029 -3.4066
  170SAPE   HN319183   6.298   6.976   5.333 -0.6142 -1.5847 -1.7781
  170SAPE   C1219184   6.474   7.089   5.297 -0.3578 -0.7808  0.3230
  170SAPE  H12A19185   6.435   7.166   5.226  0.3417  0.1435  0.9136
  170SAPE  H12B19186   6.576   7.063   5.262  1.5310  2.1823  3.0329
  170SAPE   C1119187   6.471   7.139   5.439 -0.0409  0.5422 -0.2304
  170SAPE  H11A19188   6.372   7.173   5.477 -0.3293 -1.1297  0.5872
  170SAPE  H11B19189   6.530   7.232   5.424  0.1453  0.3838 -0.4762
  170SAPE     P19190   6.692   7.040   5.538 -0.5298  0.2272  0.1547
  170SAPE   O1319191   6.720   6.905   5.584 -0.0638  0.0194  0.4414
  170SAPE   O1419192   6.762   7.086   5.416 -0.2117  0.4055  0.1511
  170SAPE   O1219193   6.532   7.042   5.524  0.3657  0.2193 -0.1445
  170SAPE   O1119194   6.737   7.145   5.647 -0.4674 -0.2942  0.7311
  170SAPE    C119195   6.713   7.122   5.789  0.2612 -0.3911  0.2691
  170SAPE    HA19196   6.715   7.219   5.843  2.4961 -0.2775  0.0809
  170SAPE    HB19197   6.617   7.068   5.801  0.1449 -0.2075  0.1711
  170SAPE    C219198   6.817   7.036   5.852 -0.3719  0.8350  0.5601
  170SAPE    HS19199   6.812   6.931   5.818 -0.9757  1.3905 -1.1872
  170SAPE   O2119200   6.800   7.043   5.998  0.5149 -0.1940  0.1658
  170SAPE   C2119201   6.720   6.955   6.055 -0.1831  0.7388  0.2723
  170SAPE   O2219202   6.669   6.857   6.003 -0.4909 -0.2115  0.4566
  170SAPE   C2219203   6.711   6.984   6.202 -0.4217 -0.1318 -0.3550
  170SAPE   H2R19204   6.805   7.040   6.221 -1.1993  0.1878  3.2971
  170SAPE   H2S19205   6.633   7.062   6.220  0.9988  1.0136  1.0998
  170SAPE    C319206   6.964   7.081   5.823 -0.2770  0.4705  0.0559
  170SAPE    HX19207   6.991   7.077   5.716 -2.0356 -0.5096 -0.3933
  170SAPE    HY19208   7.035   7.006   5.866  0.9369  1.0871 -0.8169
  170SAPE   O3119209   6.988   7.217   5.871  0.3841 -0.2550 -0.0573
  170SAPE   C3119210   7.046   7.233   5.989  0.4496  0.0241 -0.8175
  170SAPE   O3219211   7.090   7.140   6.055 -0.3225 -0.3462  0.7274
  170SAPE   C3219212   7.039   7.379   6.028  0.4302  0.2008 -0.1802
  170SAPE   H2X19213   6.957   7.428   5.970 -0.1683 -0.8319 -0.2211
  170SAPE   H2Y19214   7.138   7.428   6.018  0.4339  0.2034 -0.1295
  170SAPE   C2319215   6.707   6.854   6.285 -0.0639  0.1276  0.1037
  170SAPE   H3R19216   6.790   6.782   6.270 -0.7475 -0.5251 -0.6408
  170SAPE   H3S19217   6.616   6.797   6.257  0.1011 -0.8319  1.4203
  170SAPE   C2419218   6.678   6.890   6.435 -0.3920  0.3749  0.4132
  170SAPE   H4R19219   6.627   6.802   6.480  1.3770 -0.1378  1.4666
  170SAPE   H4S19220   6.601   6.970   6.439  1.2058  2.1032 -1.4302
  170SAPE   C2519221   6.797   6.945   6.509  0.3372 -0.7258 -0.6917
  170SAPE   H5R19222   6.845   7.032   6.461 -1.6924 -1.6465 -4.8965
  170SAPE   C2619223   6.839   6.909   6.634 -0.5125 -0.1041  0.3365
  170SAPE   H6R19224   6.918   6.969   6.682 -0.5950  0.2997 -0.0212
  170SAPE   C2719225   6.787   6.795   6.721 -0.2606 -0.4170 -0.2158
  170SAPE   H7R19226   6.851   6.706   6.704 -0.0195 -0.5366  1.2579
  170SAPE   H7S19227   6.690   6.756   6.685  0.4873 -0.8084 -1.9231
  170SAPE   C2819228   6.803   6.815   6.867 -0.4213  0.0840  1.4802
  170SAPE   H8R19229   6.710   6.803   6.925 -0.9009 -1.0521  0.5154
  170SAPE   C2919230   6.920   6.838   6.936 -0.2461  0.1609  0.3740
  170SAPE   H9R19231   6.909   6.844   7.045 -0.8566 -0.4255  0.3564
  170SAPE  C21019232   7.060   6.850   6.883  0.0907 -0.2425 -0.3566
  170SAPE  H10R19233   7.107   6.943   6.921 -0.1546 -0.6257  0.9344
  170SAPE  H10S19234   7.060   6.862   6.773  2.6353  0.8454 -0.3026
  170SAPE  C21119235   7.147   6.736   6.910 -0.3865  0.6054 -0.6983
  170SAPE  H11R19236   7.118   6.647   6.851 -0.2251 -1.7638  2.5255
  170SAPE  C21219237   7.250   6.722   7.000  0.0748 -0.3021  0.7935
  170SAPE  H12R19238   7.294   6.623   7.014 -0.7721 -0.8427 -0.2265
  170SAPE  C21319239   7.282   6.819   7.104 -0.4993 -0.4971  0.6538
  170SAPE  H13R19240   7.253   6.921   7.069 -0.6559 -1.3199 -1.7307
  170SAPE  H13S19241   7.393   6.823   7.097 -0.4889 -2.5365 -1.3100
  170SAPE  C21419242   7.225   6.800   7.236  0.5917 -0.3380 -0.1863
  170SAPE  H14R19243   7.116   6.815   7.227  0.9663  2.0093 -1.8619
  170SAPE  C21519244   7.284   6.739   7.342  0.2527  0.5909 -0.2798
  170SAPE  H15R19245   7.225   6.724   7.433  0.8911 -0.0320  0.0393
  170SAPE  C21619246   7.426   6.686   7.359  1.2983 -0.4293  0.0059
  170SAPE  H16R19247   7.485   6.672   7.266  1.5300  0.8242 -0.0525
  170SAPE  H16S19248   7.415   6.582   7.398  0.0822 -0.6960 -1.0179
  170SAPE  C21719249   7.513   6.769   7.450 -0.1847 -0.5386  0.7489
  170SAPE  H17R19250   7.605   6.708   7.466 -0.5035 -0.9956  0.8727
  170SAPE  H17S19251   7.466   6.783   7.550  1.8279 -0.3969  1.7373
  170SAPE  C21819252   7.545   6.906   7.397  0.1424 -0.6280 -0.4677
  170SAPE  H18R19253   7.445   6.954   7.385  0.5816  0.2252 -0.7906
  170SAPE  H18S19254   7.600   6.899   7.301 -1.0361 -2.2833 -1.0770
  170SAPE  C21919255   7.625   6.999   7.495 -0.6836  0.7611  0.6316
  170SAPE  H19R19256   7.579   7.007   7.596 -2.2411 -0.1784  0.0410
  170SAPE  H19S19257   7.634   7.100   7.450  0.1268  0.0729 -0.8265
  170SAPE  C22019258   7.773   6.948   7.521 -0.1782  0.3271  0.0108
  170SAPE  H20R19259   7.775   6.840   7.550  3.2865  0.0168 -0.9671
  170SAPE  H20S19260   7.827   6.999   7.604  0.7166 -0.5733  0.0134
  170SAPE  H20T19261   7.838   6.956   7.432  1.6929  0.0759  1.2918
  170SAPE   C3319262   7.004   7.392   6.179 -0.1955  1.1655 -0.7115
  170SAPE   H3X19263   7.029   7.494   6.216  1.7449  0.9247 -1.2278
  170SAPE   H3Y19264   7.080   7.329   6.230  0.0163 -0.0156 -2.4121
  170SAPE   C3419265   6.863   7.351   6.225 -0.7629 -0.2802 -0.0768
  170SAPE   H4X19266   6.843   7.250   6.182  0.3791  0.0660 -1.5317
  170SAPE   H4Y19267   6.794   7.414   6.165  0.0375 -0.0973 -0.8325
  170SAPE   C3519268   6.820   7.356   6.374  1.0362  0.2640  0.1083
  170SAPE   H5X19269   6.888   7.435   6.415  1.0439 -0.2624  1.1296
  170SAPE   H5Y19270   6.848   7.262   6.425  3.4501 -0.3459 -2.1276
  170SAPE   C3619271   6.675   7.392   6.393  0.0799  0.2805 -0.1612
  170SAPE   H6X19272   6.614   7.305   6.360  3.0275 -2.3986  1.0713
  170SAPE   H6Y19273   6.650   7.473   6.321  2.5931  0.4228 -0.9751
  170SAPE   C3719274   6.635   7.431   6.535  0.2622 -0.7527  0.1971
  170SAPE   H7X19275   6.573   7.523   6.531  0.0601 -0.9271 -1.4937
  170SAPE   H7Y19276   6.718   7.457   6.605 -0.3693 -0.0176  0.6869
  170SAPE   C3819277   6.538   7.332   6.604 -0.6104 -0.2106 -0.3051
  170SAPE   H8X19278   6.440   7.313   6.556 -0.7530  1.2235 -0.5975
  170SAPE   H8Y19279   6.525   7.370   6.708 -0.2532 -1.0026  0.0422
  170SAPE   C3919280   6.599   7.191   6.612  1.2778 -0.2649  0.1065
  170SAPE   H9X19281   6.701   7.200   6.656  1.2771  1.8991 -0.2281
  170SAPE   H9Y19282   6.600   7.148   6.510 -1.6999  0.5495 -0.3454
  170SAPE  C31019283   6.511   7.103   6.707  0.1490  0.0089  0.5924
  170SAPE  H10X19284   6.554   7.004   6.682  1.1616  0.7461 -0.7346
  170SAPE  H10Y19285   6.401   7.115   6.690  0.1443  0.7956  1.1252
  170SAPE  C31119286   6.534   7.128   6.855  0.0925 -0.6951 -0.4209
  170SAPE  H11X19287   6.518   7.232   6.891  2.2974 -0.7114  0.7869
  170SAPE  H11Y19288   6.640   7.110   6.881 -0.3272 -1.5027  0.8032
  170SAPE  C31219289   6.460   7.031   6.948  0.5782  0.3805 -0.0525
  170SAPE  H12X19290   6.469   6.929   6.907  1.5145 -0.1831  1.4779
  170SAPE  H12Y19291   6.352   7.057   6.947  0.4704  0.0850  1.5729
  170SAPE  C31319292   6.510   7.030   7.096 -0.3578 -0.3006  0.1099
  170SAPE  H13X19293   6.448   7.088   7.167  1.5199  2.7324 -0.4979
  170SAPE  H13Y19294   6.598   7.097   7.105 -1.7124  1.4182  1.1749
  170SAPE  C31419295   6.522   6.885   7.143  0.0726 -0.6014  0.5462
  170SAPE  H14X19296   6.608   6.881   7.213  1.4003  0.6606 -0.9461
  170SAPE  H14Y19297   6.563   6.821   7.061  0.9452 -0.9595  1.2424
  170SAPE  C31519298   6.391   6.836   7.200  0.3049 -0.3518  0.2682
  170SAPE  H15X19299   6.314   6.878   7.131 -0.7305 -1.1364  0.9166
  170SAPE  H15Y19300   6.355   6.891   7.290  0.0320  1.4079 -0.8484
  170SAPE  C31619301   6.372   6.684   7.209 -0.3876 -0.3906 -0.3907
  170SAPE  H16X19302   6.382   6.655   7.102 -0.4201  0.6352 -0.6807
  170SAPE  H16Y19303   6.268   6.677   7.249  0.5309  0.0423  2.2473
  170SAPE  C31719304   6.467   6.617   7.313 -0.1429  0.7412  0.8956
  170SAPE  H17X19305   6.566   6.664   7.293 -0.5518  1.5523  0.6927
  170SAPE  H17Y19306   6.476   6.508   7.295  2.0877  0.8736  0.9507
  170SAPE  C31819307   6.442   6.635   7.459  0.2914 -0.1647  0.1472
  170SAPE  H18X19308   6.476   6.737   7.486 -0.8139  0.1150  0.5030
  170SAPE  H18Y19309   6.483   6.558   7.529 -0.8742 -0.3897  0.6014
  170SAPE  H18Z19310   6.332   6.644   7.465  0.2394  0.4337 -1.3599
  171SAPE     N19311   0.353   1.116   5.591  0.3037  0.4043 -0.5742
  171SAPE   HN119312   0.451   1.152   5.586  0.4661 -0.1323 -1.7347
  171SAPE   HN219313   0.321   1.099   5.493 -1.8335 -2.6351  0.5129
  171SAPE   HN319314   0.296   1.178   5.651 -2.1015 -2.4712  0.3454
  171SAPE   C1219315   0.363   0.985   5.665 -0.5413 -0.2193 -0.2997
  171SAPE  H12A19316   0.432   0.914   5.615  2.0672  0.8128  1.5653
  171SAPE  H12B19317   0.263   0.938   5.666 -0.5085 -0.4678 -2.6806
  171SAPE   C1119318   0.395   1.004   5.816  0.2116 -0.2052 -0.2955
  171SAPE  H11A19319   0.311   1.037   5.881  1.3303 -1.4207  1.8687
  171SAPE  H11B19320   0.467   1.087   5.826 -1.2462  1.0142  0.4911
  171SAPE     P19321   0.581   0.841   5.883  0.4036  0.4299 -0.1263
  171SAPE   O1319322   0.610   0.710   5.823 -0.1678  0.1744  0.1207
  171SAPE   O1419323   0.668   0.957   5.850  0.0294  0.4995  0.3534
  171SAPE   O1219324   0.429   0.880   5.873 -0.1535  0.3633  0.1214
  171SAPE   O1119325   0.609   0.823   6.037 -0.2409  0.1323 -0.6970
  171SAPE    C119326   0.511   0.745   6.114 -0.5699  1.3820 -0.3670
  171SAPE    HA19327   0.468   0.661   6.055 -2.0823  0.4033  1.9776
  171SAPE    HB19328   0.569   0.691   6.192 -2.7720 -1.7528 -0.6754
  171SAPE    C219329   0.406   0.837   6.180 -0.2405  0.8252 -0.2333
  171SAPE    HS19330   0.363   0.902   6.101  2.1743  1.0931 -1.3860
  171SAPE   O2119331   0.470   0.923   6.279  0.3429  0.0754  0.1482
  171SAPE   C2119332   0.414   1.043   6.294  0.3437  0.1988 -0.1984
  171SAPE   O2219333   0.322   1.082   6.229 -0.3974  0.1809 -0.2073
  171SAPE   C2219334   0.492   1.115   6.410  0.6312  0.1267 -0.0808
  171SAPE   H2R19335   0.449   1.085   6.508 -0.7464 -2.0313 -1.2732
  171SAPE   H2S19336   0.599   1.085   6.405  0.5688 -0.1660  0.3012
  171SAPE    C319337   0.305   0.756   6.260  0.5432  0.4415 -0.8911
  171SAPE    HX19338   0.251   0.680   6.200 -0.2090 -0.5612  0.9499
  171SAPE    HY19339   0.231   0.833   6.289  0.2759 -0.2940  0.4819
  171SAPE   O3119340   0.364   0.690   6.375  0.2036  0.4005  0.0612
  171SAPE   C3119341   0.294   0.686   6.482  0.0692  0.8913  0.0109
  171SAPE   O3219342   0.186   0.736   6.501 -0.2385  0.9236 -0.3255
  171SAPE   C3219343   0.361   0.590   6.581  0.0797 -0.7203  0.3129
  171SAPE   H2X19344   0.406   0.501   6.531  2.5553  0.5071  0.1737
  171SAPE   H2Y19345   0.281   0.563   6.653  0.6806 -0.5005  1.0815
  171SAPE   C2319346   0.481   1.267   6.389 -0.3734 -0.1815 -0.2017
  171SAPE   H3R19347   0.374   1.293   6.375 -0.7494 -2.5402 -2.3468
  171SAPE   H3S19348   0.533   1.288   6.293  0.4629 -1.4311 -0.0557
  171SAPE   C2419349   0.549   1.350   6.507 -0.5050 -0.1220  0.7011
  171SAPE   H4R19350   0.491   1.340   6.602 -1.8931  2.0711  0.1655
  171SAPE   H4S19351   0.543   1.459   6.486  0.8395  0.4377  2.8741
  171SAPE   C2519352   0.697   1.308   6.513  0.0545 -0.1505  0.3079
  171SAPE   H5R19353   0.743   1.340   6.418 -2.8426 -0.7590 -1.4237
  171SAPE   C2619354   0.772   1.259   6.615  0.3127  0.5349  1.1709
  171SAPE   H6R19355   0.875   1.234   6.588 -0.6924 -1.0610 -1.5694
  171SAPE   C2719356   0.731   1.227   6.755 -0.6120 -0.1940 -0.1218
  171SAPE   H7R19357   0.631   1.273   6.769 -0.9507 -1.0511  0.3668
  171SAPE   H7S19358   0.804   1.274   6.824  0.3629 -1.8089 -0.0034
  171SAPE   C2819359   0.725   1.082   6.777 -0.5422  0.1054 -0.1472
  171SAPE   H8R19360   0.824   1.034   6.779  0.4058  1.9854  1.1268
  171SAPE   C2919361   0.616   0.999   6.783  0.1674 -0.1339  0.8006
  171SAPE   H9R19362   0.623   0.889   6.777 -0.8043 -0.1445 -2.9444
  171SAPE  C21019363   0.471   1.038   6.765 -0.6451 -0.0642 -0.1684
  171SAPE  H10R19364   0.420   0.982   6.684 -0.7953 -1.0255  0.5753
  171SAPE  H10S19365   0.471   1.145   6.735  1.6023  0.3283  1.0219
  171SAPE  C21119366   0.380   1.036   6.894 -0.6071 -0.3222 -0.0052
  171SAPE  H11R19367   0.422   1.088   6.981 -0.3094 -0.2213 -0.2089
  171SAPE  C21219368   0.260   0.971   6.915  0.4373 -0.4216  0.0866
  171SAPE  H12R19369   0.197   1.004   6.998  1.6619  1.3812  0.3481
  171SAPE  C21319370   0.182   0.907   6.805  0.3541 -0.1120 -0.6110
  171SAPE  H13R19371   0.238   0.821   6.763 -0.0089  0.1551 -1.6616
  171SAPE  H13S19372   0.154   0.981   6.727 -2.9812 -2.2716 -1.6735
  171SAPE  C21419373   0.053   0.836   6.841  0.0182 -0.2523 -0.3060
  171SAPE  H14R19374  -0.037   0.896   6.822  0.4033  1.1598  1.9435
  171SAPE  C21519375   0.050   0.717   6.908  0.3431 -0.1918  0.1253
  171SAPE  H15R19376  -0.046   0.671   6.937  1.0285 -0.8323  1.4964
  171SAPE  C21619377   0.165   0.631   6.960  0.0547 -0.2302  0.4106
  171SAPE  H16R19378   0.254   0.692   6.987  0.7302  0.1093 -2.2557
  171SAPE  H16S19379   0.207   0.564   6.881 -0.6504 -0.1244 -0.0636
  171SAPE  C21719380   0.124   0.553   7.086 -0.1104  0.0178  0.4388
  171SAPE  H17R19381   0.199   0.474   7.109 -1.9977 -2.1866 -0.5050
  171SAPE  H17S19382   0.029   0.496   7.072 -0.0238  0.3040 -1.5058
  171SAPE  C21819383   0.109   0.655   7.202  0.5019 -0.7768 -0.4003
  171SAPE  H18R19384   0.054   0.740   7.157  1.5880  0.3102  0.2523
  171SAPE  H18S19385   0.213   0.689   7.222  1.0716 -1.2294 -2.3848
  171SAPE  C21919386   0.059   0.600   7.331  0.3154  1.0016  0.1074
  171SAPE  H19R19387   0.055   0.692   7.393 -0.1774  0.9484  0.1619
  171SAPE  H19S19388   0.134   0.525   7.365  0.3347 -0.0202 -2.0170
  171SAPE  C22019389  -0.081   0.534   7.324 -0.5882 -0.5013  0.0359
  171SAPE  H20R19390  -0.085   0.424   7.304 -3.1842 -0.3369 -0.6579
  171SAPE  H20S19391  -0.149   0.594   7.260 -1.1316  1.4433  2.3184
  171SAPE  H20T19392  -0.124   0.526   7.426 -1.0954 -0.7881 -0.1958
  171SAPE   C3319393   0.479   0.656   6.652  0.4339  0.4236 -0.4706
  171SAPE   H3X19394   0.445   0.731   6.726  1.0028  0.0191  0.2147
  171SAPE   H3Y19395   0.546   0.706   6.578  0.4485  0.3308 -0.5200
  171SAPE   C3419396   0.569   0.547   6.717  0.4273 -0.3104  0.1299
  171SAPE   H4X19397   0.663   0.596   6.751 -1.0754  2.3175  0.6736
  171SAPE   H4Y19398   0.589   0.456   6.655 -1.1553 -1.0742  0.6972
  171SAPE   C3519399   0.514   0.479   6.850  0.2451  0.7513 -0.2145
  171SAPE   H5X19400   0.424   0.539   6.873 -0.6646 -1.0105  1.0713
  171SAPE   H5Y19401   0.588   0.489   6.932  0.8620 -0.0432 -0.6491
  171SAPE   C3619402   0.461   0.337   6.814  0.4138  0.0666  0.7620
  171SAPE   H6X19403   0.539   0.286   6.755  1.5361  1.6540  0.8044
  171SAPE   H6Y19404   0.375   0.344   6.744 -0.2945  2.2121  1.7298
  171SAPE   C3719405   0.398   0.260   6.932 -0.5547  0.1078  0.6588
  171SAPE   H7X19406   0.375   0.162   6.885  1.3022  0.1138 -0.3610
  171SAPE   H7Y19407   0.308   0.316   6.965  0.4369  1.9138  0.4072
  171SAPE   C3819408   0.488   0.235   7.052  0.6650  0.2506  0.5625
  171SAPE   H8X19409   0.504   0.331   7.106  0.0263 -0.1104  1.4174
  171SAPE   H8Y19410   0.580   0.189   7.010 -0.6036 -1.5589 -0.3860
  171SAPE   C3919411   0.425   0.129   7.146 -0.2563 -0.0895 -0.1045
  171SAPE   H9X19412   0.481   0.122   7.242 -1.5258  0.0896  0.6644
  171SAPE   H9Y19413   0.431   0.034   7.088 -2.2103  0.4912 -1.3314
  171SAPE  C31019414   0.283   0.156   7.185  0.7686 -0.2384  0.1980
  171SAPE  H10X19415   0.227   0.203   7.102  3.8421  1.5356 -1.0457
  171SAPE  H10Y19416   0.287   0.231   7.267 -0.0209 -1.1644  1.1207
  171SAPE  C31119417   0.212   0.038   7.255  0.0846 -0.1382  0.3027
  171SAPE  H11X19418   0.285   0.012   7.335  0.0826  1.6872  0.9477
  171SAPE  H11Y19419   0.199  -0.040   7.178 -0.1702 -0.3754  0.5811
  171SAPE  C31219420   0.080   0.072   7.329 -0.1965 -0.2064  0.0281
  171SAPE  H12X19421   0.001   0.060   7.252 -0.3936  0.1726  0.1719
  171SAPE  H12Y19422   0.079   0.178   7.361 -0.3664 -0.0066 -0.6267
  171SAPE  C31319423   0.058  -0.010   7.461  0.0606 -0.9698  0.3514
  171SAPE  H13X19424   0.074  -0.117   7.436 -0.8019 -0.9552 -0.3092
  171SAPE  H13Y19425  -0.045   0.009   7.497  0.1249  0.5111 -0.1697
  171SAPE  C31419426   0.145   0.034   7.576 -0.1860 -0.0331  0.0160
  171SAPE  H14X19427   0.244   0.063   7.533  0.1766 -0.6517  0.4207
  171SAPE  H14Y19428   0.164  -0.056   7.638 -2.2061 -0.9217 -0.5757
  171SAPE  C31519429   0.099   0.147   7.665  0.0324 -0.1787  0.5454
  171SAPE  H15X19430   0.014   0.099   7.718 -1.1188  0.6577 -0.4708
  171SAPE  H15Y19431   0.058   0.229   7.603 -1.2999 -0.9759  0.3349
  171SAPE  C31619432   0.204   0.196   7.758  0.5166 -0.4959  0.3562
  171SAPE  H16X19433   0.302   0.202   7.706 -0.1764 -1.9815 -1.2059
  171SAPE  H16Y19434   0.219   0.114   7.831  1.0121 -0.0825  0.7287
  171SAPE  C31719435   0.165   0.319   7.836 -0.3044  0.1180 -0.3973
  171SAPE  H17X19436   0.239   0.331   7.919  1.2370 -0.9896 -1.5513
  171SAPE  H17Y19437   0.066   0.287   7.874 -1.2982 -1.2904 -3.8179
  171SAPE  C31819438   0.142   0.442   7.755  1.0872 -0.0015  0.0170
  171SAPE  H18X19439   0.075   0.411   7.672  0.6257  0.8034  0.0779
  171SAPE  H18Y19440   0.244   0.474   7.722  1.6422  0.6938  2.2233
  171SAPE  H18Z19441   0.090   0.516   7.820 -0.5757 -1.5583  0.5333
  172SAPE     N19442   6.579   6.763   5.755 -0.2558 -0.4001  0.9966
  172SAPE   HN119443   6.612   6.796   5.849  0.6952  0.8695  0.2489
  172SAPE   HN219444   6.640   6.801   5.680  0.4338 -1.5343  0.9629
  172SAPE   HN319445   6.479   6.774   5.731 -0.3564  1.0608  1.9510
  172SAPE   C1219446   6.600   6.610   5.757 -0.4728 -0.0248 -0.3723
  172SAPE  H12A19447   6.576   6.577   5.653  0.8034  0.7003 -0.9232
  172SAPE  H12B19448   6.530   6.563   5.829  1.4129  0.5107  1.9036
  172SAPE   C1119449   6.737   6.578   5.805  0.5706 -0.3866 -0.0144
  172SAPE  H11A19450   6.758   6.470   5.792 -3.0916 -1.0411 -1.9417
  172SAPE  H11B19451   6.740   6.591   5.916 -1.4604 -0.3751  0.0744
  172SAPE     P19452   6.991   6.625   5.758 -0.1438 -0.1905  0.0895
  172SAPE   O1319453   7.033   6.507   5.686 -0.2904  0.8357  0.0286
  172SAPE   O1419454   7.068   6.746   5.747 -0.0894 -0.1527 -0.1047
  172SAPE   O1219455   6.840   6.663   5.738  0.2508 -0.0123 -0.3257
  172SAPE   O1119456   7.003   6.593   5.911  0.2955  0.0078 -0.0262
  172SAPE    C119457   6.989   6.683   6.023 -0.7918  0.4869  0.2307
  172SAPE    HA19458   6.922   6.768   5.998  0.6842  1.3955 -0.7561
  172SAPE    HB19459   6.957   6.626   6.113  0.2455  1.4900  1.2668
  172SAPE    C219460   7.124   6.754   6.059 -0.5271 -0.6055  0.0923
  172SAPE    HS19461   7.143   6.835   5.985 -0.8890  0.8806  1.5604
  172SAPE   O2119462   7.232   6.655   6.054 -0.1735 -0.2354 -0.4574
  172SAPE   C2119463   7.355   6.706   6.043  0.1077  0.2638 -0.7439
  172SAPE   O2219464   7.380   6.816   5.995  0.0822  0.0188 -0.2253
  172SAPE   C2219465   7.445   6.601   6.113  0.2705 -0.4369  0.2550
  172SAPE   H2R19466   7.414   6.595   6.220  0.9837 -0.9868  0.4427
  172SAPE   H2S19467   7.416   6.503   6.072 -1.2373 -0.7225  1.8947
  172SAPE    C319468   7.124   6.826   6.194 -0.1715  0.1494  0.7051
  172SAPE    HX19469   7.051   6.909   6.204  0.6445  0.7050  2.5834
  172SAPE    HY19470   7.219   6.882   6.213  0.3908 -0.2535 -0.8151
  172SAPE   O3119471   7.106   6.722   6.295 -0.3786 -0.2054  0.3653
  172SAPE   C3119472   7.145   6.748   6.416  0.4514  0.1623  0.3401
  172SAPE   O3219473   7.184   6.859   6.455 -0.1698  0.6852  0.9729
  172SAPE   C3219474   7.114   6.626   6.502  0.1543 -0.4798  0.2258
  172SAPE   H2X19475   7.004   6.611   6.501 -0.0651  0.8910  1.0128
  172SAPE   H2Y19476   7.137   6.657   6.607 -0.9903  0.6682  0.1660
  172SAPE   C2319477   7.598   6.629   6.100  0.4529 -0.1792  0.7775
  172SAPE   H3R19478   7.649   6.675   6.012  4.0139 -0.6788  2.3915
  172SAPE   H3S19479   7.647   6.529   6.091 -0.1729 -0.4468  0.2634
  172SAPE   C2419480   7.662   6.670   6.235  0.0816 -0.1030 -0.2839
  172SAPE   H4R19481   7.772   6.662   6.223  0.0263  0.7080 -1.5489
  172SAPE   H4S19482   7.620   6.603   6.313  1.5299 -0.1040  0.5241
  172SAPE   C2519483   7.617   6.814   6.258  0.1511  0.6859 -0.1237
  172SAPE   H5R19484   7.587   6.863   6.165 -0.1178  0.1765 -0.3082
  172SAPE   C2619485   7.576   6.860   6.380  0.4706  0.4733  0.6023
  172SAPE   H6R19486   7.539   6.963   6.389  0.0058  0.3387  0.2762
  172SAPE   C2719487   7.571   6.781   6.513  0.0857 -0.5300  0.3542
  172SAPE   H7R19488   7.677   6.749   6.526 -0.5971 -2.9650  0.4309
  172SAPE   H7S19489   7.520   6.682   6.518 -1.2730  0.1335 -0.1069
  172SAPE   C2819490   7.542   6.865   6.632  0.6785  0.7068 -0.4649
  172SAPE   H8R19491   7.523   6.970   6.605  1.7094  1.0783  0.1941
  172SAPE   C2919492   7.559   6.826   6.766 -0.3821 -0.1045 -0.2068
  172SAPE   H9R19493   7.543   6.896   6.849 -2.5883 -1.7321  0.8465
  172SAPE  C21019494   7.592   6.679   6.806 -0.1917 -0.8823 -0.4256
  172SAPE  H10R19495   7.556   6.620   6.719  1.9225 -0.4156 -1.7182
  172SAPE  H10S19496   7.534   6.654   6.897 -0.3105  1.7119  0.2985
  172SAPE  C21119497   7.740   6.652   6.837  0.7186 -0.0630 -0.1498
  172SAPE  H11R19498   7.815   6.722   6.798 -0.5428  0.4319 -1.7958
  172SAPE  C21219499   7.777   6.545   6.914  0.5389  0.1319 -0.9817
  172SAPE  H12R19500   7.884   6.545   6.937  0.0783  0.4891  1.4950
  172SAPE  C21319501   7.694   6.435   6.976 -0.2907  0.2319 -0.0606
  172SAPE  H13R19502   7.595   6.433   6.927 -0.7022  0.1215  0.7651
  172SAPE  H13S19503   7.682   6.450   7.085  0.3051 -3.0314  0.5445
  172SAPE  C21419504   7.763   6.305   6.972  0.5367 -1.0490 -0.0994
  172SAPE  H14R19505   7.835   6.281   7.051  0.8726  0.2363  0.0115
  172SAPE  C21519506   7.736   6.208   6.881 -0.0523 -0.3417  0.0289
  172SAPE  H15R19507   7.799   6.119   6.896  1.2725  0.8932  2.2862
  172SAPE  C21619508   7.634   6.206   6.772 -0.3331  0.1566  0.0093
  172SAPE  H16R19509   7.542   6.252   6.813  0.3351  0.3805  1.2923
  172SAPE  H16S19510   7.587   6.107   6.751 -1.0902  0.1492  1.6457
  172SAPE  C21719511   7.679   6.272   6.640  0.2274 -0.1717  0.4057
  172SAPE  H17R19512   7.780   6.238   6.608  0.2234  1.3696 -1.4338
  172SAPE  H17S19513   7.686   6.383   6.638 -0.6062 -0.1213 -0.3051
  172SAPE  C21819514   7.579   6.240   6.528  0.9322 -0.2047 -0.0728
  172SAPE  H18R19515   7.479   6.241   6.576  1.0489 -2.1073  0.3201
  172SAPE  H18S19516   7.599   6.134   6.499  0.8569 -0.0916 -0.5379
  172SAPE  C21919517   7.581   6.340   6.417 -0.9903  0.2617  0.2863
  172SAPE  H19R19518   7.680   6.369   6.376 -0.6198  0.0240  0.9973
  172SAPE  H19S19519   7.521   6.428   6.448 -1.6347  0.5460 -1.6214
  172SAPE  C22019520   7.512   6.281   6.295 -0.0662 -0.9415  0.1885
  172SAPE  H20R19521   7.403   6.268   6.310 -0.2574 -2.0585 -1.7288
  172SAPE  H20S19522   7.559   6.184   6.266  0.7943 -0.1743 -1.1109
  172SAPE  H20T19523   7.523   6.357   6.215  0.7459 -0.4843  0.7238
  172SAPE   C3319524   7.200   6.513   6.451 -0.1298 -0.4305  0.6396
  172SAPE   H3X19525   7.309   6.519   6.468 -0.3983  0.2337  2.3128
  172SAPE   H3Y19526   7.192   6.501   6.340  1.8151  1.8449  0.1867
  172SAPE   C3419527   7.153   6.381   6.506  0.1403 -0.3871  0.7752
  172SAPE   H4X19528   7.181   6.295   6.441 -1.6976  0.1840 -0.8728
  172SAPE   H4Y19529   7.043   6.383   6.516  0.2209 -0.7725  1.8308
  172SAPE   C3519530   7.193   6.362   6.649 -0.2040 -0.0324 -0.3064
  172SAPE   H5X19531   7.182   6.460   6.701 -1.8238  0.3166 -1.2403
  172SAPE   H5Y19532   7.302   6.342   6.656  0.8636  4.9007  1.3613
  172SAPE   C3619533   7.121   6.245   6.722 -0.0382 -0.5024  0.1473
  172SAPE   H6X19534   7.173   6.150   6.697 -2.1612 -1.9042  0.7870
  172SAPE   H6Y19535   7.018   6.235   6.683  0.5818  1.4595 -2.2699
  172SAPE   C3719536   7.117   6.265   6.878 -0.0360  0.1876 -0.6802
  172SAPE   H7X19537   7.215   6.303   6.914  0.5672 -0.4170 -1.6462
  172SAPE   H7Y19538   7.109   6.170   6.934 -0.8816  1.3136  1.1903
  172SAPE   C3819539   6.996   6.350   6.924  0.1309 -0.0778 -0.4954
  172SAPE   H8X19540   6.896   6.312   6.895  0.8121 -0.9146 -1.9046
  172SAPE   H8Y19541   7.004   6.451   6.880 -2.3733 -0.0147 -0.9359
  172SAPE   C3919542   7.004   6.374   7.082 -0.1417  0.3557 -0.1166
  172SAPE   H9X19543   7.111   6.396   7.097  0.2275 -0.1512 -1.7985
  172SAPE   H9Y19544   6.967   6.289   7.144 -0.7462  1.6561  1.3788
  172SAPE  C31019545   6.910   6.490   7.130 -0.2932  0.6114  0.1878
  172SAPE  H10X19546   6.807   6.451   7.119  0.3098 -1.0024  0.0881
  172SAPE  H10Y19547   6.917   6.575   7.058 -2.0813  1.3437  0.8383
  172SAPE  C31119548   6.947   6.536   7.269  0.2381 -0.2510  0.2539
  172SAPE  H11X19549   7.038   6.596   7.245  1.4528 -2.4950 -1.1181
  172SAPE  H11Y19550   6.976   6.451   7.335 -2.9317 -1.3826  0.3283
  172SAPE  C31219551   6.837   6.622   7.327 -0.9504 -0.4031 -0.1042
  172SAPE  H12X19552   6.749   6.558   7.350 -0.9601 -0.4324 -0.2231
  172SAPE  H12Y19553   6.790   6.698   7.261  0.2685  0.5435  0.0714
  172SAPE  C31319554   6.882   6.705   7.452  0.1818  0.3319 -0.3061
  172SAPE  H13X19555   6.967   6.771   7.426  1.6519 -1.7159 -0.8732
  172SAPE  H13Y19556   6.907   6.629   7.529  0.1315 -1.2305 -1.7657
  172SAPE  C31419557   6.780   6.803   7.509  0.3455 -0.8153  0.3772
  172SAPE  H14X19558   6.680   6.757   7.518 -0.4586  0.5564 -0.9020
  172SAPE  H14Y19559   6.765   6.878   7.428  0.2666 -0.2199  0.9342
  172SAPE  C31519560   6.835   6.878   7.628  0.5044 -0.1139  0.1924
  172SAPE  H15X19561   6.925   6.934   7.593  0.7266  0.2847  1.3614
  172SAPE  H15Y19562   6.871   6.814   7.711 -0.0648  0.3277  0.7866
  172SAPE  C31619563   6.724   6.973   7.677  0.1041 -0.0291  0.0812
  172SAPE  H16X19564   6.630   6.916   7.692 -0.6927  1.2029 -0.0850
  172SAPE  H16Y19565   6.715   7.044   7.592 -1.2276 -1.4274 -1.0194
  172SAPE  C31719566   6.747   7.044   7.813  0.5955  0.0369 -0.3584
  172SAPE  H17X19567   6.833   7.112   7.794  2.0947 -1.4214  0.9064
  172SAPE  H17Y19568   6.777   6.968   7.888 -0.7807  0.1097  0.2849
  172SAPE  C31819569   6.622   7.118   7.861  0.3299  0.3284  0.1932
  172SAPE  H18X19570   6.534   7.051   7.859 -1.5849  2.7044  0.3052
  172SAPE  H18Y19571   6.600   7.194   7.783  1.0627 -2.4823 -3.0095
  172SAPE  H18Z19572   6.636   7.176   7.954 -2.9938  1.2563  0.2478
  173SOPE     N19573   3.625   4.879   9.940  0.0332 -0.6219 -0.0502
  173SOPE   HN119574   3.687   4.813   9.991  0.2006 -1.1969 -0.9815
  173SOPE   HN219575   3.613   4.841   9.844  1.7147  1.8248 -1.3389
  173SOPE   HN319576   3.679   4.964   9.915  1.6967 -2.2473 -2.4713
  173SOPE   C1219577   3.488   4.908   9.991  0.6091 -0.1162 -0.3947
  173SOPE  H12A19578   3.501   4.954  10.091  1.1362 -0.6118 -0.2281
  173SOPE  H12B19579   3.431   4.813  10.003  1.4223 -0.6660 -0.7965
  173SOPE   C1119580   3.400   5.000   9.897  0.0985  0.0617  0.0842
  173SOPE  H11A19581   3.453   5.097   9.882  0.2147  0.0081  0.1527
  173SOPE  H11B19582   3.301   5.010   9.947  0.4647 -2.6577  1.5106
  173SOPE     P19583   3.263   4.888   9.703  0.0610 -0.3269 -0.5883
  173SOPE   O1319584   3.149   4.946   9.774 -0.1191  0.1773 -0.3997
  173SOPE   O1419585   3.257   4.744   9.695  0.3959  0.3605  0.0623
  173SOPE   O1219586   3.395   4.941   9.767 -0.4546  0.1151  0.3152
  173SOPE   O1119587   3.275   4.948   9.554 -0.1357  0.5125  0.1630
  173SOPE    C119588   3.295   5.085   9.521 -0.0771 -0.0542 -0.5987
  173SOPE    HA19589   3.325   5.143   9.611  0.9520 -0.3586 -0.7360
  173SOPE    HB19590   3.197   5.128   9.490  0.5296  0.9498 -1.1779
  173SOPE    C219591   3.414   5.103   9.427 -0.2737 -0.1598 -1.2297
  173SOPE    HS19592   3.453   5.207   9.427 -1.6111  0.3650 -1.0468
  173SOPE   O2119593   3.366   5.065   9.297 -0.5666  0.3674  0.4181
  173SOPE   C2119594   3.321   5.162   9.225 -0.2595 -0.0234 -0.3592
  173SOPE   O2219595   3.318   5.277   9.255  0.0035 -0.5188 -0.3206
  173SOPE   C2219596   3.274   5.114   9.079  0.2740  0.3621  0.4256
  173SOPE   H2R19597   3.180   5.054   9.085  0.2214  0.2968 -0.8699
  173SOPE   H2S19598   3.349   5.040   9.043  1.3998  0.4689  2.4278
  173SOPE    C319599   3.544   5.017   9.460  0.5158 -0.0206 -0.1833
  173SOPE    HX19600   3.500   4.919   9.486  1.7832 -0.8124 -0.9266
  173SOPE    HY19601   3.591   5.046   9.557  0.1960  0.6238 -0.2154
  173SOPE   O3119602   3.644   5.015   9.351 -0.4424 -0.1799 -0.1517
  173SOPE   C3119603   3.733   5.108   9.357 -0.9421  0.5381  1.0350
  173SOPE   O3219604   3.736   5.200   9.436 -0.2031  0.0848  0.0767
  173SOPE   C3219605   3.844   5.085   9.252  0.2655  0.8758 -0.1821
  173SOPE   H2X19606   3.822   4.992   9.196 -4.5651  1.0624  0.9271
  173SOPE   H2Y19607   3.935   5.077   9.314  0.1813 -4.1643 -0.3147
  173SOPE   C2319608   3.253   5.234   8.983 -1.1348 -0.5594 -0.4290
  173SOPE   H3R19609   3.350   5.287   8.982 -1.0161 -0.7498  0.5292
  173SOPE   H3S19610   3.169   5.302   9.011 -1.7286  0.2005 -3.6116
  173SOPE   C2419611   3.219   5.205   8.835  0.1746 -0.2051  0.4473
  173SOPE   H4R19612   3.203   5.305   8.790 -0.3038 -0.0829  0.8772
  173SOPE   H4S19613   3.303   5.153   8.785 -0.0187 -1.8200  1.7276
  173SOPE   C2519614   3.085   5.130   8.814  0.0273  0.4596 -0.3499
  173SOPE   H5R19615   3.094   5.023   8.842 -1.8094  0.5174  0.6370
  173SOPE   H5S19616   3.019   5.176   8.891  0.1420  0.8637 -0.4920
  173SOPE   C2619617   3.023   5.136   8.674 -0.0793 -0.0105  0.1152
  173SOPE   H6R19618   3.011   5.242   8.644 -0.5733 -0.6390 -2.0977
  173SOPE   H6S19619   3.089   5.097   8.594  0.3966  0.3866  0.3094
  173SOPE   C2719620   2.897   5.050   8.666 -0.0180 -0.1698  0.2454
  173SOPE   H7R19621   2.921   4.954   8.716  0.6427  0.5145  1.2889
  173SOPE   H7S19622   2.817   5.102   8.723  1.2812  2.8700 -0.4639
  173SOPE   C2819623   2.851   5.034   8.522 -0.2020  0.5987  0.1656
  173SOPE   H8R19624   2.844   5.136   8.479  1.4920 -0.0140 -1.7339
  173SOPE   H8S19625   2.930   4.973   8.473 -0.6345 -1.0021  1.3678
  173SOPE   C2919626   2.720   4.966   8.510  1.2780  0.0798  0.4080
  173SOPE   H9119627   2.634   5.008   8.566  0.6235  3.5721 -2.8173
  173SOPE  C21019628   2.698   4.846   8.445 -0.9051  0.0614 -0.2258
  173SOPE  H10119629   2.596   4.805   8.446 -0.0453 -2.2129  0.9490
  173SOPE  C21119630   2.806   4.753   8.394 -0.6095  0.1278 -0.0141
  173SOPE  H11R19631   2.898   4.758   8.457 -0.3972 -2.4899  0.0015
  173SOPE  H11S19632   2.844   4.791   8.297  2.3137  1.7371  1.6157
  173SOPE  C21219633   2.763   4.605   8.377 -0.1040  0.4095  0.4805
  173SOPE  H12R19634   2.709   4.574   8.469  0.5875 -0.9853  0.4384
  173SOPE  H12S19635   2.848   4.533   8.377  0.7876  1.4340  0.1249
  173SOPE  C21319636   2.656   4.579   8.271  0.4442 -0.3837  0.0718
  173SOPE  H13R19637   2.685   4.637   8.181 -2.3770  3.0133  1.0894
  173SOPE  H13S19638   2.560   4.614   8.316  1.4005  1.0929  1.0557
  173SOPE  C21419639   2.645   4.428   8.232  0.1950  0.5568 -0.3235
  173SOPE  H14R19640   2.536   4.411   8.218  0.2635 -2.3729  1.8441
  173SOPE  H14S19641   2.680   4.368   8.319  1.2703  0.1700 -1.0058
  173SOPE  C21519642   2.730   4.392   8.109 -0.3036  0.2753  0.3794
  173SOPE  H15R19643   2.820   4.457   8.104  0.1663 -0.3892  0.0493
  173SOPE  H15S19644   2.676   4.403   8.013  0.0330  0.6771  0.2349
  173SOPE  C21619645   2.781   4.248   8.109  0.0081 -0.4850  0.1975
  173SOPE  H16R19646   2.797   4.218   8.003 -1.8066 -3.0714  0.5831
  173SOPE  H16S19647   2.699   4.181   8.142 -1.8106  0.4129 -2.1867
  173SOPE  C21719648   2.919   4.225   8.182  0.4746 -0.3622  0.3808
  173SOPE  H17R19649   2.984   4.314   8.168  1.2924 -0.9961  0.0574
  173SOPE  H17S19650   2.962   4.131   8.141 -0.6379 -0.8711  0.3375
  173SOPE  C21819651   2.910   4.193   8.329  0.7059 -0.0048 -0.3784
  173SOPE  H18R19652   2.841   4.259   8.386 -0.5122 -0.9419 -0.7055
  173SOPE  H18S19653   3.010   4.197   8.376  0.4684 -0.8439  0.2184
  173SOPE  H18T19654   2.868   4.090   8.331  0.7498 -0.0750 -1.9498
  173SOPE   C3319655   3.822   5.193   9.144 -0.0872  0.3316 -0.5135
  173SOPE   H3X19656   3.907   5.206   9.073 -0.5059  1.3737 -0.8380
  173SOPE   H3Y19657   3.808   5.290   9.196 -1.0432 -0.8071  1.4534
  173SOPE   C3419658   3.706   5.156   9.061  0.4021 -0.8149  0.2276
  173SOPE   H4X19659   3.673   5.246   9.004 -1.3305 -0.7356  1.2935
  173SOPE   H4Y19660   3.623   5.110   9.119  0.0908  1.6280  1.9107
  173SOPE   C3519661   3.735   5.054   8.949  0.4123 -0.0575  0.1449
  173SOPE   H5X19662   3.783   4.962   8.988 -1.0781 -0.7678  0.3900
  173SOPE   H5Y19663   3.809   5.094   8.876 -1.0585 -0.5898 -1.7490
  173SOPE   C3619664   3.610   5.027   8.858 -0.0826 -0.0848  0.1374
  173SOPE   H6X19665   3.551   5.119   8.838  2.4028  1.1612 -2.1064
  173SOPE   H6Y19666   3.546   4.960   8.920  0.4796 -0.9207 -0.1554
  173SOPE   C3719667   3.637   4.959   8.722  0.1313  0.4596 -0.1187
  173SOPE   H7X19668   3.689   4.861   8.727  0.5534  0.6137 -1.1223
  173SOPE   H7Y19669   3.707   5.027   8.668 -1.8672  1.0303 -2.1275
  173SOPE   C3819670   3.518   4.934   8.633  0.3313  0.2900 -0.7766
  173SOPE   H8X19671   3.548   4.893   8.534  0.0922  0.0566 -0.7541
  173SOPE   H8Y19672   3.462   5.028   8.618  0.2053 -0.1014 -3.1342
  173SOPE   C3919673   3.426   4.828   8.690 -0.0312 -0.0094  0.0310
  173SOPE   H9X19674   3.419   4.844   8.800 -1.8310  1.4549 -0.2304
  173SOPE   H9Y19675   3.468   4.727   8.673  2.0736  1.1101 -2.0215
  173SOPE  C31019676   3.286   4.826   8.629  0.5373 -0.5774 -0.2944
  173SOPE  H10X19677   3.240   4.925   8.650  1.3454 -0.3364  0.4083
  173SOPE  H10Y19678   3.223   4.752   8.683 -0.1064 -0.4638 -0.8676
  173SOPE  C31119679   3.280   4.785   8.483 -0.4029  0.1402 -0.3928
  173SOPE  H11X19680   3.365   4.831   8.427 -2.3224  1.8397 -2.0614
  173SOPE  H11Y19681   3.192   4.837   8.438  1.0533  1.5976 -1.7068
  173SOPE  C31219682   3.262   4.633   8.434  0.5305 -0.5766 -0.1556
  173SOPE  H12X19683   3.171   4.589   8.482  1.2304  0.5158  2.3548
  173SOPE  H12Y19684   3.354   4.577   8.462  0.5045 -0.1990  0.7125
  173SOPE  C31319685   3.244   4.633   8.280  0.0158  0.8101  0.5246
  173SOPE  H13X19686   3.330   4.691   8.240 -0.1815 -0.0227 -1.2563
  173SOPE  H13Y19687   3.150   4.683   8.251 -0.5216 -0.3666  0.1778
  173SOPE  C31419688   3.248   4.489   8.225 -0.0484  0.0328  0.0121
  173SOPE  H14X19689   3.155   4.442   8.261 -0.6180 -0.4380 -1.9332
  173SOPE  H14Y19690   3.341   4.435   8.253  0.1490 -0.1762 -0.9829
  173SOPE  C31519691   3.254   4.494   8.066 -0.2891  0.1210 -0.3819
  173SOPE  H15X19692   3.325   4.574   8.035  3.4122 -2.1225  1.5783
  173SOPE  H15Y19693   3.151   4.519   8.034  0.0179  0.5410 -1.0805
  173SOPE  C31619694   3.319   4.374   7.999  0.3708 -0.3900 -0.6699
  173SOPE  H16X19695   3.278   4.356   7.897 -0.6870  0.2360 -0.3756
  173SOPE  H16Y19696   3.298   4.285   8.063  1.2070  0.5753  1.0290
  173SOPE  C31719697   3.475   4.379   7.989 -0.3244  0.5041 -0.3515
  173SOPE  H17X19698   3.516   4.412   8.087 -0.5146 -0.5752  0.0991
  173SOPE  H17Y19699   3.493   4.463   7.918  0.6591  0.6053 -0.0060
  173SOPE  C31819700   3.546   4.253   7.936  0.1393  0.4307 -0.3446
  173SOPE  H18X19701   3.656   4.260   7.943  0.1687  0.3396 -0.6731
  173SOPE  H18Y19702   3.524   4.242   7.827  1.3555  2.4488 -0.8481
  173SOPE  H18Z19703   3.498   4.173   7.995  1.9778 -0.5837 -0.1754
  174SOPE     N19704   5.018   4.101  10.191 -1.3213  0.8069 -0.8571
  174SOPE   HN119705   4.924   4.062  10.171 -1.4206 -0.0317  1.0985
  174SOPE   HN219706   5.059   4.036  10.261 -1.0076  1.5569 -0.3224
  174SOPE   HN319707   4.999   4.197  10.228  0.1703  0.4754  0.9347
  174SOPE   C1219708   5.093   4.103  10.056 -0.6217  0.1590  0.1919
  174SOPE  H12A19709   5.202   4.119  10.069 -0.3072  0.0350 -1.9905
  174SOPE  H12B19710   5.047   4.186   9.998 -1.9306  0.8647  2.1203
  174SOPE   C1119711   5.083   3.981   9.970 -0.3456  0.2102 -0.9324
  174SOPE  H11A19712   5.128   3.889  10.015  1.1032  1.1357 -0.4259
  174SOPE  H11B19713   5.145   4.007   9.882  1.3047  1.0030  0.4168
  174SOPE     P19714   4.881   3.818   9.916  0.0246 -0.4303 -0.2129
  174SOPE   O1319715   4.878   3.746  10.043 -0.4533 -0.1042  0.2023
  174SOPE   O1419716   4.945   3.763   9.796 -0.2600  0.2510 -0.2215
  174SOPE   O1219717   4.942   3.963   9.943  0.0028  0.0078 -0.0625
  174SOPE   O1119718   4.737   3.859   9.887  0.2991  0.1275 -0.0776
  174SOPE    C119719   4.684   3.989   9.866 -0.1712  0.2519 -0.0878
  174SOPE    HA19720   4.757   4.070   9.881 -0.4415  0.5614 -0.4021
  174SOPE    HB19721   4.597   4.013   9.931 -0.6177  0.4926 -0.7552
  174SOPE    C219722   4.638   4.022   9.720  0.0248  0.1617 -0.0942
  174SOPE    HS19723   4.622   4.130   9.706 -2.3339 -0.0211  0.7791
  174SOPE   O2119724   4.522   3.935   9.692 -0.1195  0.1525 -0.3419
  174SOPE   C2119725   4.432   3.998   9.625  0.3185 -0.3935 -0.3738
  174SOPE   O2219726   4.432   4.114   9.589 -0.4440  0.0186  0.0845
  174SOPE   C2219727   4.307   3.903   9.593  0.0913  0.0208  0.0931
  174SOPE   H2R19728   4.231   3.940   9.665 -1.1756  0.3867 -1.3871
  174SOPE   H2S19729   4.347   3.805   9.624 -1.0303  0.5619  3.6530
  174SOPE    C319730   4.747   3.985   9.617 -1.1506  0.0110  0.2258
  174SOPE    HX19731   4.771   3.878   9.633 -4.9445 -0.9504  0.2881
  174SOPE    HY19732   4.844   4.029   9.648 -1.7268  0.5723  1.2927
  174SOPE   O3119733   4.733   4.009   9.477  0.0504  0.3965  0.1273
  174SOPE   C3119734   4.734   4.138   9.448 -0.4189  0.3163  0.2733
  174SOPE   O3219735   4.738   4.229   9.527  0.3959  0.5883  0.0843
  174SOPE   C3219736   4.710   4.159   9.296 -0.2698  0.1056  0.1288
  174SOPE   H2X19737   4.602   4.142   9.277 -0.3534  0.7814 -0.0078
  174SOPE   H2Y19738   4.761   4.078   9.240  0.7673 -0.1617  1.4147
  174SOPE   C2319739   4.255   3.924   9.453  0.4047  0.1634 -0.8004
  174SOPE   H3R19740   4.223   4.029   9.437 -1.5080 -0.3800 -0.8768
  174SOPE   H3S19741   4.154   3.877   9.449  0.0900  0.5738  1.4731
  174SOPE   C2419742   4.352   3.874   9.334  0.0238 -0.4942 -0.4007
  174SOPE   H4R19743   4.452   3.922   9.347 -0.0348 -0.4958  0.0712
  174SOPE   H4S19744   4.363   3.763   9.345 -0.9424 -0.3759  2.6033
  174SOPE   C2519745   4.303   3.917   9.193 -0.5169  0.1889 -0.4669
  174SOPE   H5R19746   4.211   3.861   9.166  0.3412 -1.6914  0.3359
  174SOPE   H5S19747   4.280   4.026   9.194  3.0653  1.0678  1.1227
  174SOPE   C2619748   4.420   3.905   9.099 -0.6387  0.1215 -0.3991
  174SOPE   H6R19749   4.511   3.965   9.122 -0.4909 -1.3410  3.6109
  174SOPE   H6S19750   4.456   3.800   9.105  0.1025  0.2113 -2.4530
  174SOPE   C2719751   4.382   3.905   8.951 -0.2524  0.3594  0.7222
  174SOPE   H7R19752   4.296   3.835   8.949 -0.9578  1.1830 -1.9060
  174SOPE   H7S19753   4.349   4.008   8.925 -1.5726 -0.1089  0.4630
  174SOPE   C2819754   4.486   3.869   8.837  0.0322  0.0690  0.1000
  174SOPE   H8R19755   4.515   3.762   8.844 -1.1184 -0.3915 -1.4482
  174SOPE   H8S19756   4.429   3.878   8.742 -0.1030  1.2416  0.2787
  174SOPE   C2919757   4.606   3.960   8.835 -0.2257  0.3590  0.2088
  174SOPE   H9119758   4.634   3.998   8.935 -2.2436 -1.0053  1.3460
  174SOPE  C21019759   4.666   4.021   8.732 -0.2514 -0.5912 -0.5885
  174SOPE  H10119760   4.764   4.068   8.751  0.6426 -2.0584 -1.4090
  174SOPE  C21119761   4.624   3.990   8.591  0.3110  0.2379 -0.3352
  174SOPE  H11R19762   4.541   4.061   8.568 -1.6029 -1.2515  1.5198
  174SOPE  H11S19763   4.583   3.889   8.569 -1.5904  0.8000  0.4596
  174SOPE  C21219764   4.739   4.015   8.490 -0.7324  0.7432 -0.1479
  174SOPE  H12R19765   4.828   3.961   8.528 -0.2963  1.1924 -0.5181
  174SOPE  H12S19766   4.778   4.119   8.486  0.3123  0.3153 -1.7209
  174SOPE  C21319767   4.693   3.977   8.350  0.6064  0.1659 -0.5386
  174SOPE  H13R19768   4.617   4.055   8.325 -0.5106 -0.8777 -0.4772
  174SOPE  H13S19769   4.647   3.878   8.334  0.1259  0.1911  0.5749
  174SOPE  C21419770   4.796   3.994   8.231  0.7932 -0.8438 -0.0893
  174SOPE  H14R19771   4.876   3.916   8.230  2.3978  0.7139 -2.0798
  174SOPE  H14S19772   4.848   4.088   8.259  1.6629 -1.3109 -0.0828
  174SOPE  C21519773   4.727   4.006   8.097 -0.1391 -0.7486  0.6641
  174SOPE  H15R19774   4.655   4.090   8.092 -0.4394 -1.0470 -0.2033
  174SOPE  H15S19775   4.662   3.918   8.073 -0.6010 -0.1157 -0.4778
  174SOPE  C21619776   4.831   4.017   7.990  0.5916 -0.7588 -0.5181
  174SOPE  H16R19777   4.908   3.939   8.007  1.3139  0.1313  0.3678
  174SOPE  H16S19778   4.869   4.120   8.006 -2.6540  0.5618 -0.4823
  174SOPE  C21719779   4.782   4.004   7.853 -0.0223 -0.0592  0.4642
  174SOPE  H17R19780   4.741   3.900   7.847  0.0968 -0.1442  1.0592
  174SOPE  H17S19781   4.873   4.008   7.790 -1.2118 -0.4189 -1.3590
  174SOPE  C21819782   4.671   4.095   7.807 -0.0176  0.5850 -0.0369
  174SOPE  H18R19783   4.629   4.056   7.712  0.7744  1.3493 -0.7173
  174SOPE  H18S19784   4.696   4.202   7.789 -3.0413  1.0801 -2.2345
  174SOPE  H18T19785   4.596   4.092   7.890  2.4955  0.8267  2.3960
  174SOPE   C3319786   4.753   4.305   9.262 -0.0239 -0.2004 -0.3657
  174SOPE   H3X19787   4.835   4.335   9.332 -0.9521  0.1238  0.6121
  174SOPE   H3Y19788   4.668   4.370   9.291  1.4707  1.6779  0.0258
  174SOPE   C3419789   4.800   4.321   9.121 -0.5030  0.3671 -0.5587
  174SOPE   H4X19790   4.714   4.318   9.050 -2.1656  1.1610  1.3479
  174SOPE   H4Y19791   4.865   4.232   9.106  0.0566  0.0205  3.0158
  174SOPE   C3519792   4.880   4.446   9.083  0.6472  0.4403 -0.6260
  174SOPE   H5X19793   4.818   4.538   9.078 -0.2144 -0.1548 -1.2458
  174SOPE   H5Y19794   4.913   4.425   8.979  1.6367 -1.3944  0.0110
  174SOPE   C3619795   5.005   4.474   9.171  0.2484  0.0266  0.0037
  174SOPE   H6X19796   5.053   4.374   9.181  0.3768  0.3397  3.6124
  174SOPE   H6Y19797   4.967   4.507   9.270 -0.0270  2.0763 -0.7382
  174SOPE   C3719798   5.101   4.577   9.117 -0.2221  0.0513 -0.3324
  174SOPE   H7X19799   5.193   4.562   9.178 -0.2785  1.0881  0.0427
  174SOPE   H7Y19800   5.071   4.682   9.139 -2.4312 -0.5655 -0.1752
  174SOPE   C3819801   5.139   4.551   8.973 -0.5697  0.7213 -0.0490
  174SOPE   H8X19802   5.049   4.581   8.915 -1.0295 -2.5314 -1.1616
  174SOPE   H8Y19803   5.159   4.442   8.971  1.2846  1.0299 -0.0144
  174SOPE   C3919804   5.272   4.618   8.935  0.8562  0.0508  0.3015
  174SOPE   H9X19805   5.357   4.588   9.000  1.6747  2.7360  0.5944
  174SOPE   H9Y19806   5.263   4.727   8.955 -0.7285 -0.1812  1.0231
  174SOPE  C31019807   5.304   4.592   8.786  0.2210 -0.0679  0.3362
  174SOPE  H10X19808   5.220   4.625   8.722 -1.5241 -2.4287  1.2611
  174SOPE  H10Y19809   5.325   4.485   8.765  1.5709  0.1080  0.6760
  174SOPE  C31119810   5.432   4.671   8.740 -0.2452 -0.7824 -0.3848
  174SOPE  H11X19811   5.516   4.629   8.799 -0.0749 -0.4602 -0.4012
  174SOPE  H11Y19812   5.433   4.772   8.786  0.6934 -1.0987  0.3166
  174SOPE  C31219813   5.458   4.670   8.587  0.0641 -0.4849  0.1715
  174SOPE  H12X19814   5.465   4.565   8.552 -0.9636 -1.1404  1.8016
  174SOPE  H12Y19815   5.558   4.710   8.562  0.7205 -2.4100 -0.4110
  174SOPE  C31319816   5.367   4.764   8.497 -0.0184 -0.0063 -0.2550
  174SOPE  H13X19817   5.368   4.870   8.530  0.8729  0.8800 -2.8881
  174SOPE  H13Y19818   5.261   4.733   8.512 -0.1151  1.0259  1.4208
  174SOPE  C31419819   5.415   4.755   8.350  0.0135 -0.1932  0.2150
  174SOPE  H14X19820   5.392   4.656   8.306 -0.4500  1.4832 -3.6583
  174SOPE  H14Y19821   5.524   4.773   8.367  0.0266  0.5357 -0.6305
  174SOPE  C31519822   5.357   4.861   8.258 -0.5498 -0.0446  0.0419
  174SOPE  H15X19823   5.410   4.833   8.165  0.3562 -2.7189  1.2585
  174SOPE  H15Y19824   5.402   4.953   8.302  1.4560 -0.8584 -0.1963
  174SOPE  C31619825   5.208   4.870   8.233 -0.7746  0.1457 -0.6030
  174SOPE  H16X19826   5.160   4.871   8.333  3.9259 -2.0217  1.9951
  174SOPE  H16Y19827   5.180   4.778   8.178 -2.4560  0.9345 -1.1512
  174SOPE  C31719828   5.149   4.989   8.161 -0.5822 -0.3955  0.1033
  174SOPE  H17X19829   5.206   4.996   8.065  0.9074 -0.7687  0.9340
  174SOPE  H17Y19830   5.171   5.076   8.226  1.2740 -2.1134  1.9016
  174SOPE  C31819831   5.001   4.973   8.127 -0.0141 -0.1189 -0.2328
  174SOPE  H18X19832   4.966   5.063   8.072  2.3850 -0.4158 -2.4744
  174SOPE  H18Y19833   4.942   4.958   8.220  0.4502 -1.1381 -0.0897
  174SOPE  H18Z19834   4.973   4.889   8.060 -0.8492 -0.5759  0.6756
  175SOPE     N19835   4.592   5.623   9.271  0.6581 -0.2243 -0.4837
  175SOPE   HN119836   4.545   5.682   9.199 -1.3197 -0.1812  0.7777
  175SOPE   HN219837   4.518   5.593   9.337 -1.1865  2.6842 -1.0728
  175SOPE   HN319838   4.659   5.676   9.329 -0.3827  3.4616 -2.3293
  175SOPE   C1219839   4.646   5.498   9.208 -0.6822 -0.2178  0.3747
  175SOPE  H12A19840   4.729   5.541   9.148 -2.3196  1.1685 -1.0182
  175SOPE  H12B19841   4.571   5.450   9.142 -0.4609  2.1642 -1.7962
  175SOPE   C1119842   4.717   5.396   9.302  0.5314 -0.5534 -0.1514
  175SOPE  H11A19843   4.785   5.459   9.363 -0.5991 -0.1263  0.7137
  175SOPE  H11B19844   4.777   5.326   9.240  0.1892  0.0860 -1.2423
  175SOPE     P19845   4.689   5.260   9.525 -0.3789 -0.1442 -0.2101
  175SOPE   O1319846   4.597   5.158   9.578  0.4508 -0.1050 -0.3086
  175SOPE   O1419847   4.721   5.370   9.615 -0.0269 -0.2210 -0.1969
  175SOPE   O1219848   4.625   5.321   9.388 -0.1048  0.1548 -0.3001
  175SOPE   O1119849   4.825   5.189   9.482 -0.4285  0.0866  0.2177
  175SOPE    C119850   4.827   5.078   9.393 -1.8143  0.0506 -0.0440
  175SOPE    HA19851   4.777   5.096   9.296 -0.3919 -3.3120 -1.5643
  175SOPE    HB19852   4.789   4.991   9.450  0.2532 -1.3465 -0.6828
  175SOPE    C219853   4.974   5.035   9.349  0.5415  0.1163 -0.6882
  175SOPE    HS19854   5.019   5.006   9.446 -1.2273  1.3433  0.5671
  175SOPE   O2119855   5.038   5.159   9.303  0.3556  0.4286  0.6675
  175SOPE   C2119856   5.163   5.158   9.301  0.0982  0.6535  0.3678
  175SOPE   O2219857   5.241   5.071   9.342  0.9427  0.2266  0.5685
  175SOPE   C2219858   5.206   5.283   9.235  0.0964 -0.2964 -0.9779
  175SOPE   H2R19859   5.304   5.270   9.185  1.0538  2.1239  0.1298
  175SOPE   H2S19860   5.221   5.353   9.319  1.8562  1.9883 -3.0400
  175SOPE    C319861   4.977   4.928   9.240  0.1152  0.4234 -0.8945
  175SOPE    HX19862   4.909   4.845   9.270  0.0270  1.0839  0.8533
  175SOPE    HY19863   5.083   4.903   9.217 -0.2293 -1.5978 -0.4583
  175SOPE   O3119864   4.924   4.987   9.115  0.2510  0.4659 -0.3291
  175SOPE   C3119865   4.803   4.957   9.083  0.2107  0.5380  0.0874
  175SOPE   O3219866   4.725   4.885   9.141  0.1716  0.2184  0.1105
  175SOPE   C3219867   4.783   5.008   8.943 -0.1363  0.9510  0.3102
  175SOPE   H2X19868   4.813   4.922   8.880  1.0318  1.8653 -0.4424
  175SOPE   H2Y19869   4.853   5.094   8.927  1.8647 -0.4547  1.1455
  175SOPE   C2319870   5.114   5.352   9.130 -0.2445  0.5401 -0.1297
  175SOPE   H3R19871   5.158   5.452   9.111  1.2721  0.0388  0.5553
  175SOPE   H3S19872   5.017   5.363   9.185 -0.6573 -0.8338 -0.5443
  175SOPE   C2419873   5.082   5.279   9.004 -0.6627  0.1373  0.4238
  175SOPE   H4R19874   5.054   5.175   9.028  1.0425  0.1585  2.9052
  175SOPE   H4S19875   5.006   5.331   8.942  2.6075  3.2979 -1.3470
  175SOPE   C2519876   5.208   5.258   8.919 -0.0157 -0.5215 -0.6703
  175SOPE   H5R19877   5.276   5.346   8.914 -0.2586 -0.2962 -0.0685
  175SOPE   H5S19878   5.269   5.178   8.965 -0.0791  0.3467  1.0036
  175SOPE   C2619879   5.187   5.214   8.776 -0.2758  0.2246 -0.2332
  175SOPE   H6R19880   5.098   5.271   8.742  0.1425  3.9222  4.0507
  175SOPE   H6S19881   5.270   5.245   8.709  0.6497  2.1963  1.7301
  175SOPE   C2719882   5.169   5.058   8.772  0.2553 -0.3309  0.5166
  175SOPE   H7R19883   5.267   5.019   8.804  0.8051 -0.0510 -0.7407
  175SOPE   H7S19884   5.094   5.034   8.850 -0.6708 -0.6065 -0.4336
  175SOPE   C2819885   5.146   4.991   8.628 -0.5841 -0.8357 -0.6079
  175SOPE   H8R19886   5.223   5.035   8.560  0.3358 -0.6081  0.5469
  175SOPE   H8S19887   5.169   4.883   8.638  1.2974 -0.3331  1.2351
  175SOPE   C2919888   5.015   5.026   8.563 -0.5437  0.0433  0.5798
  175SOPE   H9119889   5.017   5.116   8.499 -0.0413 -0.6788 -0.4595
  175SOPE  C21019890   4.914   4.941   8.567  1.1671 -0.4621  0.1472
  175SOPE  H10119891   4.822   4.984   8.524  2.4108  3.4696  1.0160
  175SOPE  C21119892   4.909   4.804   8.620  0.2393  0.2719 -0.2594
  175SOPE  H11R19893   4.861   4.802   8.720  1.2137  1.4985  0.2575
  175SOPE  H11S19894   5.011   4.760   8.623 -0.7139 -2.0744  0.0932
  175SOPE  C21219895   4.824   4.713   8.531  0.1238  0.9154  0.7946
  175SOPE  H12R19896   4.721   4.753   8.513  0.0651  0.4016 -0.0740
  175SOPE  H12S19897   4.810   4.612   8.573  0.5143  1.5338  2.4895
  175SOPE  C21319898   4.895   4.696   8.394 -0.6396 -0.3424  0.2876
  175SOPE  H13R19899   5.000   4.675   8.423 -0.0974  1.1578 -0.4849
  175SOPE  H13S19900   4.903   4.795   8.344  4.1530  0.6495  2.4445
  175SOPE  C21419901   4.833   4.603   8.288 -0.3767 -0.5092 -1.1003
  175SOPE  H14R19902   4.860   4.498   8.314 -0.7599 -0.2763  0.2930
  175SOPE  H14S19903   4.879   4.631   8.191  2.4103  0.4262  0.3713
  175SOPE  C21519904   4.684   4.631   8.282  0.3635 -0.3376 -0.0280
  175SOPE  H15R19905   4.671   4.734   8.241 -0.5817 -0.4380  0.0058
  175SOPE  H15S19906   4.640   4.614   8.382 -1.3814 -0.5227 -0.7933
  175SOPE  C21619907   4.616   4.531   8.198  0.5554  0.5214  0.3942
  175SOPE  H16R19908   4.631   4.425   8.229  0.8946  0.3490 -0.3310
  175SOPE  H16S19909   4.673   4.537   8.102 -1.2966 -0.0554 -0.7867
  175SOPE  C21719910   4.463   4.560   8.174  0.1440 -0.2356  0.5964
  175SOPE  H17R19911   4.448   4.657   8.122  1.1718 -0.7789 -0.7834
  175SOPE  H17S19912   4.414   4.563   8.274  1.1976 -1.0679  1.1536
  175SOPE  C21819913   4.395   4.453   8.094 -0.7110  0.2766 -0.1812
  175SOPE  H18R19914   4.450   4.441   7.998 -0.2880  0.1316  0.0764
  175SOPE  H18S19915   4.287   4.473   8.076 -1.3526 -0.3425  2.5682
  175SOPE  H18T19916   4.414   4.365   8.160  1.3730  2.8723  2.9888
  175SOPE   C3319917   4.637   5.051   8.925  0.2672 -1.1770  0.0080
  175SOPE   H3X19918   4.563   4.991   8.981 -2.2383  1.6752 -0.0296
  175SOPE   H3Y19919   4.603   5.022   8.823  2.3944 -2.2681 -0.4521
  175SOPE   C3419920   4.612   5.202   8.940 -0.0664 -0.3903  0.2456
  175SOPE   H4X19921   4.670   5.241   9.026 -0.6299 -1.3918  1.1019
  175SOPE   H4Y19922   4.511   5.238   8.968  0.0105 -0.8903  1.2305
  175SOPE   C3519923   4.669   5.285   8.816 -0.2263 -0.0039 -0.3924
  175SOPE   H5X19924   4.772   5.253   8.790  0.1404 -0.5981  1.6317
  175SOPE   H5Y19925   4.677   5.387   8.860  2.5332  0.3001 -1.4022
  175SOPE   C3619926   4.574   5.282   8.700  0.4970  0.2124  0.0283
  175SOPE   H6X19927   4.468   5.278   8.731 -0.8308 -3.0217 -4.0603
  175SOPE   H6Y19928   4.576   5.185   8.647  0.7984  0.6961 -0.8697
  175SOPE   C3719929   4.608   5.385   8.597  0.0852 -0.1291  0.1633
  175SOPE   H7X19930   4.571   5.486   8.622  0.2693  0.1381 -0.6023
  175SOPE   H7Y19931   4.566   5.348   8.501 -2.2872  1.8558  0.3474
  175SOPE   C3819932   4.759   5.395   8.563 -0.4235 -0.3064 -0.3659
  175SOPE   H8X19933   4.805   5.296   8.579  1.5989  0.8387  1.3072
  175SOPE   H8Y19934   4.817   5.458   8.633 -0.6557 -0.3134 -0.1683
  175SOPE   C3919935   4.791   5.425   8.417  0.6102 -0.6531  0.2305
  175SOPE   H9X19936   4.774   5.345   8.341  1.8198 -1.0698  0.3877
  175SOPE   H9Y19937   4.901   5.437   8.420  0.5693 -0.1363 -0.1411
  175SOPE  C31019938   4.723   5.553   8.367  0.7088  0.3839 -0.8447
  175SOPE  H10X19939   4.754   5.639   8.430  3.3662 -0.0385 -1.4287
  175SOPE  H10Y19940   4.614   5.533   8.370  1.0349 -1.5271  0.2022
  175SOPE  C31119941   4.761   5.578   8.221 -0.5964  0.2104 -0.0380
  175SOPE  H11X19942   4.719   5.498   8.156  1.5316 -1.2544  0.2809
  175SOPE  H11Y19943   4.869   5.554   8.206 -0.6794  0.4896 -1.1664
  175SOPE  C31219944   4.740   5.722   8.169  0.2546 -0.2134  0.0343
  175SOPE  H12X19945   4.803   5.799   8.218 -1.2177  0.9258  0.2054
  175SOPE  H12Y19946   4.636   5.751   8.195  0.4473  1.8772 -1.3643
  175SOPE  C31319947   4.762   5.719   8.022 -0.7191 -0.3118 -0.1133
  175SOPE  H13X19948   4.697   5.643   7.975  0.5131  0.0286 -2.5370
  175SOPE  H13Y19949   4.859   5.680   7.986 -0.4258  0.8865 -0.6783
  175SOPE  C31419950   4.737   5.857   7.957 -0.6409 -0.5194 -0.3596
  175SOPE  H14X19951   4.801   5.941   7.990  1.1683 -2.1177  0.4265
  175SOPE  H14Y19952   4.631   5.878   7.981 -0.0425  1.5029  0.7653
  175SOPE  C31519953   4.741   5.848   7.805 -0.1458  0.3144 -0.5463
  175SOPE  H15X19954   4.692   5.756   7.768 -0.1106  0.0508  0.0491
  175SOPE  H15Y19955   4.846   5.839   7.771 -0.2278 -1.0704 -0.4692
  175SOPE  C31619956   4.666   5.967   7.739  0.5645  0.7855  0.1352
  175SOPE  H16X19957   4.728   6.058   7.753  1.3006  0.2724  0.3140
  175SOPE  H16Y19958   4.566   5.995   7.778  1.3727  2.7606  0.8924
  175SOPE  C31719959   4.648   5.952   7.586  0.2697  0.2303  0.3088
  175SOPE  H17X19960   4.570   5.874   7.573 -0.0183  0.5240  0.2453
  175SOPE  H17Y19961   4.739   5.910   7.539 -1.2832 -0.4619 -2.3096
  175SOPE  C31819962   4.607   6.076   7.514  0.1958 -0.3604 -0.1649
  175SOPE  H18X19963   4.504   6.098   7.548  1.0416  1.3096  1.4433
  175SOPE  H18Y19964   4.605   6.074   7.402  0.8959 -0.9996 -0.1756
  175SOPE  H18Z19965   4.656   6.170   7.546 -0.0661  0.1426 -1.1779
  176SOPE     N19966   5.919   4.671   9.645  0.3638 -0.6257  0.0347
  176SOPE   HN119967   5.908   4.647   9.746  2.7136 -1.3514  0.1645
  176SOPE   HN219968   6.016   4.706   9.636 -0.1177  0.7591 -0.1415
  176SOPE   HN319969   5.853   4.743   9.608  1.9277  0.4447 -0.7679
  176SOPE   C1219970   5.906   4.557   9.556  1.5208  0.5016 -0.6739
  176SOPE  H12A19971   5.988   4.488   9.584  2.5775  2.0247  0.1243
  176SOPE  H12B19972   5.919   4.597   9.453  0.5092  2.1958 -0.1801
  176SOPE   C1119973   5.764   4.497   9.587  0.7692  0.0582  0.1392
  176SOPE  H11A19974   5.751   4.406   9.525  1.2798  0.0195  0.0874
  176SOPE  H11B19975   5.684   4.571   9.566  1.3467  0.2556 -1.5027
  176SOPE     P19976   5.737   4.338   9.792 -0.0485  0.1513 -0.2773
  176SOPE   O1319977   5.684   4.361   9.930 -0.4000 -0.2087  0.3713
  176SOPE   O1419978   5.866   4.267   9.768 -0.4717 -0.1978 -0.5158
  176SOPE   O1219979   5.759   4.473   9.727  0.0720  0.0880 -0.0266
  176SOPE   O1119980   5.620   4.271   9.712 -0.3574 -1.0223 -0.0153
  176SOPE    C119981   5.654   4.150   9.638 -0.2764 -0.8484  0.1392
  176SOPE    HA19982   5.664   4.060   9.702  0.9251 -1.7273 -1.2293
  176SOPE    HB19983   5.755   4.159   9.593  1.3046 -2.9318  2.9405
  176SOPE    C219984   5.545   4.124   9.527 -0.1294 -1.0941  0.3594
  176SOPE    HS19985   5.571   4.030   9.473  1.0357  1.1401 -3.3682
  176SOPE   O2119986   5.536   4.235   9.433 -0.3495  0.0116 -0.0453
  176SOPE   C2119987   5.630   4.223   9.346  0.6924 -0.5654  1.0227
  176SOPE   O2219988   5.725   4.145   9.344 -0.3704  0.7636  0.1542
  176SOPE   C2219989   5.602   4.317   9.224 -0.3881 -0.8933  0.2486
  176SOPE   H2R19990   5.631   4.421   9.247 -1.5289 -0.9576  2.1990
  176SOPE   H2S19991   5.495   4.321   9.193 -0.2055 -0.1284 -0.3148
  176SOPE    C319992   5.398   4.107   9.575 -0.1229  0.1930 -0.2576
  176SOPE    HX19993   5.374   4.205   9.620  2.7503  0.4182  0.9578
  176SOPE    HY19994   5.402   4.032   9.658  0.1930  0.6428  0.1404
  176SOPE   O3119995   5.323   4.072   9.459  0.5458 -0.6617  0.0088
  176SOPE   C3119996   5.195   4.091   9.464  0.0104 -0.0186 -0.4048
  176SOPE   O3219997   5.133   4.117   9.565  0.4101  0.0330 -0.0416
  176SOPE   C3219998   5.140   4.090   9.326 -0.2704 -0.0859 -0.2589
  176SOPE   H2X19999   5.059   4.167   9.331 -0.4124 -0.2690  0.3971
  176SOPE   H2Y20000   5.088   3.995   9.304 -2.1580  0.9417 -0.5078
  176SOPE   C2320001   5.679   4.273   9.093  0.9786  0.1725 -0.4965
  176SOPE   H3R20002   5.673   4.164   9.075  0.3905  0.3965 -1.8249
  176SOPE   H3S20003   5.785   4.302   9.107  0.8260  0.5760 -0.1347
  176SOPE   C2420004   5.640   4.340   8.960  0.2279 -0.5201  0.3280
  176SOPE   H4R20005   5.529   4.345   8.966  0.3950  2.0820  3.2197
  176SOPE   H4S20006   5.670   4.447   8.963  0.3265 -0.4974 -0.8483
  176SOPE   C2520007   5.682   4.256   8.839 -0.0452  0.0283  0.6173
  176SOPE   H5R20008   5.792   4.242   8.831  0.1525  2.3552 -2.2424
  176SOPE   H5S20009   5.632   4.157   8.838 -2.2531  1.0405  2.1496
  176SOPE   C2620010   5.631   4.331   8.713  1.0992  0.0900  0.0911
  176SOPE   H6R20011   5.522   4.349   8.727  0.4087 -1.0064 -3.0050
  176SOPE   H6S20012   5.670   4.435   8.710  2.4109 -0.3913  0.1984
  176SOPE   C2720013   5.663   4.251   8.585  0.4165  0.5200 -0.3218
  176SOPE   H7R20014   5.770   4.221   8.580  0.4724  0.6118  0.2248
  176SOPE   H7S20015   5.604   4.158   8.597 -0.0107  0.8684  0.3235
  176SOPE   C2820016   5.629   4.307   8.449 -0.1626  0.1559  0.4171
  176SOPE   H8R20017   5.519   4.322   8.453 -0.1455  0.2534  0.5133
  176SOPE   H8S20018   5.662   4.413   8.447  0.0195  0.1243  1.4897
  176SOPE   C2920019   5.658   4.227   8.321 -0.3312 -0.3199 -0.4043
  176SOPE   H9120020   5.638   4.119   8.320  1.0413 -0.6061  0.4604
  176SOPE  C21020021   5.668   4.286   8.200 -0.2948 -0.8045 -0.3701
  176SOPE  H10120022   5.702   4.229   8.112  0.3561  0.4270 -0.9429
  176SOPE  C21120023   5.672   4.434   8.171 -0.0126  0.4988 -0.1252
  176SOPE  H11R20024   5.778   4.465   8.156  0.5392 -0.9348  0.6088
  176SOPE  H11S20025   5.639   4.494   8.257 -1.0895  0.9645 -0.8443
  176SOPE  C21220026   5.583   4.468   8.050  0.0188 -0.4398  0.7990
  176SOPE  H12R20027   5.479   4.428   8.056  0.1172 -0.5521  1.9008
  176SOPE  H12S20028   5.626   4.430   7.955 -2.7553  0.0345 -0.7429
  176SOPE  C21320029   5.563   4.614   8.029 -0.1391  0.0318 -0.4073
  176SOPE  H13R20030   5.657   4.663   8.061  0.7632 -1.2864 -0.9694
  176SOPE  H13S20031   5.482   4.653   8.094  1.3580  0.3935  1.3233
  176SOPE  C21420032   5.534   4.644   7.885  0.8523  0.2785  0.8877
  176SOPE  H14R20033   5.440   4.594   7.853  0.5038  2.0771 -1.1054
  176SOPE  H14S20034   5.621   4.604   7.828 -1.0293  0.2838 -2.2122
  176SOPE  C21520035   5.505   4.791   7.854  0.2654 -0.7099 -0.4199
  176SOPE  H15R20036   5.416   4.813   7.917 -0.4085 -2.2782 -0.7734
  176SOPE  H15S20037   5.469   4.793   7.749  1.9527  0.5587 -1.0286
  176SOPE  C21620038   5.616   4.900   7.882  0.6013 -0.1295 -0.1590
  176SOPE  H16R20039   5.714   4.884   7.832  0.4660  0.7398 -0.7310
  176SOPE  H16S20040   5.634   4.917   7.990 -2.4144  3.7498 -0.0295
  176SOPE  C21720041   5.578   5.044   7.840  0.2676 -0.3214 -0.4356
  176SOPE  H17R20042   5.656   5.105   7.889 -1.3021  0.6372  1.0030
  176SOPE  H17S20043   5.482   5.076   7.887 -0.6077 -0.0140 -2.3342
  176SOPE  C21820044   5.579   5.067   7.688  0.6419 -0.7256 -0.0713
  176SOPE  H18R20045   5.505   4.999   7.639  1.2926 -3.4155  2.4189
  176SOPE  H18S20046   5.678   5.058   7.639  1.1459  0.5272  0.6703
  176SOPE  H18T20047   5.549   5.172   7.665 -0.4772 -1.2626 -1.2241
  176SOPE   C3320048   5.236   4.130   9.214  0.1049  0.1949  0.3490
  176SOPE   H3X20049   5.318   4.055   9.203 -1.3767 -1.2703 -1.2430
  176SOPE   H3Y20050   5.276   4.233   9.224 -0.7990  0.5683  0.1994
  176SOPE   C3420051   5.168   4.112   9.079  0.5507 -0.0124  0.3775
  176SOPE   H4X20052   5.093   4.192   9.061  2.3639  1.5070 -0.8093
  176SOPE   H4Y20053   5.125   4.011   9.067 -1.2387  0.8574 -1.0408
  176SOPE   C3520054   5.267   4.134   8.965  0.4512 -0.0436  0.3439
  176SOPE   H5X20055   5.362   4.078   8.976  0.4103 -0.4072 -1.0532
  176SOPE   H5Y20056   5.289   4.243   8.974 -2.0207  0.6381 -1.0713
  176SOPE   C3620057   5.214   4.097   8.827  0.1587  0.6043  0.3731
  176SOPE   H6X20058   5.189   3.989   8.823  1.2461  0.3032  1.3131
  176SOPE   H6Y20059   5.294   4.124   8.755  1.1640 -0.0356  1.2303
  176SOPE   C3720060   5.074   4.162   8.792 -0.5942 -0.3958 -0.4621
  176SOPE   H7X20061   5.078   4.270   8.815  0.7606  0.0933 -2.6940
  176SOPE   H7Y20062   4.995   4.117   8.856 -1.2948 -0.5142 -1.3779
  176SOPE   C3820063   5.043   4.154   8.647 -0.0298 -0.4951 -0.2911
  176SOPE   H8X20064   4.938   4.188   8.642 -0.0981 -0.8654 -1.9352
  176SOPE   H8Y20065   5.041   4.048   8.615 -1.4068  0.3750 -3.5119
  176SOPE   C3920066   5.135   4.238   8.565  0.1846 -1.1216  0.0548
  176SOPE   H9X20067   5.241   4.207   8.556  0.6863 -0.2557  2.3151
  176SOPE   H9Y20068   5.141   4.336   8.618 -0.9194 -1.5478  1.0005
  176SOPE  C31020069   5.080   4.232   8.422 -0.1708  0.0992 -0.2334
  176SOPE  H10X20070   4.969   4.236   8.420 -0.2745 -1.9897 -1.0781
  176SOPE  H10Y20071   5.107   4.132   8.381  1.0645  0.0059  0.7389
  176SOPE  C31120072   5.135   4.332   8.318 -0.4962  0.5460  0.9179
  176SOPE  H11X20073   5.246   4.332   8.325 -0.5124 -0.5386  1.3096
  176SOPE  H11Y20074   5.108   4.435   8.352  0.5098  2.1104 -2.5351
  176SOPE  C31220075   5.084   4.324   8.169 -1.2246 -0.1243 -0.0594
  176SOPE  H12X20076   4.974   4.335   8.180 -1.8668 -1.4668 -3.7000
  176SOPE  H12Y20077   5.106   4.227   8.120  0.8669  0.2727  0.0199
  176SOPE  C31320078   5.153   4.432   8.081  0.5146 -0.0843 -0.7016
  176SOPE  H13X20079   5.260   4.411   8.099  0.6088 -0.8263 -1.9931
  176SOPE  H13Y20080   5.129   4.533   8.122  2.7279  1.2452 -2.3929
  176SOPE  C31420081   5.099   4.440   7.941 -0.5336  0.0218  0.0575
  176SOPE  H14X20082   5.109   4.339   7.896  0.3210  0.3299 -0.4780
  176SOPE  H14Y20083   5.142   4.516   7.872 -0.9178 -0.5140 -0.7907
  176SOPE  C31520084   4.944   4.467   7.926  0.3804  0.6725 -0.4180
  176SOPE  H15X20085   4.919   4.572   7.949  0.9970  1.3122 -2.4653
  176SOPE  H15Y20086   4.887   4.403   7.996  0.9940 -1.8024 -2.0390
  176SOPE  C31620087   4.885   4.438   7.786  0.3494  0.5069 -0.4108
  176SOPE  H16X20088   4.874   4.329   7.768 -2.1884  0.2336  2.0502
  176SOPE  H16Y20089   4.950   4.472   7.703 -0.6603 -1.7091 -2.2078
  176SOPE  C31720090   4.746   4.499   7.776 -0.6196 -0.1955 -0.0293
  176SOPE  H17X20091   4.764   4.607   7.794 -0.0178 -0.2940 -0.0242
  176SOPE  H17Y20092   4.673   4.459   7.850  0.7942 -1.0243  0.9625
  176SOPE  C31820093   4.678   4.473   7.643 -0.5932  0.1174 -0.5375
  176SOPE  H18X20094   4.720   4.535   7.561  0.3781  0.0386 -0.1141
  176SOPE  H18Y20095   4.569   4.491   7.656 -0.5704  0.0833 -0.2896
  176SOPE  H18Z20096   4.694   4.372   7.600  1.4285 -0.5245  1.4938
  177SOPE     N20097   5.282   1.764   9.894  0.4804  0.5712 -0.7708
  177SOPE   HN120098   5.349   1.691   9.863 -1.6509 -2.0106  0.3512
  177SOPE   HN220099   5.297   1.861   9.857  1.9596  0.1048 -1.4908
  177SOPE   HN320100   5.271   1.757   9.997 -1.7874 -2.0828 -1.1105
  177SOPE   C1220101   5.139   1.727   9.855 -0.0847  0.2547 -0.6837
  177SOPE  H12A20102   5.102   1.639   9.913 -0.7016  2.2341  2.1468
  177SOPE  H12B20103   5.145   1.695   9.749 -1.2579  2.8862 -1.6151
  177SOPE   C1120104   5.049   1.851   9.856 -0.4571  0.6167 -0.1104
  177SOPE  H11A20105   5.025   1.871   9.963 -0.5317 -1.2752  0.2684
  177SOPE  H11B20106   4.956   1.825   9.802  0.5052  1.2079 -2.1343
  177SOPE     P20107   5.029   2.075   9.722 -0.0961 -0.2285  0.2841
  177SOPE   O1320108   5.109   2.161   9.634 -0.3218 -0.3384  0.1029
  177SOPE   O1420109   4.949   2.148   9.817  0.2497 -0.2750 -0.1260
  177SOPE   O1220110   5.121   1.966   9.804  1.1204 -0.2702  0.6951
  177SOPE   O1120111   4.939   1.990   9.629 -0.4488  0.0782 -0.1327
  177SOPE    C120112   4.992   1.895   9.530  0.2323  0.0786 -0.4969
  177SOPE    HA20113   4.944   1.800   9.564 -1.6706  1.5819  1.2427
  177SOPE    HB20114   5.099   1.869   9.517  0.3137  1.2515 -2.5419
  177SOPE    C220115   4.932   1.924   9.392  0.1641  0.3971  0.5764
  177SOPE    HS20116   4.890   1.829   9.352 -0.5093 -0.1168  2.3965
  177SOPE   O2120117   5.026   1.973   9.295 -0.0892  0.2814 -0.3458
  177SOPE   C2120118   5.096   1.883   9.232 -0.7678 -0.0036 -0.7824
  177SOPE   O2220119   5.090   1.764   9.252 -0.3930  0.6122 -0.0966
  177SOPE   C2220120   5.167   1.947   9.113  0.1011 -0.6302  0.9058
  177SOPE   H2R20121   5.132   2.053   9.106  3.1127  0.4011 -0.2667
  177SOPE   H2S20122   5.159   1.898   9.014  1.3675  1.6650 -0.4273
  177SOPE    C320123   4.799   2.011   9.408 -0.0280  0.7639  0.1487
  177SOPE    HX20124   4.839   2.110   9.436  3.0246 -0.0380 -0.9254
  177SOPE    HY20125   4.736   1.970   9.490  2.3509 -0.6963  1.3982
  177SOPE   O3120126   4.723   2.015   9.289  0.3986 -0.1664  0.1474
  177SOPE   C3120127   4.628   2.115   9.290 -0.7285 -0.7160 -0.3446
  177SOPE   O3220128   4.616   2.183   9.389  0.7168 -0.0903  0.5774
  177SOPE   C3220129   4.535   2.101   9.172  0.5788  0.5388 -0.1089
  177SOPE   H2X20130   4.453   2.172   9.195 -0.3492 -0.3597 -0.5488
  177SOPE   H2Y20131   4.501   1.996   9.185  1.4029  0.3334  0.4843
  177SOPE   C2320132   5.310   1.971   9.158  0.0735  0.4788  0.2512
  177SOPE   H3R20133   5.351   1.890   9.223  1.8733 -0.2323 -1.6397
  177SOPE   H3S20134   5.312   2.055   9.230  0.9286  0.0368  0.7644
  177SOPE   C2420135   5.409   1.996   9.048 -0.7632  0.3392 -0.1628
  177SOPE   H4R20136   5.368   2.049   8.960 -0.0168  0.6924 -0.3027
  177SOPE   H4S20137   5.488   2.056   9.098 -0.0407 -2.4314  2.3905
  177SOPE   C2520138   5.480   1.863   8.999 -0.6030 -0.2807  0.5077
  177SOPE   H5R20139   5.504   1.803   9.089  0.0266  0.3086  0.7439
  177SOPE   H5S20140   5.399   1.808   8.946 -1.8332  0.2527  1.7794
  177SOPE   C2620141   5.610   1.888   8.922  0.3948 -0.2131 -0.1915
  177SOPE   H6R20142   5.697   1.922   8.983  1.4648  2.6284 -3.0020
  177SOPE   H6S20143   5.632   1.789   8.878  3.3556  0.2039  0.1320
  177SOPE   C2720144   5.594   2.000   8.814  0.4629 -0.1150 -0.1630
  177SOPE   H7R20145   5.491   1.995   8.773  0.0577 -2.7225  0.9577
  177SOPE   H7S20146   5.598   2.100   8.863 -0.9880  0.5446 -1.3041
  177SOPE   C2820147   5.706   1.988   8.712  0.2501 -0.4435 -0.1117
  177SOPE   H8R20148   5.801   2.024   8.756 -0.2298  2.9245 -1.5632
  177SOPE   H8S20149   5.721   1.881   8.685  1.6210  0.1189 -1.7393
  177SOPE   C2920150   5.672   2.068   8.589 -0.4394  0.7233  0.1176
  177SOPE   H9120151   5.736   2.158   8.583  0.7806 -0.1067  0.3668
  177SOPE  C21020152   5.601   2.031   8.478 -0.6492 -0.5719  0.2458
  177SOPE  H10120153   5.597   2.103   8.395 -0.7174  0.2675  0.9635
  177SOPE  C21120154   5.524   1.895   8.458 -0.0388 -0.1146 -0.5776
  177SOPE  H11R20155   5.558   1.820   8.532 -0.8049  0.5710  0.5013
  177SOPE  H11S20156   5.540   1.851   8.358  1.5531 -2.6969  0.7108
  177SOPE  C21220157   5.375   1.914   8.492  0.4872  0.2555  0.2047
  177SOPE  H12R20158   5.351   2.012   8.444  2.6894  1.6906  1.8270
  177SOPE  H12S20159   5.359   1.932   8.600 -2.8082  0.8975 -0.2985
  177SOPE  C21320160   5.294   1.793   8.449  0.3618  0.2970  0.0327
  177SOPE  H13R20161   5.311   1.773   8.341  1.6117 -1.5226  0.5189
  177SOPE  H13S20162   5.187   1.817   8.464 -0.1851 -1.2789 -1.0683
  177SOPE  C21420163   5.325   1.656   8.518 -0.1450 -0.0773  0.4003
  177SOPE  H14R20164   5.432   1.640   8.490 -0.6764  0.7684 -2.4278
  177SOPE  H14S20165   5.259   1.580   8.472 -0.2727  0.7699 -0.8617
  177SOPE  C21520166   5.308   1.658   8.672  0.9097 -0.8502 -0.1223
  177SOPE  H15R20167   5.215   1.715   8.691 -0.3144 -2.1030 -1.9985
  177SOPE  H15S20168   5.387   1.720   8.718  0.5216  0.4661 -1.1682
  177SOPE  C21620169   5.305   1.520   8.728 -0.2369  0.7542 -0.7914
  177SOPE  H16R20170   5.394   1.470   8.685  0.8360  1.7939  0.1519
  177SOPE  H16S20171   5.219   1.463   8.687 -2.1534  2.2269  0.9711
  177SOPE  C21720172   5.305   1.518   8.879 -0.5794 -0.1006  0.2965
  177SOPE  H17R20173   5.390   1.569   8.928 -2.2941  2.0058  1.2488
  177SOPE  H17S20174   5.300   1.413   8.913  1.6585 -0.7262 -1.0991
  177SOPE  C21820175   5.189   1.585   8.937 -0.4332  0.1437 -0.1137
  177SOPE  H18R20176   5.157   1.679   8.887 -1.5232 -0.7942 -1.2515
  177SOPE  H18S20177   5.218   1.605   9.042 -1.8974 -0.9013  0.5280
  177SOPE  H18T20178   5.106   1.511   8.937 -0.3727  0.0728  0.2841
  177SOPE   C3320179   4.593   2.140   9.031  0.2358  0.5439 -0.0898
  177SOPE   H3X20180   4.691   2.088   9.023  1.5438  2.7194  1.0127
  177SOPE   H3Y20181   4.618   2.248   9.030  2.8576  0.0451  1.6770
  177SOPE   C3420182   4.496   2.104   8.920  0.4897 -0.2785 -0.4550
  177SOPE   H4X20183   4.403   2.163   8.934  1.3193  2.3758 -4.6172
  177SOPE   H4Y20184   4.472   1.999   8.946 -1.0712  0.5280  1.6214
  177SOPE   C3520185   4.559   2.139   8.786  0.1742  0.6092  0.5664
  177SOPE   H5X20186   4.650   2.075   8.775 -0.0676 -0.1346  2.4639
  177SOPE   H5Y20187   4.602   2.241   8.785 -0.7718  1.0297  1.5363
  177SOPE   C3620188   4.469   2.124   8.663 -0.8942 -0.5434 -0.2572
  177SOPE   H6X20189   4.379   2.188   8.678 -1.3971 -1.1701 -0.5400
  177SOPE   H6Y20190   4.447   2.015   8.655  0.2299 -0.8657  0.8051
  177SOPE   C3720191   4.556   2.168   8.543  0.3470 -0.5340 -0.6258
  177SOPE   H7X20192   4.649   2.110   8.526  0.4456  0.0719 -2.4154
  177SOPE   H7Y20193   4.596   2.269   8.567  0.2393 -0.5953 -0.1728
  177SOPE   C3820194   4.486   2.191   8.405 -0.2296 -0.2312 -0.3287
  177SOPE   H8X20195   4.413   2.273   8.424  0.3767 -0.0265  1.3685
  177SOPE   H8Y20196   4.430   2.098   8.381 -2.2742  0.8413  0.0445
  177SOPE   C3920197   4.583   2.231   8.293  0.0552  0.6324  0.0048
  177SOPE   H9X20198   4.676   2.170   8.296 -0.8451 -1.1235 -3.3574
  177SOPE   H9Y20199   4.619   2.336   8.299  0.5052  0.5898 -1.5574
  177SOPE  C31020200   4.512   2.217   8.160 -0.2205  0.3901 -0.1477
  177SOPE  H10X20201   4.418   2.276   8.154 -0.9044 -0.7837 -1.4862
  177SOPE  H10Y20202   4.480   2.112   8.145  1.2268 -0.0144 -0.5501
  177SOPE  C31120203   4.589   2.278   8.039 -0.9275  0.3246 -0.2250
  177SOPE  H11X20204   4.615   2.385   8.054 -2.6598  0.2897  5.2968
  177SOPE  H11Y20205   4.534   2.252   7.946 -1.2899  2.1331 -0.5667
  177SOPE  C31220206   4.727   2.203   8.036  0.2359  0.4619  0.4645
  177SOPE  H12X20207   4.707   2.095   8.054  2.0319  0.1313  0.7420
  177SOPE  H12Y20208   4.786   2.235   8.124 -1.2603 -1.1769  2.1433
  177SOPE  C31320209   4.802   2.228   7.904 -0.6050  0.5585 -0.7776
  177SOPE  H13X20210   4.738   2.198   7.818 -3.5494 -0.3820  1.5455
  177SOPE  H13Y20211   4.894   2.167   7.904  0.3846  1.9895 -2.0321
  177SOPE  C31420212   4.840   2.372   7.868 -0.0664  0.3940 -0.2512
  177SOPE  H14X20213   4.877   2.413   7.964 -0.9824  2.0043 -0.5344
  177SOPE  H14Y20214   4.746   2.421   7.832 -0.0608  0.7937  0.2737
  177SOPE  C31520215   4.951   2.391   7.764 -0.4395  0.3450  0.1119
  177SOPE  H15X20216   4.930   2.340   7.668 -1.0402 -0.0050  0.4274
  177SOPE  H15Y20217   5.049   2.346   7.788  0.1110  1.0379 -0.7474
  177SOPE  C31620218   4.980   2.541   7.736 -0.0770  0.4993  0.1263
  177SOPE  H16X20219   5.065   2.577   7.797 -0.3149  1.9045 -0.3479
  177SOPE  H16Y20220   4.900   2.603   7.780  0.9757 -0.0839  3.0985
  177SOPE  C31720221   5.007   2.581   7.588  0.1395  0.5256  0.4122
  177SOPE  H17X20222   4.928   2.542   7.521  2.7679  0.5040 -2.9925
  177SOPE  H17Y20223   5.097   2.527   7.551 -0.4927 -0.7933  0.7764
  177SOPE  C31820224   5.021   2.730   7.578 -1.4974  0.7915  0.2588
  177SOPE  H18X20225   4.942   2.786   7.633 -1.9556  1.0510 -0.6538
  177SOPE  H18Y20226   5.022   2.765   7.473  1.0664 -0.1453 -0.1133
  177SOPE  H18Z20227   5.122   2.761   7.613 -0.2484 -1.3989 -1.1856
  178SOPE     N20228   2.287   7.045   9.791  0.2784 -1.1407  0.1733
  178SOPE   HN120229   2.317   6.949   9.763  2.5645  0.6043 -4.6306
  178SOPE   HN220230   2.327   7.115   9.726 -0.2950  0.0586  1.0766
  178SOPE   HN320231   2.319   7.071   9.886  1.6503  0.1483 -0.6063
  178SOPE   C1220232   2.139   7.062   9.778  0.1094 -0.5068  0.4853
  178SOPE  H12A20233   2.112   7.169   9.764  1.9442  0.1803  1.8158
  178SOPE  H12B20234   2.088   7.025   9.869 -0.1511 -0.0675  0.5222
  178SOPE   C1120235   2.088   6.965   9.673  0.1549  0.8264 -0.3036
  178SOPE  H11A20236   2.141   6.967   9.575  0.8500 -2.2443 -0.0795
  178SOPE  H11B20237   1.983   6.996   9.654  0.5843  0.8156 -3.1941
  178SOPE     P20238   2.187   6.731   9.696 -0.0065 -0.0759 -0.0417
  178SOPE   O1320239   2.141   6.608   9.761  0.0496  0.4161  0.1143
  178SOPE   O1420240   2.317   6.789   9.726  0.0271 -0.0370 -0.0183
  178SOPE   O1220241   2.077   6.835   9.721  0.8227  0.0354 -0.2585
  178SOPE   O1120242   2.162   6.704   9.538  0.0474  0.3386  0.3995
  178SOPE    C120243   2.240   6.605   9.471 -0.1189 -0.1472  0.2132
  178SOPE    HA20244   2.198   6.503   9.465  2.2481 -1.1064 -1.7676
  178SOPE    HB20245   2.338   6.601   9.523 -0.7040  0.1368  1.3747
  178SOPE    C220246   2.272   6.660   9.334 -0.0138 -0.5699  0.3318
  178SOPE    HS20247   2.358   6.607   9.287  1.8478  2.5120 -0.0397
  178SOPE   O2120248   2.327   6.796   9.334  0.3615  0.4649 -0.6151
  178SOPE   C2120249   2.429   6.823   9.404 -1.3478 -0.1489  0.9958
  178SOPE   O2220250   2.515   6.739   9.437 -0.2714  0.2305 -0.7653
  178SOPE   C2220251   2.432   6.971   9.435 -0.4247 -0.0362  0.7950
  178SOPE   H2R20252   2.375   6.979   9.530  1.4670 -2.2230  2.2367
  178SOPE   H2S20253   2.370   7.019   9.357  1.1889  1.0751  0.1355
  178SOPE    C320254   2.150   6.659   9.234 -0.4381  0.5434  0.2047
  178SOPE    HX20255   2.078   6.710   9.301  0.5093  1.2865  0.6834
  178SOPE    HY20256   2.124   6.552   9.215  3.8028 -0.9230  1.4581
  178SOPE   O3120257   2.180   6.735   9.118  0.0079 -0.2908  0.2059
  178SOPE   C3120258   2.077   6.771   9.053 -0.1316  0.1287  0.4184
  178SOPE   O3220259   1.963   6.732   9.066  0.0975  0.1724 -0.3908
  178SOPE   C3220260   2.112   6.882   8.952  0.4893 -0.2091  0.0937
  178SOPE   H2X20261   2.200   6.852   8.890  0.3043  1.4820 -1.0414
  178SOPE   H2Y20262   2.147   6.966   9.016 -0.0304  0.7730 -0.8669
  178SOPE   C2320263   2.571   7.030   9.464 -0.5882 -0.8365 -0.2694
  178SOPE   H3R20264   2.625   6.956   9.527 -0.1649 -0.5297 -0.2750
  178SOPE   H3S20265   2.566   7.122   9.525  1.5882  2.0113 -3.9662
  178SOPE   C2420266   2.667   7.044   9.342  0.2240  0.3366 -0.1277
  178SOPE   H4R20267   2.646   6.953   9.283  1.7109 -1.5291  2.0780
  178SOPE   H4S20268   2.623   7.129   9.285 -0.8492  1.1825  1.8294
  178SOPE   C2520269   2.808   7.073   9.362 -0.5271 -0.1800  0.3172
  178SOPE   H5R20270   2.821   7.117   9.464 -0.2333 -0.8216  0.5580
  178SOPE   H5S20271   2.871   6.982   9.364  0.0432  0.1946 -0.1114
  178SOPE   C2620272   2.882   7.158   9.256 -0.2747 -0.5345 -0.1600
  178SOPE   H6R20273   2.820   7.249   9.246  1.1851  0.3859 -1.1257
  178SOPE   H6S20274   2.982   7.184   9.295 -0.4389  0.9020 -0.6423
  178SOPE   C2720275   2.886   7.088   9.117 -0.6705  0.1904 -0.5677
  178SOPE   H7R20276   2.964   7.010   9.127  0.1922  1.0892 -0.1172
  178SOPE   H7S20277   2.794   7.033   9.090 -0.0790 -1.0356 -0.1803
  178SOPE   C2820278   2.944   7.179   9.002  0.7177 -0.2609 -0.3294
  178SOPE   H8R20279   3.035   7.232   9.038  0.1793  2.2028 -2.2848
  178SOPE   H8S20280   2.979   7.115   8.918  0.5683 -0.5579 -0.1630
  178SOPE   C2920281   2.842   7.282   8.954  0.4455 -0.1035  0.0791
  178SOPE   H9120282   2.761   7.308   9.024  0.1087  1.7299 -0.9099
  178SOPE  C21020283   2.845   7.345   8.832 -0.4389  0.2426 -1.0819
  178SOPE  H10120284   2.775   7.428   8.812 -1.6109 -0.2920  0.5522
  178SOPE  C21120285   2.937   7.320   8.720  0.1562 -0.1079  0.4757
  178SOPE  H11R20286   3.018   7.249   8.750  1.1235  0.2474 -1.1946
  178SOPE  H11S20287   2.985   7.413   8.684  0.3823 -0.1050  0.7745
  178SOPE  C21220288   2.858   7.275   8.595 -0.7566  0.0384 -0.3185
  178SOPE  H12R20289   2.783   7.352   8.568 -3.0296 -1.3193  1.7566
  178SOPE  H12S20290   2.799   7.186   8.626 -1.2576  0.3242 -0.4446
  178SOPE  C21320291   2.957   7.246   8.476 -0.6295 -0.7298 -0.3983
  178SOPE  H13R20292   3.016   7.156   8.503 -1.0182 -0.8085  0.2173
  178SOPE  H13S20293   3.041   7.318   8.463 -0.7275 -0.9266 -2.4714
  178SOPE  C21420294   2.891   7.242   8.341  0.2671  1.5144  0.0068
  178SOPE  H14R20295   2.864   7.346   8.313  0.2574  1.5833  0.2723
  178SOPE  H14S20296   2.796   7.184   8.347  0.5027  1.3090  2.8591
  178SOPE  C21520297   2.968   7.189   8.221 -0.1197 -0.1407 -0.3966
  178SOPE  H15R20298   3.034   7.105   8.253 -2.0126 -2.3455 -1.9610
  178SOPE  H15S20299   3.040   7.269   8.193 -0.2302  0.3501  0.6482
  178SOPE  C21620300   2.881   7.166   8.100  0.2231 -0.2036 -0.0576
  178SOPE  H16R20301   2.774   7.161   8.127 -0.1382  0.1435 -1.3703
  178SOPE  H16S20302   2.923   7.082   8.041  0.2955 -0.3720  0.2303
  178SOPE  C21720303   2.880   7.274   7.991  0.1729 -0.7016 -0.1412
  178SOPE  H17R20304   2.986   7.293   7.965 -0.0612 -0.8043 -1.1937
  178SOPE  H17S20305   2.842   7.362   8.047  0.6001 -2.0704  2.4528
  178SOPE  C21820306   2.785   7.226   7.877  0.9097 -0.6627  0.1201
  178SOPE  H18R20307   2.782   7.315   7.811 -1.8470  0.3378  1.4463
  178SOPE  H18S20308   2.684   7.203   7.915  0.1235 -1.4920 -2.2863
  178SOPE  H18T20309   2.831   7.140   7.823 -1.4546 -0.4955 -2.3170
  178SOPE   C3320310   1.996   6.923   8.856  0.5365 -0.1979 -0.1688
  178SOPE   H3X20311   1.964   7.024   8.887 -0.6695 -0.6522  0.1437
  178SOPE   H3Y20312   1.906   6.858   8.866  0.4717 -0.3061 -1.2938
  178SOPE   C3420313   2.032   6.915   8.707 -0.7974  0.1108 -0.6269
  178SOPE   H4X20314   2.024   6.808   8.679 -0.6823 -0.3953  1.1786
  178SOPE   H4Y20315   2.132   6.961   8.692 -0.7349  1.2791  2.6825
  178SOPE   C3520316   1.934   6.992   8.621 -0.3428  1.2056  0.6108
  178SOPE   H5X20317   1.892   7.085   8.664 -0.0683 -0.2196  4.2760
  178SOPE   H5Y20318   1.851   6.924   8.593  0.5662 -0.0128  0.7904
  178SOPE   C3620319   2.003   7.025   8.488  0.1313  0.3700 -0.3820
  178SOPE   H6X20320   1.936   7.035   8.400  0.4931  1.7044 -0.5327
  178SOPE   H6Y20321   2.070   6.945   8.452 -0.0853 -0.8624  1.8027
  178SOPE   C3720322   2.071   7.155   8.485 -0.6776  0.2288 -0.0298
  178SOPE   H7X20323   2.159   7.151   8.553  0.0161 -0.7044 -0.9448
  178SOPE   H7Y20324   2.014   7.245   8.517  0.7331  0.9224  0.6047
  178SOPE   C3820325   2.142   7.203   8.351  0.3119 -0.1356  0.0148
  178SOPE   H8X20326   2.076   7.230   8.265  1.6864  2.1369 -0.4256
  178SOPE   H8Y20327   2.190   7.110   8.315 -0.6329 -0.0660 -1.5131
  178SOPE   C3920328   2.232   7.323   8.384 -0.1678 -0.3614 -0.2938
  178SOPE   H9X20329   2.311   7.278   8.449 -1.3656 -1.3770  0.5066
  178SOPE   H9Y20330   2.171   7.392   8.447  1.6295  1.1150 -0.0856
  178SOPE  C31020331   2.281   7.396   8.263 -0.1215 -0.5142  0.6780
  178SOPE  H10X20332   2.344   7.477   8.306  0.4191 -0.6667  0.1941
  178SOPE  H10Y20333   2.194   7.431   8.204 -0.2920  0.0724  1.2668
  178SOPE  C31120334   2.364   7.307   8.167 -0.5864 -0.4057 -0.8298
  178SOPE  H11X20335   2.308   7.215   8.140  2.5018 -3.3904  1.9893
  178SOPE  H11Y20336   2.452   7.273   8.226 -0.2242  1.5115 -0.1895
  178SOPE  C31220337   2.412   7.367   8.035  0.0311 -0.6210  0.4475
  178SOPE  H12X20338   2.507   7.327   7.996  0.9377  2.4004 -0.7310
  178SOPE  H12Y20339   2.433   7.476   8.041  2.3932 -0.9061 -1.2796
  178SOPE  C31320340   2.296   7.368   7.929  0.7753  0.1311  0.7896
  178SOPE  H13X20341   2.213   7.425   7.974 -1.1141 -1.1876 -0.8419
  178SOPE  H13Y20342   2.261   7.264   7.909  1.9127  0.1213 -1.5668
  178SOPE  C31420343   2.334   7.443   7.791 -0.1014  0.1053  0.0235
  178SOPE  H14X20344   2.419   7.391   7.744 -1.1779 -0.2842 -1.5643
  178SOPE  H14Y20345   2.356   7.549   7.819 -0.8702 -0.0525  1.3413
  178SOPE  C31520346   2.213   7.447   7.695  0.8671  0.2541 -0.3055
  178SOPE  H15X20347   2.118   7.492   7.732  1.2221 -0.6837  1.9294
  178SOPE  H15Y20348   2.186   7.342   7.672 -0.3461 -0.1182  2.4355
  178SOPE  C31620349   2.253   7.499   7.560  0.0844  0.0718  0.5534
  178SOPE  H16X20350   2.191   7.445   7.485 -1.6488 -0.2161  2.1110
  178SOPE  H16Y20351   2.355   7.462   7.538 -0.7214 -2.7382  1.1066
  178SOPE  C31720352   2.236   7.650   7.539  0.4759 -0.7110 -0.1023
  178SOPE  H17X20353   2.299   7.697   7.618 -0.1693  0.9673 -0.5396
  178SOPE  H17Y20354   2.137   7.674   7.583 -0.0541 -1.7515 -0.6909
  178SOPE  C31820355   2.262   7.705   7.398 -0.6445 -0.8741  0.7112
  178SOPE  H18X20356   2.248   7.815   7.398 -1.1831 -0.9362 -0.0352
  178SOPE  H18Y20357   2.192   7.664   7.322  0.6308 -0.6234 -0.6571
  178SOPE  H18Z20358   2.359   7.669   7.356  0.1372  0.6099  1.1525
  179SOPE     N20359   3.980   3.663   5.973  0.4232 -0.2271  0.5935
  179SOPE   HN120360   3.912   3.633   6.045 -0.3423  1.2438  0.5202
  179SOPE   HN220361   4.032   3.583   5.931  1.4125  0.7201 -0.0394
  179SOPE   HN320362   4.037   3.740   6.012 -1.2308  0.6519  1.3752
  179SOPE   C1220363   3.912   3.710   5.846  0.4220  0.1644 -0.1432
  179SOPE  H12A20364   3.994   3.757   5.789 -0.8377  1.9497 -0.5726
  179SOPE  H12B20365   3.839   3.786   5.880 -0.0953  0.0727 -1.0295
  179SOPE   C1120366   3.847   3.584   5.777 -0.0651 -0.1166  0.3609
  179SOPE  H11A20367   3.770   3.606   5.700  0.6769  1.1098 -0.0649
  179SOPE  H11B20368   3.796   3.525   5.857  0.6993  1.1698  1.8604
  179SOPE     P20369   3.914   3.367   5.646 -0.0442 -0.2012  0.5076
  179SOPE   O1320370   4.018   3.350   5.547 -0.2968  0.3235 -0.0048
  179SOPE   O1420371   3.776   3.384   5.591  0.1992  0.4470  0.4489
  179SOPE   O1220372   3.959   3.508   5.718  0.5898  0.0361 -0.1319
  179SOPE   O1120373   3.928   3.254   5.751 -0.5047 -0.4900  0.2677
  179SOPE    C120374   3.970   3.280   5.885 -0.0381  0.3580 -0.5424
  179SOPE    HA20375   3.886   3.300   5.955  0.3584 -0.4649  0.1853
  179SOPE    HB20376   4.023   3.378   5.892 -0.1035  0.4303 -1.0054
  179SOPE    C220377   4.051   3.167   5.947  0.0954  0.9041 -0.8935
  179SOPE    HS20378   3.981   3.081   5.943 -0.8532  1.5266  1.2238
  179SOPE   O2120379   4.081   3.201   6.080 -0.4309  0.1250  0.3315
  179SOPE   C2120380   3.984   3.182   6.167  0.1071  0.1484 -0.2486
  179SOPE   O2220381   3.873   3.137   6.145  0.5052 -0.1965 -0.5253
  179SOPE   C2220382   4.040   3.200   6.310  0.6914  0.5544 -0.0960
  179SOPE   H2R20383   4.145   3.162   6.317  0.4093  0.0475  4.2490
  179SOPE   H2S20384   3.989   3.134   6.383  1.7347  0.7062  0.8080
  179SOPE    C320385   4.180   3.130   5.869 -0.8516  0.1222  0.0258
  179SOPE    HX20386   4.214   3.226   5.826 -2.3464 -0.4102 -2.5162
  179SOPE    HY20387   4.156   3.063   5.784 -0.2144  0.2918 -0.2915
  179SOPE   O3120388   4.279   3.070   5.955  0.1394 -0.0736 -0.2859
  179SOPE   C3120389   4.371   3.160   6.017  0.6147  0.5000  0.3688
  179SOPE   O3220390   4.379   3.276   5.986  0.0013  0.5696 -0.2367
  179SOPE   C3220391   4.427   3.100   6.150 -0.1595  0.0642  0.5989
  179SOPE   H2X20392   4.503   3.024   6.120  0.2673  0.9077 -0.5425
  179SOPE   H2Y20393   4.344   3.045   6.198 -0.3539  0.0207  0.2145
  179SOPE   C2320394   4.030   3.341   6.366  0.2022 -0.1396 -0.7448
  179SOPE   H3R20395   3.922   3.357   6.389  0.1749 -1.7997  0.5105
  179SOPE   H3S20396   4.058   3.414   6.288  1.8532 -2.0997 -2.1096
  179SOPE   C2420397   4.117   3.365   6.486  0.1170 -0.0287  0.2040
  179SOPE   H4R20398   4.225   3.351   6.465  0.8881 -2.2620  4.4645
  179SOPE   H4S20399   4.096   3.466   6.526 -0.7339  0.5305 -1.5702
  179SOPE   C2520400   4.091   3.279   6.610 -0.2231  0.0001 -0.2394
  179SOPE   H5R20401   3.983   3.258   6.621 -0.3170 -0.3121 -1.5937
  179SOPE   H5S20402   4.144   3.182   6.598 -2.6807 -1.4949  0.3918
  179SOPE   C2620403   4.140   3.337   6.749  0.2427 -0.2051  0.7984
  179SOPE   H6R20404   4.249   3.359   6.749  0.1060  0.9296 -2.3213
  179SOPE   H6S20405   4.082   3.431   6.759 -3.0728 -2.0545  0.4397
  179SOPE   C2720406   4.114   3.249   6.869  0.2527  0.0465 -0.8120
  179SOPE   H7R20407   4.003   3.236   6.874  0.2246  0.5393  0.1822
  179SOPE   H7S20408   4.168   3.154   6.849  1.2143  0.7345 -1.5769
  179SOPE   C2820409   4.175   3.311   6.995 -0.4427 -0.9614 -0.5207
  179SOPE   H8R20410   4.285   3.301   6.982 -0.2168  1.9194 -1.3056
  179SOPE   H8S20411   4.171   3.421   7.011  2.1335 -1.0708  1.6645
  179SOPE   C2920412   4.141   3.233   7.119 -0.2657 -0.3775  0.8042
  179SOPE   H9120413   4.116   3.129   7.093  1.9911 -0.8248  0.2178
  179SOPE  C21020414   4.154   3.269   7.245 -0.7221 -0.2600 -0.0587
  179SOPE  H10120415   4.115   3.196   7.317  2.7292 -1.6287  0.6084
  179SOPE  C21120416   4.209   3.392   7.307 -0.3115  0.3809  0.0871
  179SOPE  H11R20417   4.196   3.478   7.238 -1.4263 -0.5794 -0.9522
  179SOPE  H11S20418   4.318   3.378   7.319 -0.6139 -2.6047  0.1730
  179SOPE  C21220419   4.143   3.440   7.439 -0.4140  0.8528  0.0868
  179SOPE  H12R20420   4.132   3.351   7.505 -0.1730  1.7844  1.4320
  179SOPE  H12S20421   4.039   3.473   7.420 -1.2153 -2.1440 -1.2476
  179SOPE  C21320422   4.214   3.555   7.515 -0.3681  0.0288  0.5227
  179SOPE  H13R20423   4.314   3.524   7.551 -0.3199 -0.4706 -0.0323
  179SOPE  H13S20424   4.152   3.578   7.605 -0.0815  3.4246 -0.0183
  179SOPE  C21420425   4.220   3.689   7.451  0.3999  0.2280 -0.3968
  179SOPE  H14R20426   4.116   3.720   7.426  1.0275  2.6397 -0.2198
  179SOPE  H14S20427   4.288   3.700   7.364 -0.4795  1.6151 -0.9389
  179SOPE  C21520428   4.277   3.809   7.540  0.2873  0.0608  0.2122
  179SOPE  H15R20429   4.384   3.781   7.553  0.5650 -0.1346 -2.0638
  179SOPE  H15S20430   4.227   3.818   7.639  1.0110  0.7731  0.5256
  179SOPE  C21620431   4.278   3.936   7.460 -0.1037  0.0062  0.0987
  179SOPE  H16R20432   4.174   3.974   7.450  0.1675  1.0846  1.1221
  179SOPE  H16S20433   4.318   3.910   7.360 -1.0073 -0.8195 -0.0629
  179SOPE  C21720434   4.370   4.043   7.515  0.2040 -0.3430 -0.0056
  179SOPE  H17R20435   4.477   4.016   7.511  0.3280  0.2653 -1.1627
  179SOPE  H17S20436   4.341   4.060   7.621 -1.3983 -1.3651 -0.2481
  179SOPE  C21820437   4.359   4.176   7.441  0.4502 -0.1219 -0.2408
  179SOPE  H18R20438   4.422   4.256   7.486  2.1410 -1.3449 -0.3661
  179SOPE  H18S20439   4.258   4.223   7.433 -0.1490 -1.5762 -1.7927
  179SOPE  H18T20440   4.391   4.156   7.337 -0.6178 -1.9816 -0.2439
  179SOPE   C3320441   4.482   3.212   6.243 -0.2634 -0.5022 -0.2447
  179SOPE   H3X20442   4.403   3.290   6.235 -0.2041 -0.5787 -2.0402
  179SOPE   H3Y20443   4.580   3.248   6.206  0.5296 -0.0370  2.1839
  179SOPE   C3420444   4.498   3.162   6.381 -0.1522  0.8369  0.1817
  179SOPE   H4X20445   4.400   3.141   6.430  0.9473  0.3462  2.2868
  179SOPE   H4Y20446   4.541   3.244   6.443 -0.5703  1.0486  0.1985
  179SOPE   C3520447   4.601   3.046   6.407 -0.1831  0.0800 -0.5154
  179SOPE   H5X20448   4.693   3.061   6.347  1.2187  1.3924  1.7869
  179SOPE   H5Y20449   4.560   2.944   6.392 -0.8288  0.2878 -0.1542
  179SOPE   C3620450   4.649   3.045   6.556  0.0563  0.0107  0.0175
  179SOPE   H6X20451   4.687   3.148   6.575  1.7388 -0.2100 -1.7483
  179SOPE   H6Y20452   4.740   2.982   6.566  0.3930  0.1655 -1.6248
  179SOPE   C3720453   4.543   3.020   6.662  0.2048  0.3435 -0.0400
  179SOPE   H7X20454   4.506   2.916   6.650  1.3053 -0.0091 -0.5589
  179SOPE   H7Y20455   4.449   3.079   6.652 -0.0929 -0.3130 -1.4037
  179SOPE   C3820456   4.601   3.015   6.808  0.4425 -0.0282  0.3732
  179SOPE   H8X20457   4.671   2.930   6.825  0.0303  0.1146  3.3488
  179SOPE   H8Y20458   4.509   2.996   6.867 -0.2442  2.8833  0.4078
  179SOPE   C3920459   4.668   3.145   6.853 -0.0560 -0.0167 -0.0367
  179SOPE   H9X20460   4.601   3.224   6.815  0.9007  0.7150 -0.2285
  179SOPE   H9Y20461   4.767   3.160   6.806 -1.3985  1.2807 -2.6495
  179SOPE  C31020462   4.667   3.161   7.012 -0.4806 -0.2561  0.2382
  179SOPE  H10X20463   4.565   3.156   7.053  0.3867  0.8314  2.6955
  179SOPE  H10Y20464   4.685   3.270   7.023  1.9102 -0.6586  0.8565
  179SOPE  C31120465   4.766   3.075   7.093  0.3101  0.2448  0.5917
  179SOPE  H11X20466   4.860   3.079   7.034 -0.5226 -1.5293 -0.9394
  179SOPE  H11Y20467   4.727   2.972   7.093 -0.9912  0.6729 -1.4027
  179SOPE  C31220468   4.781   3.117   7.245 -0.0190 -0.1274  0.1245
  179SOPE  H12X20469   4.806   3.023   7.298  0.0552 -0.2735 -0.1680
  179SOPE  H12Y20470   4.683   3.148   7.288 -0.1095 -0.5667  0.2384
  179SOPE  C31320471   4.893   3.212   7.273  0.6576 -0.1069  0.0770
  179SOPE  H13X20472   4.989   3.190   7.221  0.3183  0.1546 -0.6770
  179SOPE  H13Y20473   4.914   3.210   7.382 -1.0438  2.5358  0.5443
  179SOPE  C31420474   4.867   3.358   7.228 -0.0501 -0.3104 -0.2092
  179SOPE  H14X20475   4.870   3.352   7.117  0.6192  0.7164 -0.2615
  179SOPE  H14Y20476   4.958   3.411   7.263  0.2331 -1.6656  1.2200
  179SOPE  C31520477   4.741   3.422   7.277 -0.4048 -0.1075  0.0146
  179SOPE  H15X20478   4.647   3.364   7.263 -0.3520  0.0539 -1.1799
  179SOPE  H15Y20479   4.727   3.514   7.215 -0.3587 -1.2033 -1.6872
  179SOPE  C31620480   4.745   3.449   7.426 -0.9484 -0.3398  0.1533
  179SOPE  H16X20481   4.832   3.513   7.453 -2.1424  1.0965  0.7433
  179SOPE  H16Y20482   4.757   3.349   7.474 -1.6790  0.0905  1.2811
  179SOPE  C31720483   4.617   3.514   7.467  0.5276 -0.5576 -0.3368
  179SOPE  H17X20484   4.523   3.454   7.458 -0.8467  1.0990  1.9164
  179SOPE  H17Y20485   4.601   3.603   7.403 -1.0082 -0.0755  0.6577
  179SOPE  C31820486   4.623   3.568   7.610  0.9037  0.1666 -0.3122
  179SOPE  H18X20487   4.718   3.626   7.611  1.4851 -0.7153  2.5176
  179SOPE  H18Y20488   4.645   3.486   7.681  2.3310 -0.1063 -1.0314
  179SOPE  H18Z20489   4.538   3.625   7.651  1.6590  1.0001  0.1190
  180SOPE     N20490   4.460   0.527   5.333  0.0095 -0.3881 -0.7717
  180SOPE   HN120491   4.423   0.473   5.414 -0.1252  2.0920  0.9302
  180SOPE   HN220492   4.399   0.523   5.249  0.5675  1.2203 -1.2890
  180SOPE   HN320493   4.548   0.484   5.298  0.7119  0.5167 -0.1786
  180SOPE   C1220494   4.486   0.674   5.377  0.1274  0.1609  0.1009
  180SOPE  H12A20495   4.423   0.746   5.321  0.1643 -0.5484 -0.8885
  180SOPE  H12B20496   4.595   0.693   5.367  0.0036  1.2375  0.6415
  180SOPE   C1120497   4.442   0.696   5.530  0.3641  0.1191 -0.0407
  180SOPE  H11A20498   4.342   0.650   5.540 -0.6994  2.4937  0.6606
  180SOPE  H11B20499   4.433   0.805   5.545 -1.8485 -0.0603  0.1640
  180SOPE     P20500   4.512   0.658   5.763 -0.3261 -0.0439 -0.4863
  180SOPE   O1320501   4.579   0.559   5.850  0.4004 -0.0822 -0.4181
  180SOPE   O1420502   4.368   0.678   5.779 -0.0434  0.1771  0.7512
  180SOPE   O1220503   4.539   0.628   5.612 -0.3481 -0.3519  0.6954
  180SOPE   O1120504   4.577   0.800   5.777 -0.4592 -0.0229 -0.6493
  180SOPE    C120505   4.667   0.832   5.882  0.5319 -0.2864  0.3882
  180SOPE    HA20506   4.715   0.926   5.849  0.2967 -0.1884  0.3289
  180SOPE    HB20507   4.739   0.750   5.906 -1.4259 -1.7564  1.5122
  180SOPE    C220508   4.594   0.877   6.007  0.0918  0.5350 -0.8039
  180SOPE    HS20509   4.672   0.923   6.071  1.2238 -1.5259 -0.5982
  180SOPE   O2120510   4.539   0.767   6.084 -0.4307 -0.9609 -0.1623
  180SOPE   C2120511   4.623   0.697   6.150  0.4416 -0.0410  0.3042
  180SOPE   O2220512   4.738   0.731   6.169 -0.3737  0.5716 -0.2500
  180SOPE   C2220513   4.546   0.576   6.214 -0.2844  0.1115 -0.6959
  180SOPE   H2R20514   4.510   0.519   6.126  0.7441 -0.5239 -0.7250
  180SOPE   H2S20515   4.466   0.620   6.277  0.2576 -1.0527  0.8664
  180SOPE    C320516   4.483   0.982   5.986 -0.0332 -1.0102  0.9427
  180SOPE    HX20517   4.390   0.936   5.947  0.4390 -0.6714 -0.6587
  180SOPE    HY20518   4.520   1.062   5.918  0.8189 -3.3731 -1.5158
  180SOPE   O3120519   4.454   1.037   6.116 -0.0633  0.3547  0.6035
  180SOPE   C3120520   4.362   0.979   6.194  0.0256  0.4022  0.5202
  180SOPE   O3220521   4.292   0.890   6.157 -0.4587 -0.2480  0.0036
  180SOPE   C3220522   4.392   1.024   6.342  0.2559 -0.0787  0.0762
  180SOPE   H2X20523   4.321   1.103   6.374  0.4014  1.5393 -3.1651
  180SOPE   H2Y20524   4.493   1.071   6.342  0.5982 -0.7402 -1.6610
  180SOPE   C2320525   4.644   0.480   6.286 -0.5430 -0.0555  0.1510
  180SOPE   H3R20526   4.713   0.528   6.359  0.8290  1.0127 -1.7502
  180SOPE   H3S20527   4.709   0.443   6.204 -0.1981  0.8338  0.0104
  180SOPE   C2420528   4.564   0.370   6.367 -0.0817 -0.5825  0.2349
  180SOPE   H4R20529   4.472   0.341   6.313 -1.1205  1.2535  0.9520
  180SOPE   H4S20530   4.628   0.280   6.380 -3.7696 -3.1829  2.0405
  180SOPE   C2520531   4.518   0.425   6.503  0.1764  0.8275 -1.0471
  180SOPE   H5R20532   4.469   0.524   6.491 -3.2330 -0.6125 -0.1742
  180SOPE   H5S20533   4.445   0.350   6.540  2.2723  0.2744  2.4061
  180SOPE   C2620534   4.625   0.451   6.617 -0.4320  0.8324  0.1972
  180SOPE   H6R20535   4.714   0.510   6.585  0.6935 -1.5317 -1.3158
  180SOPE   H6S20536   4.579   0.501   6.706 -0.2055  1.3995  0.0016
  180SOPE   C2720537   4.693   0.319   6.664  0.4751 -0.6321  0.1866
  180SOPE   H7R20538   4.621   0.235   6.674  0.7149 -0.7173  1.3325
  180SOPE   H7S20539   4.757   0.287   6.579 -0.6650  0.0317 -0.9662
  180SOPE   C2820540   4.780   0.338   6.785  0.2268  0.2172  0.7949
  180SOPE   H8R20541   4.831   0.239   6.797  3.5872  1.8883  1.5662
  180SOPE   H8S20542   4.874   0.392   6.761  0.6270  0.2595  2.3324
  180SOPE   C2920543   4.692   0.373   6.905  0.2498 -0.1357  0.4287
  180SOPE   H9120544   4.619   0.453   6.885  1.4751  1.6575  2.6095
  180SOPE  C21020545   4.701   0.330   7.033 -0.3707  0.4201 -0.1237
  180SOPE  H10120546   4.633   0.366   7.111  1.2567 -1.8026  2.5075
  180SOPE  C21120547   4.797   0.237   7.096 -0.2593 -0.4405 -0.3408
  180SOPE  H11R20548   4.873   0.211   7.019 -0.9593  1.8034 -1.8780
  180SOPE  H11S20549   4.741   0.145   7.123  0.0957 -0.9081 -1.1815
  180SOPE  C21220550   4.881   0.295   7.212  0.6223 -0.0832  0.1989
  180SOPE  H12R20551   4.943   0.381   7.180  0.5865 -0.2160 -0.2330
  180SOPE  H12S20552   4.956   0.224   7.253  0.0600 -0.8953 -0.1461
  180SOPE  C21320553   4.786   0.357   7.317 -0.1469  0.1017  0.2802
  180SOPE  H13R20554   4.719   0.437   7.279  0.9361  0.1469 -1.6127
  180SOPE  H13S20555   4.846   0.407   7.396 -2.2139  2.1821  0.6366
  180SOPE  C21420556   4.702   0.261   7.407 -0.3624  0.0971 -0.1208
  180SOPE  H14R20557   4.773   0.179   7.432  2.9063  2.1192 -2.0799
  180SOPE  H14S20558   4.607   0.235   7.356 -0.2919  0.9385 -0.6904
  180SOPE  C21520559   4.652   0.325   7.545 -0.2554  0.3406 -1.0209
  180SOPE  H15R20560   4.561   0.271   7.577 -0.3403  0.2489 -1.4145
  180SOPE  H15S20561   4.633   0.430   7.515  1.0464  0.7140 -0.5975
  180SOPE  C21620562   4.760   0.321   7.656 -0.3865  0.3206 -0.7349
  180SOPE  H16R20563   4.747   0.381   7.748  2.0924 -0.7141  0.3842
  180SOPE  H16S20564   4.862   0.345   7.619  0.3938  1.0781  1.7296
  180SOPE  C21720565   4.755   0.183   7.725  0.2088  0.0615  0.8124
  180SOPE  H17R20566   4.811   0.112   7.661 -0.7174 -1.4730  1.6362
  180SOPE  H17S20567   4.649   0.149   7.730 -0.0855  0.3866 -1.9088
  180SOPE  C21820568   4.810   0.181   7.868 -0.0558  0.1084 -0.0597
  180SOPE  H18R20569   4.832   0.075   7.893  2.0775  0.3599 -0.6964
  180SOPE  H18S20570   4.737   0.230   7.937  1.8252 -0.9820  2.9230
  180SOPE  H18T20571   4.902   0.243   7.880  0.3795 -0.5182 -0.1149
  180SOPE   C3320572   4.385   0.913   6.445 -0.7209  0.6731 -0.1367
  180SOPE   H3X20573   4.453   0.832   6.411 -1.8182 -1.2039  1.8860
  180SOPE   H3Y20574   4.282   0.876   6.464 -0.7139  0.5466 -0.3479
  180SOPE   C3420575   4.418   0.946   6.597  0.5525  0.0814 -0.1550
  180SOPE   H4X20576   4.526   0.973   6.602  0.2400  1.2647  0.7655
  180SOPE   H4Y20577   4.401   0.848   6.644  1.8521 -0.5022 -0.8351
  180SOPE   C3520578   4.329   1.052   6.659 -0.0268  0.0668 -1.0014
  180SOPE   H5X20579   4.221   1.027   6.664 -0.2874  1.3063  0.3223
  180SOPE   H5Y20580   4.319   1.146   6.600 -2.4519 -0.9095 -2.3117
  180SOPE   C3620581   4.374   1.086   6.802  0.6341  0.2800  0.1835
  180SOPE   H6X20582   4.326   1.176   6.845  0.4625 -0.3282  1.3176
  180SOPE   H6Y20583   4.484   1.085   6.785  0.3072 -0.4791 -2.3125
  180SOPE   C3720584   4.345   0.972   6.908 -0.4079  0.2137  0.3283
  180SOPE   H7X20585   4.402   1.007   6.996 -0.8780  0.9232  0.3620
  180SOPE   H7Y20586   4.376   0.874   6.866  0.7148  0.6946 -0.0044
  180SOPE   C3820587   4.196   0.973   6.952 -0.2638  0.2879 -0.7223
  180SOPE   H8X20588   4.132   0.948   6.865 -0.6450  0.5464 -0.5170
  180SOPE   H8Y20589   4.152   1.065   6.995  0.9087 -0.1056  1.4849
  180SOPE   C3920590   4.169   0.860   7.051  0.3202 -0.1962 -0.3841
  180SOPE   H9X20591   4.237   0.856   7.139 -1.3279 -0.6836  0.9174
  180SOPE   H9Y20592   4.188   0.764   6.998  1.0321 -1.0123  1.2827
  180SOPE  C31020593   4.031   0.870   7.117  0.6667  1.1461  0.5296
  180SOPE  H10X20594   3.956   0.889   7.036  1.2510  0.8320 -0.0913
  180SOPE  H10Y20595   4.022   0.958   7.184 -0.8231  0.5236  1.1870
  180SOPE  C31120596   3.990   0.735   7.182  1.0090  0.0531 -0.0174
  180SOPE  H11X20597   4.066   0.718   7.262  1.2435 -0.6551 -0.3836
  180SOPE  H11Y20598   3.990   0.649   7.112 -3.4269 -0.0941 -0.1030
  180SOPE  C31220599   3.851   0.734   7.241 -0.5264 -0.0101 -0.8371
  180SOPE  H12X20600   3.777   0.759   7.162  0.1532  0.5191 -1.3169
  180SOPE  H12Y20601   3.851   0.809   7.324  1.8002 -1.5579  0.6881
  180SOPE  C31320602   3.831   0.603   7.321 -0.0952  0.2332  0.0545
  180SOPE  H13X20603   3.918   0.585   7.388 -1.5649 -1.1985  1.6759
  180SOPE  H13Y20604   3.834   0.514   7.255  0.4567  1.5566 -1.7946
  180SOPE  C31420605   3.708   0.615   7.420 -0.5879  0.2769 -0.3476
  180SOPE  H14X20606   3.610   0.624   7.370 -1.1197 -0.0067  0.6249
  180SOPE  H14Y20607   3.729   0.709   7.476  0.2024  0.4223 -0.8607
  180SOPE  C31520608   3.709   0.495   7.517 -0.0330  0.3951  0.2553
  180SOPE  H15X20609   3.637   0.510   7.600 -0.3202  1.8747 -0.2251
  180SOPE  H15Y20610   3.812   0.493   7.558  0.8124  4.1403 -1.2563
  180SOPE  C31620611   3.679   0.362   7.448  0.0035 -0.3725  0.2461
  180SOPE  H16X20612   3.698   0.281   7.522 -1.1384 -1.4121 -0.5506
  180SOPE  H16Y20613   3.748   0.342   7.364 -0.6053 -2.0084  0.0943
  180SOPE  C31720614   3.540   0.333   7.391  0.1925 -0.8598 -0.3120
  180SOPE  H17X20615   3.524   0.225   7.372 -1.1650 -0.8259  0.5693
  180SOPE  H17Y20616   3.531   0.377   7.289 -1.8845 -2.3906 -0.8522
  180SOPE  C31820617   3.430   0.387   7.475  0.3216 -0.4167 -0.0295
  180SOPE  H18X20618   3.435   0.335   7.573 -2.1196 -0.9898 -0.1550
  180SOPE  H18Y20619   3.339   0.351   7.423  1.2971 -0.3833 -1.8808
  180SOPE  H18Z20620   3.422   0.498   7.481 -1.2572 -0.5793  1.3668
  181SOPE     N20621   3.257   0.436   5.611 -0.7488  0.0031 -0.0922
  181SOPE   HN120622   3.297   0.409   5.519 -1.0200  2.0539 -0.8651
  181SOPE   HN220623   3.232   0.536   5.600 -2.1518 -0.3869 -0.6796
  181SOPE   HN320624   3.340   0.438   5.673  0.1375 -0.0807 -1.2477
  181SOPE   C1220625   3.141   0.345   5.663 -0.1682 -0.2809  0.2232
  181SOPE  H12A20626   3.193   0.248   5.649  1.7351  1.0869 -3.6481
  181SOPE  H12B20627   3.059   0.368   5.592  0.6742  0.9082 -0.4133
  181SOPE   C1120628   3.113   0.394   5.801 -0.0426  0.3931 -0.8472
  181SOPE  H11A20629   3.197   0.362   5.867 -1.4668 -3.7319 -0.7312
  181SOPE  H11B20630   3.032   0.336   5.849  0.3163  2.7669  3.0911
  181SOPE     P20631   2.947   0.585   5.809  0.6231 -0.0575 -0.1508
  181SOPE   O1320632   2.867   0.523   5.700 -0.0664  0.1970 -0.1484
  181SOPE   O1420633   2.962   0.730   5.804  0.5561 -0.0604 -0.2236
  181SOPE   O1220634   3.097   0.533   5.800  0.1300  0.0895 -0.7027
  181SOPE   O1120635   2.881   0.542   5.946 -0.2628  0.4435 -0.4149
  181SOPE    C120636   2.904   0.607   6.073 -0.1388  0.0638 -0.9380
  181SOPE    HA20637   2.816   0.582   6.136 -0.3558  1.6307 -0.5910
  181SOPE    HB20638   2.912   0.718   6.071 -1.6286  0.1796 -1.3162
  181SOPE    C220639   3.030   0.547   6.142  0.3533 -0.1713 -0.3794
  181SOPE    HS20640   3.112   0.559   6.068 -0.4335 -0.6430 -1.3368
  181SOPE   O2120641   3.001   0.407   6.151  0.1149 -0.5321  0.0813
  181SOPE   C2120642   3.104   0.325   6.137  0.2225  0.2143  0.1692
  181SOPE   O2220643   3.218   0.353   6.112 -0.0574 -0.1733  0.2755
  181SOPE   C2220644   3.056   0.178   6.165 -0.1126 -0.7398  0.1374
  181SOPE   H2R20645   3.014   0.144   6.068 -2.4154 -1.0029  1.1409
  181SOPE   H2S20646   2.965   0.180   6.230 -1.8690  1.6095 -2.1702
  181SOPE    C320647   3.058   0.592   6.292  0.1784 -0.0697 -0.1612
  181SOPE    HX20648   2.965   0.561   6.344 -0.0151  1.0294  0.1842
  181SOPE    HY20649   3.074   0.700   6.312 -1.4297 -0.2401  2.5135
  181SOPE   O3120650   3.165   0.521   6.353 -0.7582  0.2126 -0.1865
  181SOPE   C3120651   3.285   0.577   6.333  0.2368  0.2722 -0.0970
  181SOPE   O3220652   3.302   0.684   6.277  0.2511  0.0264  0.3177
  181SOPE   C3220653   3.404   0.489   6.386 -0.2051  0.4046  0.9450
  181SOPE   H2X20654   3.431   0.423   6.301  0.0028  1.5983  0.0652
  181SOPE   H2Y20655   3.356   0.412   6.451 -0.2628 -0.3442  0.0361
  181SOPE   C2320656   3.154   0.074   6.226 -0.2822  0.1265  0.1438
  181SOPE   H3R20657   3.233   0.046   6.154 -0.4711 -0.9208  0.3318
  181SOPE   H3S20658   3.098  -0.021   6.241  1.5063 -1.5233 -2.7339
  181SOPE   C2420659   3.228   0.117   6.363  0.7451 -0.1675  0.1497
  181SOPE   H4R20660   3.323   0.061   6.372  0.5894 -0.1816  1.8886
  181SOPE   H4S20661   3.236   0.228   6.361 -1.5200  0.0577  0.4729
  181SOPE   C2520662   3.151   0.082   6.488 -0.4390 -0.3184  0.4749
  181SOPE   H5R20663   3.050   0.128   6.488 -0.6523 -0.6610  2.5976
  181SOPE   H5S20664   3.133  -0.027   6.477  3.8606 -1.0299 -1.1614
  181SOPE   C2620665   3.235   0.119   6.607  0.1812 -0.4503 -0.3582
  181SOPE   H6R20666   3.333   0.068   6.601  0.9614  1.0143 -0.5674
  181SOPE   H6S20667   3.253   0.229   6.606 -1.2470 -0.1666 -3.0758
  181SOPE   C2720668   3.162   0.077   6.732 -0.7282 -0.1319 -0.6028
  181SOPE   H7R20669   3.166  -0.033   6.738  2.1584 -0.1011 -0.2729
  181SOPE   H7S20670   3.233   0.099   6.815  0.3562 -1.7613 -1.0504
  181SOPE   C2820671   3.022   0.129   6.745  0.3254 -0.2874  0.1961
  181SOPE   H8R20672   3.017   0.231   6.703 -1.8026 -1.4255 -2.6049
  181SOPE   H8S20673   2.951   0.074   6.681 -2.5711  0.6140  2.4244
  181SOPE   C2920674   2.970   0.115   6.883 -0.8333 -0.2760 -0.2380
  181SOPE   H9120675   3.007   0.198   6.945  1.3482 -1.5877  0.3297
  181SOPE  C21020676   2.883   0.023   6.939  1.1460 -0.5092 -1.0925
  181SOPE  H10120677   2.862   0.019   7.047  4.8281  0.3041 -0.2212
  181SOPE  C21120678   2.804  -0.083   6.849 -0.7837  0.0727 -0.6785
  181SOPE  H11R20679   2.881  -0.126   6.782 -0.2626 -1.0891  0.6401
  181SOPE  H11S20680   2.726  -0.039   6.782 -1.6398  1.2384  1.0074
  181SOPE  C21220681   2.754  -0.192   6.936 -0.0428  1.4966 -0.7520
  181SOPE  H12R20682   2.675  -0.144   6.998 -1.6706  0.7807 -2.1997
  181SOPE  H12S20683   2.838  -0.215   7.005 -0.5196 -0.5137 -0.7807
  181SOPE  C21320684   2.712  -0.316   6.863  0.0958  0.2676 -0.3554
  181SOPE  H13R20685   2.799  -0.348   6.802 -0.1270 -0.9630 -0.0633
  181SOPE  H13S20686   2.620  -0.298   6.803 -0.8784 -0.6752  0.8029
  181SOPE  C21420687   2.698  -0.434   6.964 -0.0997 -0.3479 -0.3822
  181SOPE  H14R20688   2.794  -0.425   7.019 -0.4784  0.4670  0.1517
  181SOPE  H14S20689   2.699  -0.540   6.929 -2.7955 -0.1067 -1.4658
  181SOPE  C21520690   2.599  -0.419   7.082  0.6465 -0.3226  0.7548
  181SOPE  H15R20691   2.527  -0.342   7.047 -0.6476 -2.1382 -0.7964
  181SOPE  H15S20692   2.648  -0.382   7.174 -0.9006 -0.0344  1.5071
  181SOPE  C21620693   2.508  -0.543   7.109 -0.1454  0.4161 -0.4700
  181SOPE  H16R20694   2.576  -0.618   7.155  1.3874  1.4267 -1.0180
  181SOPE  H16S20695   2.489  -0.582   7.007 -1.0830 -0.7609  0.1292
  181SOPE  C21720696   2.387  -0.517   7.195  0.2752 -0.1350  0.3467
  181SOPE  H17R20697   2.339  -0.614   7.219  0.1921  0.4249  2.7103
  181SOPE  H17S20698   2.307  -0.465   7.138 -0.5617  1.7618  3.0472
  181SOPE  C21820699   2.402  -0.433   7.328  0.4793  1.1059 -0.2867
  181SOPE  H18R20700   2.302  -0.427   7.377 -0.2672 -0.4804 -1.5110
  181SOPE  H18S20701   2.436  -0.329   7.308 -0.7985  1.5589 -0.2078
  181SOPE  H18T20702   2.480  -0.478   7.393  1.3031 -1.4755 -2.8593
  181SOPE   C3320703   3.520   0.566   6.437 -1.1645 -0.5581 -0.7146
  181SOPE   H3X20704   3.554   0.649   6.371 -1.6446 -0.1499 -0.4558
  181SOPE   H3Y20705   3.605   0.495   6.432 -1.3001 -0.6679 -1.5809
  181SOPE   C3420706   3.506   0.616   6.580  0.2243 -0.5556  0.1697
  181SOPE   H4X20707   3.496   0.526   6.644  0.1196  0.2265  1.3061
  181SOPE   H4Y20708   3.414   0.675   6.602 -0.8545 -2.0827 -0.1111
  181SOPE   C3520709   3.627   0.694   6.625 -0.0911 -0.4485  0.0582
  181SOPE   H5X20710   3.631   0.787   6.563  0.6089 -1.8772 -2.1751
  181SOPE   H5Y20711   3.724   0.640   6.614  0.6794  0.5583  1.5696
  181SOPE   C3620712   3.611   0.721   6.771  0.5732 -0.1280 -0.6368
  181SOPE   H6X20713   3.703   0.773   6.803 -0.2314  0.4469  0.8098
  181SOPE   H6Y20714   3.620   0.634   6.839  0.4766  0.2275 -0.1670
  181SOPE   C3720715   3.488   0.807   6.811 -0.1257  0.0116 -0.0751
  181SOPE   H7X20716   3.398   0.747   6.784  2.5610 -3.5729 -1.9071
  181SOPE   H7Y20717   3.487   0.903   6.754  2.1790  0.2741  0.2198
  181SOPE   C3820718   3.482   0.842   6.956  0.9069  0.3655  0.2467
  181SOPE   H8X20719   3.398   0.914   6.963 -0.1117 -0.8849  1.3880
  181SOPE   H8Y20720   3.576   0.901   6.969  1.3384  0.0149 -1.1190
  181SOPE   C3920721   3.482   0.720   7.052  0.5937  0.4285 -0.3905
  181SOPE   H9X20722   3.584   0.681   7.068 -0.0272 -0.8751  0.6226
  181SOPE   H9Y20723   3.420   0.644   7.000  2.0035  0.1884 -1.7779
  181SOPE  C31020724   3.420   0.744   7.192 -0.2310 -0.1556 -0.3793
  181SOPE  H10X20725   3.415   0.651   7.253  0.6541 -1.5534 -2.3051
  181SOPE  H10Y20726   3.316   0.773   7.169 -1.6711 -3.6124  1.0222
  181SOPE  C31120727   3.498   0.859   7.263  0.3621  0.6301  0.2582
  181SOPE  H11X20728   3.518   0.936   7.185  0.0270 -1.8327 -2.4024
  181SOPE  H11Y20729   3.599   0.832   7.301  1.1380  2.8328 -0.0981
  181SOPE  C31220730   3.406   0.905   7.377 -0.0303 -0.3889  0.5430
  181SOPE  H12X20731   3.400   0.816   7.443  0.2899 -2.5538 -2.1697
  181SOPE  H12Y20732   3.303   0.926   7.341  0.1678  0.0436  0.2277
  181SOPE  C31320733   3.465   1.014   7.458 -0.5791 -0.4348 -0.6980
  181SOPE  H13X20734   3.385   1.040   7.530 -0.2976 -1.0980 -0.1292
  181SOPE  H13Y20735   3.476   1.103   7.394  0.3499  1.1275  1.5067
  181SOPE  C31420736   3.585   0.978   7.549  0.0295 -0.1364 -0.5047
  181SOPE  H14X20737   3.664   0.927   7.491 -0.2188 -0.1243 -0.8532
  181SOPE  H14Y20738   3.538   0.898   7.611  1.3222  0.9035  1.9717
  181SOPE  C31520739   3.635   1.109   7.620 -0.0865  0.1558  0.6848
  181SOPE  H15X20740   3.546   1.148   7.673 -0.2607  2.3227 -1.0661
  181SOPE  H15Y20741   3.661   1.176   7.535  1.8376 -1.3287  0.0053
  181SOPE  C31620742   3.742   1.078   7.723  0.1211 -0.0817  0.3379
  181SOPE  H16X20743   3.842   1.076   7.675 -0.3537  3.0119 -1.0027
  181SOPE  H16Y20744   3.722   0.976   7.764 -2.1746  0.5702  0.9711
  181SOPE  C31720745   3.742   1.188   7.842 -0.0520 -0.1272  1.0192
  181SOPE  H17X20746   3.649   1.172   7.901  0.5568 -2.1945  1.5172
  181SOPE  H17Y20747   3.746   1.287   7.792  0.9071 -0.6960 -0.0882
  181SOPE  C31820748   3.861   1.167   7.933 -0.8275 -0.9663  0.7805
  181SOPE  H18X20749   3.847   1.249   8.005 -3.1675  0.1367 -0.8091
  181SOPE  H18Y20750   3.957   1.178   7.877 -0.6429 -0.5711  1.1714
  181SOPE  H18Z20751   3.875   1.065   7.976 -0.4147 -1.5814 -0.7299
  182SOPE     N20752   5.002   0.761   5.465 -0.2086 -0.0850  0.0763
  182SOPE   HN120753   4.965   0.799   5.376  1.1280  0.5939 -0.2120
  182SOPE   HN220754   5.047   0.843   5.511  1.2052 -0.3285 -0.8308
  182SOPE   HN320755   5.075   0.695   5.434 -0.2538 -0.5162  0.8504
  182SOPE   C1220756   4.900   0.697   5.561  0.3489 -0.2323  0.9296
  182SOPE  H12A20757   4.805   0.756   5.559  1.0940  0.9887  0.4653
  182SOPE  H12B20758   4.959   0.710   5.653  0.9315  1.7607  0.3161
  182SOPE   C1120759   4.864   0.551   5.522 -0.7299 -0.3653 -0.1740
  182SOPE  H11A20760   4.805   0.559   5.429 -1.0308 -3.9125 -0.4071
  182SOPE  H11B20761   4.795   0.519   5.603  0.3035 -2.0364  0.0808
  182SOPE     P20762   4.975   0.318   5.562  0.0938  0.2526  0.0483
  182SOPE   O1320763   5.109   0.273   5.596 -0.4876 -0.6690  0.0258
  182SOPE   O1420764   4.894   0.234   5.468  0.3444  0.3933 -0.2173
  182SOPE   O1220765   4.988   0.472   5.515  0.3183  0.0087 -0.8119
  182SOPE   O1120766   4.900   0.333   5.702 -0.1418  0.3754  0.6781
  182SOPE    C120767   4.953   0.422   5.803  0.6555  0.1969  0.3009
  182SOPE    HA20768   4.870   0.478   5.850  1.7399  0.6339  1.7580
  182SOPE    HB20769   5.026   0.491   5.756  2.5708 -0.3487  2.3645
  182SOPE    C220770   5.027   0.345   5.922 -0.5225 -0.4122 -0.2308
  182SOPE    HS20771   5.090   0.271   5.869  2.6705 -0.2466  2.9554
  182SOPE   O2120772   4.924   0.278   5.999  0.0831  0.1315  0.2483
  182SOPE   C2120773   4.970   0.174   6.073  0.2582 -0.3037 -0.3936
  182SOPE   O2220774   5.088   0.138   6.070 -0.5054 -0.5784 -0.1033
  182SOPE   C2220775   4.859   0.123   6.162  0.3610  0.2218 -0.4681
  182SOPE   H2R20776   4.772   0.090   6.101  0.4907 -1.6734  0.3142
  182SOPE   H2S20777   4.818   0.201   6.229 -0.6184  0.3170 -1.1575
  182SOPE    C320778   5.118   0.436   6.010 -0.3753  0.3093 -0.5467
  182SOPE    HX20779   5.174   0.502   5.941 -0.0592  1.6477  0.9453
  182SOPE    HY20780   5.187   0.366   6.062  0.5473  0.9444 -0.8856
  182SOPE   O3120781   5.041   0.514   6.108  0.2125  0.1291 -0.1965
  182SOPE   C3120782   5.129   0.568   6.196  0.1562  0.3381 -0.4337
  182SOPE   O3220783   5.251   0.575   6.183 -0.7398 -0.1474 -0.0394
  182SOPE   C3220784   5.047   0.630   6.311 -0.1731 -0.0784 -0.1480
  182SOPE   H2X20785   4.954   0.673   6.268 -0.8996 -2.7445 -1.4666
  182SOPE   H2Y20786   5.104   0.708   6.366  0.7800 -0.6855 -0.2470
  182SOPE   C2320787   4.892   0.001   6.248  0.3789 -0.1968  0.1002
  182SOPE   H3R20788   4.939  -0.078   6.186 -0.7863  0.0009 -1.0862
  182SOPE   H3S20789   4.795  -0.037   6.288 -1.1826  0.1598 -3.0794
  182SOPE   C2420790   4.969   0.050   6.370 -0.4537  0.0884  0.5977
  182SOPE   H4R20791   5.072   0.073   6.336  1.1657 -1.9951  3.6650
  182SOPE   H4S20792   4.936   0.145   6.418 -0.9072  0.7577 -0.9757
  182SOPE   C2520793   4.971  -0.062   6.469 -0.1390  0.4165 -0.7677
  182SOPE   H5R20794   4.934  -0.157   6.425  0.0187 -0.2735  0.5236
  182SOPE   H5S20795   5.078  -0.068   6.500 -0.1238  1.5250 -0.5745
  182SOPE   C2620796   4.896  -0.024   6.598 -0.0631  0.5861  0.0084
  182SOPE   H6R20797   4.951   0.058   6.649 -0.6338 -0.1163  1.8539
  182SOPE   H6S20798   4.794   0.001   6.562  0.3230 -2.4705 -3.8927
  182SOPE   C2720799   4.880  -0.151   6.685 -0.2325  0.4007  0.1234
  182SOPE   H7R20800   4.794  -0.198   6.631  0.4823  0.3523 -1.0039
  182SOPE   H7S20801   4.965  -0.221   6.673 -0.8570 -0.2298 -0.7578
  182SOPE   C2820802   4.852  -0.119   6.835  0.1054 -0.0122  0.3497
  182SOPE   H8R20803   4.937  -0.060   6.875  0.6069 -0.6619  0.2609
  182SOPE   H8S20804   4.767  -0.049   6.848 -0.7363 -0.5181 -1.9974
  182SOPE   C2920805   4.841  -0.245   6.907 -0.7304 -0.9480 -1.2363
  182SOPE   H9120806   4.927  -0.313   6.897  1.0710  1.0651 -0.1521
  182SOPE  C21020807   4.730  -0.284   6.979  0.2970  0.4067 -0.2727
  182SOPE  H10120808   4.731  -0.382   7.030 -1.2572  0.6225  0.2140
  182SOPE  C21120809   4.592  -0.210   6.973 -0.0239 -1.2227 -0.1704
  182SOPE  H11R20810   4.511  -0.284   6.957 -0.3908 -0.7706 -0.4132
  182SOPE  H11S20811   4.585  -0.144   6.884  3.1245 -0.3404  0.0989
  182SOPE  C21220812   4.570  -0.139   7.108  0.2866 -0.2539  0.1508
  182SOPE  H12R20813   4.492  -0.061   7.093  2.0455  1.7048  0.7778
  182SOPE  H12S20814   4.666  -0.091   7.134  0.3449 -0.2066 -0.1504
  182SOPE  C21320815   4.542  -0.227   7.233 -0.1178 -0.2114 -0.0612
  182SOPE  H13R20816   4.616  -0.310   7.235  2.1158  1.6778  1.3646
  182SOPE  H13S20817   4.439  -0.269   7.226  0.2534 -1.0004 -1.1762
  182SOPE  C21420818   4.550  -0.150   7.361 -0.7611 -0.2083  0.0653
  182SOPE  H14R20819   4.492  -0.056   7.353  0.2044  0.3119 -1.1006
  182SOPE  H14S20820   4.652  -0.117   7.390 -1.2557  1.8653 -0.4007
  182SOPE  C21520821   4.498  -0.241   7.478 -0.0066  0.4856  0.5809
  182SOPE  H15R20822   4.550  -0.338   7.461  0.8681  0.5930  2.3725
  182SOPE  H15S20823   4.391  -0.261   7.455  0.6016 -0.4710 -1.7394
  182SOPE  C21620824   4.510  -0.190   7.617 -1.1716  0.1649  0.2913
  182SOPE  H16R20825   4.466  -0.088   7.615  0.4977  0.9215 -1.7918
  182SOPE  H16S20826   4.619  -0.188   7.638 -0.3075  0.6391 -3.5142
  182SOPE  C21720827   4.443  -0.268   7.733  0.1660 -0.1615  0.1784
  182SOPE  H17R20828   4.344  -0.296   7.691  0.5316  0.9882 -1.5497
  182SOPE  H17S20829   4.434  -0.199   7.820 -0.1009 -1.1219  0.9415
  182SOPE  C21820830   4.516  -0.398   7.777  0.1558  0.8381 -0.2118
  182SOPE  H18R20831   4.481  -0.487   7.720 -1.2442  1.4427 -0.3381
  182SOPE  H18S20832   4.504  -0.427   7.883  1.1734 -0.3405 -0.4008
  182SOPE  H18T20833   4.626  -0.396   7.761 -0.0436  1.0784 -1.6634
  182SOPE   C3320834   5.017   0.508   6.412  0.0574 -0.6716  0.2802
  182SOPE   H3X20835   4.968   0.421   6.363  1.9192 -1.3019 -0.5576
  182SOPE   H3Y20836   4.954   0.562   6.486  0.3239 -0.1577  0.1426
  182SOPE   C3420837   5.139   0.463   6.497  0.4356  0.4280  0.3467
  182SOPE   H4X20838   5.194   0.549   6.540  1.3201 -0.1746  0.4494
  182SOPE   H4Y20839   5.211   0.417   6.426 -0.7436 -0.1674 -0.4939
  182SOPE   C3520840   5.111   0.357   6.607  0.2111  0.7177  0.4866
  182SOPE   H5X20841   5.066   0.270   6.555  2.5325 -0.0725 -0.3440
  182SOPE   H5Y20842   5.036   0.397   6.678  0.0839 -1.2524  1.5286
  182SOPE   C3620843   5.235   0.300   6.668 -0.1777 -0.3762 -0.7370
  182SOPE   H6X20844   5.286   0.380   6.726 -0.3878  0.8769 -2.1999
  182SOPE   H6Y20845   5.308   0.274   6.588  1.1591  3.0537 -0.8036
  182SOPE   C3720846   5.211   0.175   6.765 -0.3331 -0.8297 -0.1176
  182SOPE   H7X20847   5.153   0.094   6.716 -1.9220 -0.9141  1.7874
  182SOPE   H7Y20848   5.152   0.216   6.850 -1.3281  0.2947 -1.3042
  182SOPE   C3820849   5.338   0.115   6.826 -0.4618 -0.1868 -0.4274
  182SOPE   H8X20850   5.416   0.181   6.871 -0.5959 -1.1264  1.3052
  182SOPE   H8Y20851   5.389   0.064   6.742  1.2890 -0.1973  0.5838
  182SOPE   C3920852   5.322   0.005   6.938  0.0524  0.1636 -0.6680
  182SOPE   H9X20853   5.413  -0.056   6.956  2.1542  3.1577 -0.4632
  182SOPE   H9Y20854   5.237  -0.060   6.907 -1.1691  0.4138  1.9315
  182SOPE  C31020855   5.279   0.064   7.076 -0.2253  0.0555  0.1009
  182SOPE  H10X20856   5.193   0.134   7.068  1.0172  2.1841  3.3075
  182SOPE  H10Y20857   5.362   0.124   7.119  1.4521 -1.7968 -0.3786
  182SOPE  C31120858   5.234  -0.051   7.172 -0.5124 -0.2011 -0.1508
  182SOPE  H11X20859   5.262  -0.012   7.272 -3.2456  1.0670  0.2187
  182SOPE  H11Y20860   5.290  -0.141   7.139  0.2298 -0.1591  0.9373
  182SOPE  C31220861   5.086  -0.080   7.186 -0.6255  0.0378 -0.0174
  182SOPE  H12X20862   5.037  -0.103   7.090 -1.2031 -2.2392  0.7738
  182SOPE  H12Y20863   5.044   0.019   7.217 -0.0545  0.8682 -1.7938
  182SOPE  C31320864   5.065  -0.189   7.288  0.1818 -0.6613 -0.8498
  182SOPE  H13X20865   5.118  -0.150   7.377 -2.7630  1.0355  0.3254
  182SOPE  H13Y20866   5.121  -0.278   7.254 -0.8182 -0.6002 -2.7855
  182SOPE  C31420867   4.922  -0.221   7.320  0.4130 -0.8995 -0.7303
  182SOPE  H14X20868   4.880  -0.270   7.230  1.3991 -2.2208 -0.4998
  182SOPE  H14Y20869   4.866  -0.125   7.329 -2.8484 -2.8083  1.1099
  182SOPE  C31520870   4.904  -0.304   7.440  0.1402  0.3418  0.3043
  182SOPE  H15X20871   4.960  -0.399   7.429  2.7375  1.5299  2.0455
  182SOPE  H15Y20872   4.798  -0.334   7.456  0.5821 -1.7764 -0.4695
  182SOPE  C31620873   4.944  -0.245   7.584 -0.6324  0.1840  0.1789
  182SOPE  H16X20874   4.874  -0.160   7.600 -1.6712 -0.7431  0.7080
  182SOPE  H16Y20875   5.052  -0.221   7.577  0.0423 -2.6362 -0.2759
  182SOPE  C31720876   4.918  -0.351   7.686 -0.4745  0.7413 -0.9766
  182SOPE  H17X20877   4.962  -0.446   7.648  0.4116  2.2512 -4.0911
  182SOPE  H17Y20878   4.809  -0.369   7.698 -0.4492  1.2958  0.2649
  182SOPE  C31820879   4.971  -0.309   7.824 -0.4451  0.2392  0.5532
  182SOPE  H18X20880   4.901  -0.235   7.868 -1.1149  0.8599 -1.4373
  182SOPE  H18Y20881   5.068  -0.256   7.813 -1.3569  1.4607 -2.6118
  182SOPE  H18Z20882   4.974  -0.391   7.899  1.6055  1.0359  1.4199
  183SOPE     N20883   6.896   6.070   5.639  0.1438  0.0485 -0.5350
  183SOPE   HN120884   6.900   5.974   5.679  2.9183  0.9158  1.5389
  183SOPE   HN220885   6.958   6.060   5.556  1.1004  1.1441  0.0139
  183SOPE   HN320886   6.943   6.137   5.703 -0.9012 -0.5009  0.8592
  183SOPE   C1220887   6.761   6.118   5.595 -0.7809  0.1086  0.3556
  183SOPE  H12A20888   6.726   6.046   5.518  1.1438 -0.1994 -0.2733
  183SOPE  H12B20889   6.765   6.218   5.546  1.4435 -0.3231 -0.4479
  183SOPE   C1120890   6.661   6.125   5.711  0.8785  0.3332 -0.7449
  183SOPE  H11A20891   6.570   6.138   5.649  0.8240 -0.2021 -0.7826
  183SOPE  H11B20892   6.694   6.202   5.784 -1.0381 -1.8977  2.7529
  183SOPE     P20893   6.551   5.884   5.759  0.4561  0.2689 -0.3075
  183SOPE   O1320894   6.577   5.836   5.627  0.1342  0.0171  0.5667
  183SOPE   O1420895   6.414   5.919   5.793  0.2948  0.5125 -0.1783
  183SOPE   O1220896   6.649   6.005   5.788 -0.4066  0.2728  0.3624
  183SOPE   O1120897   6.608   5.787   5.876  0.3130  0.2522  0.9068
  183SOPE    C120898   6.744   5.787   5.925  0.9323  0.1956  0.0056
  183SOPE    HA20899   6.784   5.890   5.935  1.2028  0.0087  0.9885
  183SOPE    HB20900   6.799   5.728   5.849  1.8987 -1.3733  1.8272
  183SOPE    C220901   6.764   5.710   6.059  0.6606  0.0856  0.7390
  183SOPE    HS20902   6.871   5.683   6.074  0.4632 -0.1630  1.8528
  183SOPE   O2120903   6.681   5.592   6.069  0.1144  0.1310  0.1402
  183SOPE   C2120904   6.722   5.489   5.993  0.3006 -0.1463  0.1869
  183SOPE   O2220905   6.825   5.481   5.935 -0.9286 -0.9985  0.4749
  183SOPE   C2220906   6.628   5.372   6.019 -0.2293  0.4057 -0.3039
  183SOPE   H2R20907   6.626   5.313   5.925 -0.8598  0.4097 -0.2994
  183SOPE   H2S20908   6.527   5.413   6.043 -1.6993 -2.6519 -0.7066
  183SOPE    C320909   6.719   5.804   6.169 -0.6603 -0.1147 -0.3353
  183SOPE    HX20910   6.618   5.846   6.150 -0.4767 -0.3030 -1.9030
  183SOPE    HY20911   6.798   5.883   6.174  1.8484 -2.4805  0.0284
  183SOPE   O3120912   6.697   5.743   6.298  0.0027  1.0457  0.4279
  183SOPE   C3120913   6.808   5.741   6.371  0.3656 -0.1635 -0.1593
  183SOPE   O3220914   6.922   5.765   6.338  0.0190 -0.0227 -0.3306
  183SOPE   C3220915   6.755   5.688   6.506 -0.4847  0.1472  0.6882
  183SOPE   H2X20916   6.749   5.579   6.488  1.8657  0.4217 -2.5432
  183SOPE   H2Y20917   6.656   5.738   6.520 -0.0110  1.0672  0.8205
  183SOPE   C2320918   6.690   5.287   6.128  0.5291  0.0347 -0.2495
  183SOPE   H3R20919   6.800   5.280   6.116  0.2636 -0.3641 -3.0634
  183SOPE   H3S20920   6.643   5.187   6.119  1.6195 -0.3306 -2.5571
  183SOPE   C2420921   6.663   5.348   6.268 -0.3663  0.0598  0.0626
  183SOPE   H4R20922   6.703   5.449   6.293 -0.4904 -0.0965  0.9435
  183SOPE   H4S20923   6.553   5.357   6.269 -0.3767 -0.0787  0.9969
  183SOPE   C2520924   6.708   5.251   6.375  0.0175  0.3943  0.4962
  183SOPE   H5R20925   6.704   5.146   6.338  1.5444  0.7734 -0.8850
  183SOPE   H5S20926   6.817   5.273   6.383 -0.4698  3.3464 -0.0359
  183SOPE   C2620927   6.653   5.280   6.513  0.0847 -0.1798  0.0328
  183SOPE   H6R20928   6.666   5.389   6.533 -1.7518  0.0749 -0.0742
  183SOPE   H6S20929   6.545   5.256   6.516 -0.3485  1.5057 -0.8515
  183SOPE   C2720930   6.740   5.207   6.620  1.0649 -0.1840  0.4008
  183SOPE   H7R20931   6.731   5.100   6.593  0.3094  0.1353 -0.6690
  183SOPE   H7S20932   6.847   5.221   6.594  0.5245  1.3501 -1.1920
  183SOPE   C2820933   6.686   5.223   6.766  0.2670  0.3394  0.1329
  183SOPE   H8R20934   6.708   5.323   6.808  1.1820  0.5629 -0.8143
  183SOPE   H8S20935   6.578   5.200   6.756 -0.7855  0.7633  6.3970
  183SOPE   C2920936   6.728   5.107   6.855  0.0089  0.3167 -0.0980
  183SOPE   H9120937   6.751   5.018   6.796  0.2483 -1.7241  2.8454
  183SOPE  C21020938   6.741   5.112   6.985  0.3568 -0.0632 -0.2931
  183SOPE  H10120939   6.783   5.022   7.032 -0.6614 -0.0232  0.7351
  183SOPE  C21120940   6.715   5.225   7.073  0.2393  0.9835 -0.3234
  183SOPE  H11R20941   6.664   5.184   7.162  0.0979  1.0588 -0.3690
  183SOPE  H11S20942   6.649   5.304   7.031 -0.3564  0.1398 -1.0012
  183SOPE  C21220943   6.840   5.291   7.134  0.0349 -0.4246  0.5397
  183SOPE  H12R20944   6.810   5.376   7.200  0.2398 -0.4178  0.6227
  183SOPE  H12S20945   6.903   5.343   7.059  0.8041 -0.1232  1.3658
  183SOPE  C21320946   6.927   5.200   7.226 -0.0086 -0.3459 -0.4065
  183SOPE  H13R20947   6.945   5.110   7.164 -1.0043 -0.2075 -0.9252
  183SOPE  H13S20948   6.867   5.173   7.315 -2.3053  0.8704 -1.4908
  183SOPE  C21420949   7.051   5.272   7.286  0.6672  0.2049 -0.5947
  183SOPE  H14R20950   7.051   5.383   7.290  1.2899  0.2395 -1.3596
  183SOPE  H14S20951   7.140   5.275   7.219  2.6565 -0.6523  1.8324
  183SOPE  C21520952   7.102   5.227   7.431  0.0976 -0.7067 -0.4171
  183SOPE  H15R20953   7.073   5.123   7.456 -0.9514 -0.2518  0.3014
  183SOPE  H15S20954   7.048   5.274   7.515 -1.6572 -2.8180 -0.3028
  183SOPE  C21620955   7.258   5.238   7.446 -0.6370 -0.1973  0.1418
  183SOPE  H16R20956   7.321   5.220   7.356  0.3275 -0.9773  0.9441
  183SOPE  H16S20957   7.303   5.175   7.526  0.7770  1.1583  0.4468
  183SOPE  C21720958   7.291   5.389   7.482  0.0947  0.9670  1.2065
  183SOPE  H17R20959   7.207   5.446   7.525  0.4101  1.5666  1.0419
  183SOPE  H17S20960   7.331   5.447   7.396  1.3635 -0.6504  0.6375
  183SOPE  C21820961   7.405   5.383   7.577  0.3510  0.6879 -1.2601
  183SOPE  H18R20962   7.374   5.348   7.677 -0.3791  0.7134 -1.4750
  183SOPE  H18S20963   7.442   5.488   7.575 -0.2744  1.0371  1.8099
  183SOPE  H18T20964   7.489   5.316   7.545 -1.5911 -1.1328 -2.8620
  183SOPE   C3320965   6.842   5.713   6.638 -0.0171 -1.2077 -0.1849
  183SOPE   H3X20966   6.947   5.679   6.624 -0.2541 -1.2682 -2.1002
  183SOPE   H3Y20967   6.793   5.652   6.716 -1.7219  0.2785 -0.0141
  183SOPE   C3420968   6.837   5.862   6.681  0.0467 -0.4238  0.2964
  183SOPE   H4X20969   6.734   5.903   6.685  1.1952  2.9357 -1.0786
  183SOPE   H4Y20970   6.886   5.914   6.596  1.2480 -0.0235  1.1850
  183SOPE   C3520971   6.914   5.889   6.811 -0.2764  0.4396 -0.2746
  183SOPE   H5X20972   6.904   5.997   6.831 -0.7690  0.2892  0.3077
  183SOPE   H5Y20973   7.022   5.862   6.801 -0.4025 -2.5237  3.8015
  183SOPE   C3620974   6.861   5.810   6.928 -0.0976  0.8079 -0.2797
  183SOPE   H6X20975   6.920   5.838   7.017  1.5868 -1.0262 -0.7445
  183SOPE   H6Y20976   6.892   5.706   6.906 -2.2750  0.3216 -1.3168
  183SOPE   C3720977   6.713   5.815   6.967 -0.1653 -0.3122 -0.3156
  183SOPE   H7X20978   6.656   5.785   6.877 -0.2925  0.7688 -0.6113
  183SOPE   H7Y20979   6.706   5.923   6.990  2.4420 -0.2327  0.4547
  183SOPE   C3820980   6.693   5.735   7.093 -0.3287 -0.7700 -0.6113
  183SOPE   H8X20981   6.745   5.782   7.179 -1.5602 -1.0504  0.3154
  183SOPE   H8Y20982   6.727   5.631   7.072 -1.7259 -1.1549 -1.0781
  183SOPE   C3920983   6.538   5.747   7.134  0.7104  0.1282 -0.5821
  183SOPE   H9X20984   6.478   5.682   7.067  0.2547  0.2372 -0.2863
  183SOPE   H9Y20985   6.511   5.851   7.107 -0.5332 -0.0803 -0.2214
  183SOPE  C31020986   6.511   5.734   7.287  0.1408 -0.1569  0.4732
  183SOPE  H10X20987   6.557   5.821   7.338  0.8421  0.5855 -1.3363
  183SOPE  H10Y20988   6.561   5.644   7.326  0.2899 -0.4706 -0.4139
  183SOPE  C31120989   6.359   5.720   7.313 -0.2199  0.3102 -0.5193
  183SOPE  H11X20990   6.326   5.617   7.289 -1.7456  0.6467  0.0417
  183SOPE  H11Y20991   6.294   5.784   7.249 -0.4044  0.3727 -0.2712
  183SOPE  C31220992   6.329   5.745   7.461 -0.1415  0.4125  0.3587
  183SOPE  H12X20993   6.348   5.853   7.480 -0.6049  0.2936  1.5937
  183SOPE  H12Y20994   6.394   5.685   7.527 -2.1583 -2.1460  0.1663
  183SOPE  C31320995   6.189   5.718   7.503  0.6355 -0.1798  0.6629
  183SOPE  H13X20996   6.115   5.770   7.438 -3.0404 -1.8383  3.1313
  183SOPE  H13Y20997   6.171   5.760   7.604  0.0542 -0.0825  0.5236
  183SOPE  C31420998   6.135   5.569   7.497  0.2501 -0.0007 -0.0180
  183SOPE  H14X20999   6.163   5.528   7.397 -1.7467 -2.5103  0.3478
  183SOPE  H14Y21000   6.024   5.564   7.498  0.3025 -2.0226 -0.0061
  183SOPE  C31521001   6.194   5.500   7.620 -0.8986  0.5896 -0.0261
  183SOPE  H15X21002   6.129   5.517   7.709 -0.8055 -2.1371  0.6561
  183SOPE  H15Y21003   6.299   5.525   7.645 -0.3648 -1.6387  0.2220
  183SOPE  C31621004   6.199   5.346   7.590  0.3007 -0.4991  1.0929
  183SOPE  H16X21005   6.286   5.303   7.644  1.1715  0.3196  0.3725
  183SOPE  H16Y21006   6.212   5.328   7.482 -0.9869 -0.2697  0.8823
  183SOPE  C31721007   6.081   5.265   7.652 -0.1907  0.0008  0.3387
  183SOPE  H17X21008   5.996   5.266   7.580 -0.4462  1.4278  0.6235
  183SOPE  H17Y21009   6.058   5.313   7.750  2.2362  0.9730  0.4944
  183SOPE  C31821010   6.119   5.114   7.694  0.0836 -0.1975  0.3577
  183SOPE  H18X21011   6.039   5.085   7.767 -1.3084  1.2729 -0.5126
  183SOPE  H18Y21012   6.218   5.112   7.745 -0.6863 -0.6072  1.9124
  183SOPE  H18Z21013   6.107   5.034   7.618  0.0971 -0.1169  0.2707
  184SOPE     N21014   5.184   7.013   5.563  0.4960 -0.3960 -0.0202
  184SOPE   HN121015   5.264   7.041   5.502  0.3070  3.0537  1.1263
  184SOPE   HN221016   5.210   6.928   5.617  1.1958  0.4175  0.9648
  184SOPE   HN321017   5.109   6.993   5.493 -0.0443  0.0451  0.4322
  184SOPE   C1221018   5.161   7.125   5.655 -0.0062 -0.7094 -0.7259
  184SOPE  H12A21019   5.153   7.213   5.588 -1.7922 -2.1579 -2.5436
  184SOPE  H12B21020   5.245   7.137   5.727 -0.8507  2.0169 -0.0771
  184SOPE   C1121021   5.036   7.108   5.739  0.7638  0.2657  0.4432
  184SOPE  H11A21022   5.013   7.182   5.819  2.1955  1.6571 -0.3510
  184SOPE  H11B21023   5.046   7.007   5.784  3.7235  0.3358  0.1222
  184SOPE     P21024   4.849   6.972   5.617  0.2905  0.2164  0.1149
  184SOPE   O1321025   4.929   6.878   5.531  0.3168 -0.0949 -0.2316
  184SOPE   O1421026   4.718   7.014   5.558  0.4062  0.5011 -0.0232
  184SOPE   O1221027   4.928   7.098   5.640  0.0445 -0.0942  0.1224
  184SOPE   O1121028   4.816   6.908   5.762 -0.4363  0.2547 -0.1440
  184SOPE    C121029   4.749   6.989   5.863 -0.3500 -0.0194 -0.1203
  184SOPE    HA21030   4.741   7.097   5.839 -0.6236  0.2032  0.9111
  184SOPE    HB21031   4.805   6.984   5.959 -1.8724 -1.7964  0.7497
  184SOPE    C221032   4.598   6.961   5.897 -0.0821  0.3543  0.1729
  184SOPE    HS21033   4.546   6.984   5.802 -0.8187 -0.2876  0.4118
  184SOPE   O2121034   4.571   7.057   5.998  0.1407 -0.3682 -0.1614
  184SOPE   C2121035   4.447   7.089   6.013 -0.1749  0.2391  0.1290
  184SOPE   O2221036   4.353   7.035   5.949  0.5517  0.2653 -0.4215
  184SOPE   C2221037   4.432   7.189   6.118  0.2296  0.5100 -0.4602
  184SOPE   H2R21038   4.399   7.281   6.065 -0.8356 -1.2477 -3.0783
  184SOPE   H2S21039   4.535   7.209   6.155 -0.6055  1.1035  1.6570
  184SOPE    C321040   4.562   6.817   5.940  0.2013 -0.4449  0.9497
  184SOPE    HX21041   4.611   6.746   5.871 -0.3922 -0.6166  0.6939
  184SOPE    HY21042   4.452   6.801   5.940 -0.2986  2.4943  0.2582
  184SOPE   O3121043   4.629   6.787   6.059  0.3792 -0.8626  0.1471
  184SOPE   C3121044   4.563   6.723   6.152 -0.2480 -0.1200 -0.4815
  184SOPE   O3221045   4.449   6.686   6.143  0.2552  0.4640 -0.2915
  184SOPE   C3221046   4.649   6.733   6.277  0.0425 -0.2556  0.5180
  184SOPE   H2X21047   4.620   6.821   6.338 -1.2219 -0.4261  0.1832
  184SOPE   H2Y21048   4.756   6.743   6.249 -0.1095  0.8904  0.2859
  184SOPE   C2321049   4.324   7.141   6.224  0.2356 -0.2959  0.5619
  184SOPE   H3R21050   4.241   7.095   6.166  0.6528  2.4921 -2.5778
  184SOPE   H3S21051   4.282   7.229   6.278  4.3856  3.2986 -1.4437
  184SOPE   C2421052   4.382   7.049   6.332  0.5754  0.4820 -0.5145
  184SOPE   H4R21053   4.299   6.983   6.366  0.1610  0.9110 -0.6771
  184SOPE   H4S21054   4.454   6.973   6.297 -1.3673 -1.2135 -1.0453
  184SOPE   C2521055   4.440   7.109   6.458 -0.4928  0.0743  0.1869
  184SOPE   H5R21056   4.485   7.035   6.528  3.0171  3.0650  1.4460
  184SOPE   H5S21057   4.530   7.159   6.415 -1.0954  0.1125 -1.0833
  184SOPE   C2621058   4.342   7.199   6.536 -0.4082  0.5480  1.0173
  184SOPE   H6R21059   4.404   7.248   6.614 -0.3495 -1.9690  2.6828
  184SOPE   H6S21060   4.303   7.280   6.471 -0.2912  0.1707  0.4679
  184SOPE   C2721061   4.236   7.122   6.617  0.1919 -0.5668  0.3000
  184SOPE   H7R21062   4.168   7.089   6.536 -0.2033  0.8529  0.0265
  184SOPE   H7S21063   4.271   7.028   6.665  0.8665 -1.1489 -1.2719
  184SOPE   C2821064   4.149   7.196   6.720  0.3421 -0.6549 -0.1541
  184SOPE   H8R21065   4.088   7.283   6.688  2.3432  1.1560  0.7394
  184SOPE   H8S21066   4.077   7.116   6.747 -0.4428  0.0706 -0.0543
  184SOPE   C2921067   4.236   7.224   6.839  0.3111  0.3439 -0.6064
  184SOPE   H9121068   4.335   7.255   6.803  0.4073  0.0140 -0.6220
  184SOPE  C21021069   4.214   7.187   6.967  0.0866 -0.5375 -0.1226
  184SOPE  H10121070   4.294   7.184   7.042 -1.6404  0.1193  1.8484
  184SOPE  C21121071   4.085   7.119   7.012  0.3186  0.7937 -0.6601
  184SOPE  H11R21072   4.104   7.010   7.016  3.8994  1.3398  0.9327
  184SOPE  H11S21073   4.000   7.146   6.945  1.1703  0.4038 -1.9399
  184SOPE  C21221074   4.040   7.162   7.156 -0.0339 -0.2042  0.5557
  184SOPE  H12R21075   4.050   7.273   7.156 -1.3073 -0.0467 -1.2142
  184SOPE  H12S21076   4.111   7.134   7.237 -0.6655  0.3513  1.3071
  184SOPE  C21321077   3.904   7.108   7.187 -0.4371 -0.0350 -0.2080
  184SOPE  H13R21078   3.900   6.997   7.176  1.3450 -0.2404  0.8105
  184SOPE  H13S21079   3.826   7.162   7.129 -1.7231 -0.4750  1.0470
  184SOPE  C21421080   3.880   7.124   7.339 -0.0917 -0.3172  0.1038
  184SOPE  H14R21081   3.898   7.229   7.369  0.5573 -0.5134  0.4168
  184SOPE  H14S21082   3.953   7.074   7.406  2.5515  2.9870 -0.0617
  184SOPE  C21521083   3.735   7.095   7.380 -0.5698 -0.9366  0.0017
  184SOPE  H15R21084   3.716   6.986   7.370 -0.1653 -1.1420  1.3214
  184SOPE  H15S21085   3.670   7.153   7.311  0.0795 -1.2109 -0.8519
  184SOPE  C21621086   3.697   7.131   7.526 -0.3171  1.2222  0.3198
  184SOPE  H16R21087   3.589   7.109   7.538  0.2531 -1.2694  1.5071
  184SOPE  H16S21088   3.716   7.239   7.548 -0.1938  1.1285  0.6875
  184SOPE  C21721089   3.769   7.046   7.633  0.4417  0.2795  0.3521
  184SOPE  H17R21090   3.876   7.076   7.632 -0.5056  4.2975 -1.1401
  184SOPE  H17S21091   3.777   6.939   7.603  2.6934  0.9653 -1.8154
  184SOPE  C21821092   3.704   7.059   7.771 -0.2936  0.1865  1.1993
  184SOPE  H18R21093   3.661   7.161   7.775  1.1605  0.8574  0.4403
  184SOPE  H18S21094   3.784   7.047   7.847 -0.5191 -1.3793  1.2242
  184SOPE  H18T21095   3.622   6.984   7.781 -1.2094  0.9856  0.0672
  184SOPE   C3321096   4.620   6.603   6.354  0.0672 -0.2850 -0.6107
  184SOPE   H3X21097   4.721   6.574   6.388 -0.3261 -0.6459  0.2853
  184SOPE   H3Y21098   4.586   6.514   6.296 -0.6495 -0.5150  0.1320
  184SOPE   C3421099   4.546   6.644   6.488 -0.4157 -0.0722  0.3340
  184SOPE   H4X21100   4.591   6.732   6.539 -1.2468 -0.3262  1.5469
  184SOPE   H4Y21101   4.551   6.556   6.556  1.5348 -1.9137 -1.9930
  184SOPE   C3521102   4.393   6.659   6.463 -0.1296 -0.4425  0.3601
  184SOPE   H5X21103   4.354   6.557   6.438  0.9912 -0.7907 -0.0272
  184SOPE   H5Y21104   4.371   6.719   6.373 -0.2070 -0.6395  0.2452
  184SOPE   C3621105   4.315   6.722   6.569 -0.5268  0.2971  0.1854
  184SOPE   H6X21106   4.206   6.712   6.550 -0.7086 -0.9223  1.6823
  184SOPE   H6Y21107   4.349   6.828   6.560  1.6354 -0.4193 -0.6431
  184SOPE   C3721108   4.357   6.668   6.707  0.4440 -0.0271  0.2209
  184SOPE   H7X21109   4.467   6.658   6.723  0.4896  1.6792  1.1982
  184SOPE   H7Y21110   4.327   6.561   6.705  0.1873  0.0472 -1.2722
  184SOPE   C3821111   4.275   6.742   6.817  0.3023  0.8684 -0.1338
  184SOPE   H8X21112   4.167   6.737   6.789 -0.1539 -2.0666  1.7218
  184SOPE   H8Y21113   4.300   6.850   6.813  1.3087  0.6290 -0.4402
  184SOPE   C3921114   4.294   6.694   6.958  0.1598 -0.3729 -1.0435
  184SOPE   H9X21115   4.404   6.699   6.973  0.3228  0.5597 -2.3702
  184SOPE   H9Y21116   4.251   6.592   6.953 -0.1719 -0.3678  1.0600
  184SOPE  C31021117   4.224   6.776   7.069  0.4933  0.8333 -0.3122
  184SOPE  H10X21118   4.121   6.795   7.034  0.2204 -1.9624 -1.3007
  184SOPE  H10Y21119   4.267   6.878   7.064  0.1191  1.0018 -0.0976
  184SOPE  C31121120   4.217   6.704   7.209  0.1885 -0.2512  0.6861
  184SOPE  H11X21121   4.323   6.691   7.240 -0.1326 -0.3275  1.7674
  184SOPE  H11Y21122   4.164   6.607   7.200 -1.6206  0.5953  1.8221
  184SOPE  C31221123   4.152   6.796   7.318  0.1098 -0.1398 -0.1662
  184SOPE  H12X21124   4.048   6.829   7.297 -1.6342 -2.9754  2.8717
  184SOPE  H12Y21125   4.219   6.884   7.325  1.4767 -1.0471 -1.2709
  184SOPE  C31321126   4.158   6.727   7.458  0.8650 -0.7613  0.2670
  184SOPE  H13X21127   4.264   6.703   7.482  0.8339 -1.3947 -0.1792
  184SOPE  H13Y21128   4.105   6.630   7.451 -0.4244 -0.0597  0.0067
  184SOPE  C31421129   4.104   6.813   7.571  0.5476  0.1124 -0.4188
  184SOPE  H14X21130   3.997   6.839   7.550  0.0035 -0.4390  1.4993
  184SOPE  H14Y21131   4.166   6.905   7.579  3.0422 -1.5487  0.3111
  184SOPE  C31521132   4.104   6.747   7.711  0.2032 -0.5402  0.5096
  184SOPE  H15X21133   4.199   6.705   7.750  0.7970  2.0032  2.0194
  184SOPE  H15Y21134   4.036   6.659   7.704 -0.9967  0.5002 -2.3998
  184SOPE  C31621135   4.050   6.852   7.806  0.1420  0.0773  0.8763
  184SOPE  H16X21136   3.950   6.884   7.768  0.2557  0.2957  0.7628
  184SOPE  H16Y21137   4.114   6.942   7.813 -0.6586  0.6889  0.5963
  184SOPE  C31721138   4.042   6.796   7.941 -0.1484 -0.0475  1.2204
  184SOPE  H17X21139   4.027   6.685   7.940 -0.2982 -0.0794 -1.5351
  184SOPE  H17Y21140   3.959   6.850   7.990 -0.3019 -1.2926  2.3917
  184SOPE  C31821141   4.168   6.817   8.023 -0.0989  0.1150 -0.0580
  184SOPE  H18X21142   4.168   6.919   8.065  1.0238  0.1088 -0.0319
  184SOPE  H18Y21143   4.260   6.795   7.965 -0.6003 -1.4319 -0.3327
  184SOPE  H18Z21144   4.169   6.756   8.116 -0.1858  4.2676  2.9123
  185SAPI   C1221145   5.502   2.048   9.783 -0.5578 -0.5568 -0.2374
  185SAPI    H221146   5.448   2.113   9.711  2.9104  1.4176 -1.3294
  185SAPI    O221147   5.428   2.026   9.899 -0.1780  0.1134 -0.5488
  185SAPI   HO221148   5.394   2.106   9.940  0.0553 -0.0092 -0.1136
  185SAPI   C1321149   5.543   1.931   9.703 -0.5302 -0.0398  0.1996
  185SAPI    H321150   5.597   1.971   9.615  0.2647  0.6210  0.9755
  185SAPI    O321151   5.431   1.858   9.647  0.0092 -0.0885 -0.4933
  185SAPI   HO321152   5.471   1.773   9.631 -0.5891 -0.8106  1.5626
  185SAPI   C1421153   5.647   1.851   9.787 -0.6990 -0.3286  0.1489
  185SAPI    H421154   5.587   1.825   9.878 -1.6413  0.2097 -0.2991
  185SAPI    O421155   5.676   1.726   9.731 -0.6222 -0.2485  0.0330
  185SAPI   HO421156   5.711   1.671   9.801 -0.3074  0.9252  0.8313
  185SAPI   C1521157   5.762   1.934   9.840  0.3412 -1.0876  0.3474
  185SAPI    H521158   5.827   1.963   9.755 -0.3383 -0.0065  0.1660
  185SAPI    O521159   5.840   1.859   9.937 -0.0106  0.6276  0.8687
  185SAPI   HO521160   5.932   1.868   9.913 -0.2621  0.6878 -0.1170
  185SAPI   C1621161   5.722   2.063   9.904  0.2670 -0.5754 -0.4245
  185SAPI    H621162   5.670   2.043  10.000  1.4249 -0.4874  0.2391
  185SAPI    O621163   5.826   2.157   9.929  0.0752  0.4736  0.0882
  185SAPI   HO621164   5.836   2.203   9.846  1.2273 -0.0126 -0.0618
  185SAPI   C1121165   5.627   2.135   9.815  0.3394 -0.8384 -0.2167
  185SAPI    H121166   5.667   2.162   9.714 -0.9024 -0.1411 -0.5518
  185SAPI     P21167   5.598   2.404   9.830  0.3334 -0.0154 -0.6318
  185SAPI   O1321168   5.728   2.403   9.755  0.2290 -0.2300 -0.5737
  185SAPI   O1421169   5.588   2.475   9.963 -0.2982  0.2124 -0.3441
  185SAPI   O1221170   5.571   2.251   9.871 -0.0417  1.0700 -0.2726
  185SAPI   O1121171   5.477   2.461   9.738  0.5233 -0.0155 -0.2312
  185SAPI    C121172   5.471   2.399   9.611 -0.0509  0.0721 -0.0190
  185SAPI    HA21173   5.567   2.376   9.558 -0.5557  1.6289 -1.7300
  185SAPI    HB21174   5.412   2.305   9.614 -0.2120  0.1839  2.1004
  185SAPI    C221175   5.394   2.499   9.526  0.1316 -0.7420 -0.1730
  185SAPI    HS21176   5.302   2.525   9.583  0.2030  0.4854 -0.5879
  185SAPI   O2121177   5.351   2.433   9.404  0.1911 -0.0985  0.2540
  185SAPI   C2121178   5.260   2.494   9.321  0.2972  0.3425 -0.3612
  185SAPI   O2221179   5.203   2.596   9.344 -0.6035 -0.1132  0.2191
  185SAPI   C2221180   5.256   2.412   9.193  0.1417  0.0702 -0.6089
  185SAPI   H2R21181   5.323   2.323   9.196  0.5145  0.3708  0.5520
  185SAPI   H2S21182   5.156   2.371   9.169  0.6890 -1.1231 -0.9419
  185SAPI    C321183   5.480   2.625   9.496 -0.6484  1.0419  0.3770
  185SAPI    HX21184   5.511   2.645   9.601 -0.1959 -0.9644  0.6692
  185SAPI    HY21185   5.414   2.703   9.453 -3.7903 -1.4702  0.2821
  185SAPI   O3121186   5.593   2.596   9.409  0.1673 -0.0463  0.5163
  185SAPI   C3121187   5.677   2.698   9.395 -0.1585 -0.2161  0.0465
  185SAPI   O3221188   5.671   2.801   9.462 -0.3902 -0.4352 -0.0496
  185SAPI   C3221189   5.783   2.669   9.285 -0.4844  0.0197  0.1397
  185SAPI   H2X21190   5.781   2.560   9.268 -0.4236 -0.2454  1.6779
  185SAPI   H2Y21191   5.883   2.679   9.334 -0.5688 -0.1016  0.3372
  185SAPI   C2321192   5.307   2.503   9.082  0.1647 -0.7049 -0.0956
  185SAPI   H3R21193   5.253   2.600   9.083  0.1353 -0.6519 -2.0416
  185SAPI   H3S21194   5.293   2.459   8.981  0.9481  0.5629 -0.7846
  185SAPI   C2421195   5.463   2.531   9.088  0.6515  0.0342 -0.1821
  185SAPI   H4R21196   5.477   2.570   9.191  0.0924 -1.5870  0.5491
  185SAPI   H4S21197   5.479   2.619   9.023  0.6154 -1.1823 -1.9099
  185SAPI   C2521198   5.564   2.429   9.053  0.0021  0.3064  0.0277
  185SAPI   H5R21199   5.615   2.389   9.142 -2.2036 -0.1156  1.1764
  185SAPI   C2621200   5.599   2.380   8.933 -0.3709  0.0686 -0.1468
  185SAPI   H6R21201   5.690   2.319   8.934 -0.4462 -0.0598  1.0219
  185SAPI   C2721202   5.544   2.406   8.794 -0.4633  0.5289 -0.5003
  185SAPI   H7R21203   5.448   2.458   8.813 -0.8375 -0.9441  2.1583
  185SAPI   H7S21204   5.523   2.307   8.748  0.4652  0.9647 -1.9566
  185SAPI   C2821205   5.645   2.473   8.712  0.0761 -0.3930 -0.1172
  185SAPI   H8R21206   5.744   2.483   8.757  0.1364 -3.5190  0.6262
  185SAPI   C2921207   5.617   2.519   8.591 -0.2168 -0.4324  0.6177
  185SAPI   H9R21208   5.685   2.587   8.537 -1.3684  0.6487  0.4588
  185SAPI  C21021209   5.489   2.508   8.510  0.1294 -0.5019  0.3530
  185SAPI  H10R21210   5.485   2.590   8.435  1.8320  0.1960  0.9838
  185SAPI  H10S21211   5.396   2.527   8.567  0.0373  2.8733 -0.7412
  185SAPI  C21121212   5.475   2.377   8.446  0.2106 -0.6296  0.2193
  185SAPI  H11R21213   5.458   2.299   8.522 -2.2950 -0.8982 -0.5278
  185SAPI  C21221214   5.451   2.357   8.317  0.4166 -0.6166  0.2042
  185SAPI  H12R21215   5.424   2.254   8.292  1.3578 -1.0184  0.8008
  185SAPI  C21321216   5.450   2.457   8.203 -0.2888 -0.1559 -0.5876
  185SAPI  H13R21217   5.471   2.407   8.106  1.6256  3.0293 -1.9648
  185SAPI  H13S21218   5.532   2.530   8.221 -0.8456  0.4327 -0.3914
  185SAPI  C21421219   5.319   2.536   8.191 -0.4201 -0.2020 -0.1939
  185SAPI  H14R21220   5.230   2.473   8.206  2.2154 -4.3840 -0.5523
  185SAPI  C21521221   5.321   2.668   8.171 -0.4411 -0.7958 -0.0556
  185SAPI  H15R21222   5.223   2.714   8.152 -0.9863 -0.5853  2.8080
  185SAPI  C21621223   5.442   2.764   8.148  1.3419  0.1115 -0.0494
  185SAPI  H16R21224   5.509   2.748   8.235  1.5409  1.1190 -0.0088
  185SAPI  H16S21225   5.408   2.869   8.143 -0.4622 -0.4714 -0.9560
  185SAPI  C21721226   5.513   2.737   8.014 -0.0181 -0.0220 -0.8869
  185SAPI  H17R21227   5.519   2.626   8.001  0.3250 -0.0922 -0.1719
  185SAPI  H17S21228   5.619   2.772   8.018  0.5473 -1.7490  2.6016
  185SAPI  C21821229   5.461   2.806   7.888 -0.4980  0.0071 -0.8612
  185SAPI  H18R21230   5.428   2.908   7.913  0.9016  0.2011  0.3342
  185SAPI  H18S21231   5.370   2.748   7.862 -0.4735 -0.1934 -0.5037
  185SAPI  C21921232   5.552   2.806   7.762  0.4527  0.5969 -0.4987
  185SAPI  H19R21233   5.471   2.814   7.687 -1.4472 -0.6463  1.2900
  185SAPI  H19S21234   5.606   2.711   7.745  1.7859  0.1344  4.5494
  185SAPI  C22021235   5.650   2.920   7.756  0.1962 -0.0951  0.1763
  185SAPI  H20R21236   5.598   3.018   7.745 -0.0761  0.0292  2.1268
  185SAPI  H20S21237   5.713   2.894   7.668 -0.5022 -0.7479 -0.1440
  185SAPI  H20T21238   5.705   2.935   7.851 -0.1895  3.9140 -0.0312
  185SAPI   C3321239   5.768   2.747   9.156 -0.3732  0.0302  0.2104
  185SAPI   H3X21240   5.755   2.856   9.177  0.7187 -0.0173  1.1707
  185SAPI   H3Y21241   5.669   2.709   9.123 -0.8876  1.0005  0.5690
  185SAPI   C3421242   5.874   2.723   9.049 -0.2096  0.1728  0.3473
  185SAPI   H4X21243   5.895   2.614   9.041 -0.0073  0.1518  1.1048
  185SAPI   H4Y21244   5.965   2.769   9.093  0.3592 -1.8717  1.4679
  185SAPI   C3521245   5.831   2.781   8.915 -0.3497 -0.1907 -0.2322
  185SAPI   H5X21246   5.798   2.882   8.949 -1.0441 -0.7340  0.7870
  185SAPI   H5Y21247   5.745   2.719   8.883 -0.1923 -1.9275  2.3690
  185SAPI   C3621248   5.951   2.783   8.821 -0.3833 -0.3888 -0.5041
  185SAPI   H6X21249   5.980   2.678   8.804  1.5925 -0.0714  0.6135
  185SAPI   H6Y21250   6.042   2.827   8.868 -1.4003  0.3839  0.8384
  185SAPI   C3721251   5.913   2.859   8.692  0.0234  0.4461  0.5451
  185SAPI   H7X21252   5.903   2.968   8.713  3.3491  0.9541  0.0067
  185SAPI   H7Y21253   5.812   2.830   8.654 -0.3542  2.0536  0.2557
  185SAPI   C3821254   6.008   2.832   8.573 -0.1044  0.1434 -0.6958
  185SAPI   H8X21255   5.988   2.724   8.554  0.7560 -0.4714  1.5127
  185SAPI   H8Y21256   6.117   2.842   8.594  0.3430 -5.0291  1.0137
  185SAPI   C3921257   5.973   2.911   8.451 -0.3973 -0.3860  0.2764
  185SAPI   H9X21258   6.033   2.870   8.366 -1.5963 -0.5720 -0.5092
  185SAPI   H9Y21259   5.996   3.020   8.450 -0.3371 -0.3922  0.9169
  185SAPI  C31021260   5.833   2.893   8.409  0.1654 -0.3183  0.6438
  185SAPI  H10X21261   5.758   2.949   8.469  0.5740  1.6266 -0.5862
  185SAPI  H10Y21262   5.813   2.783   8.412 -1.4895 -0.1302 -1.1252
  185SAPI  C31121263   5.798   2.945   8.270  0.2946 -0.3359  0.3346
  185SAPI  H11X21264   5.687   2.941   8.258  0.0752  0.1222  1.9694
  185SAPI  H11Y21265   5.847   2.878   8.196 -0.1875 -0.4399  0.1045
  185SAPI  C31221266   5.839   3.087   8.232  0.3072 -0.2106 -0.4152
  185SAPI  H12X21267   5.949   3.100   8.228  0.1607  1.0993 -0.5260
  185SAPI  H12Y21268   5.792   3.156   8.306  1.5178 -0.3929  0.5548
  185SAPI  C31321269   5.798   3.097   8.083 -0.1124  0.3721  0.6074
  185SAPI  H13X21270   5.691   3.079   8.062  0.4238  0.8798 -3.2920
  185SAPI  H13Y21271   5.859   3.018   8.034 -1.2879 -0.8825  1.1375
  185SAPI  C31421272   5.836   3.229   8.022  0.6793  0.1128 -0.1701
  185SAPI  H14X21273   5.934   3.262   8.062 -0.4574  0.0156  2.9925
  185SAPI  H14Y21274   5.769   3.312   8.053 -1.0220 -0.7094 -1.4504
  185SAPI  C31521275   5.846   3.225   7.873  0.3326 -0.4979 -0.1487
  185SAPI  H15X21276   5.848   3.330   7.836  1.0945  0.2978  2.0234
  185SAPI  H15Y21277   5.749   3.178   7.846  0.3944 -1.1629  0.7548
  185SAPI  C31621278   5.977   3.154   7.817 -0.4936  0.1695  0.0338
  185SAPI  H16X21279   5.969   3.045   7.838  1.1717  0.1718  0.9105
  185SAPI  H16Y21280   6.061   3.196   7.877 -0.9427  0.5303  0.4220
  185SAPI  C31721281   6.009   3.167   7.668  0.0237  0.3957  0.2925
  185SAPI  H17X21282   6.110   3.123   7.657 -0.3003 -0.0806 -0.9654
  185SAPI  H17Y21283   6.022   3.275   7.648  0.3770  0.1504 -0.9211
  185SAPI  C31821284   5.904   3.109   7.575  0.4653  0.3047 -0.4167
  185SAPI  H18X21285   5.895   2.999   7.570 -1.5293  0.4845 -2.7654
  185SAPI  H18Y21286   5.927   3.133   7.469  1.6425 -1.0609 -0.5024
  185SAPI  H18Z21287   5.805   3.154   7.598  1.0688  0.6219  1.8815
  186SAPI   C1221288   4.913   0.708   9.889 -0.4537  0.5307 -0.0343
  186SAPI    H221289   5.009   0.759   9.914 -0.4609 -0.3763  1.9606
  186SAPI    O221290   4.939   0.570   9.886 -0.4491  0.1998  0.2884
  186SAPI   HO221291   4.995   0.555   9.810 -0.4159  0.1027  0.3321
  186SAPI   C1321292   4.802   0.747   9.983 -1.0482  0.4277 -0.5634
  186SAPI    H321293   4.790   0.857   9.974 -0.2203  0.7308  1.4575
  186SAPI    O321294   4.846   0.743  10.120  0.0290 -0.1002 -0.0027
  186SAPI   HO321295   4.794   0.808  10.169  0.2219 -0.9514  1.4026
  186SAPI   C1421296   4.671   0.679   9.944  0.0928 -0.6511 -0.4382
  186SAPI    H421297   4.695   0.571   9.939  0.1339 -0.6517 -0.2518
  186SAPI    O421298   4.576   0.703  10.045  0.4581 -0.3214  0.3375
  186SAPI   HO421299   4.503   0.646  10.019  1.1824 -0.6579 -1.0730
  186SAPI   C1521300   4.629   0.719   9.807 -0.1860 -0.3990  0.0948
  186SAPI    H521301   4.591   0.823   9.806 -2.0730 -1.0305  1.0425
  186SAPI    O521302   4.509   0.639   9.770 -0.1119  0.4843  0.1068
  186SAPI   HO521303   4.489   0.660   9.679  0.7888  1.3759  0.0941
  186SAPI   C1621304   4.739   0.687   9.711  0.0647  0.1108  0.2070
  186SAPI    H621305   4.753   0.577   9.705 -0.0187  0.0787  0.5883
  186SAPI    O621306   4.706   0.733   9.574  0.4484  0.2419 -0.7593
  186SAPI   HO621307   4.783   0.732   9.518  1.0629  1.0236  0.0334
  186SAPI   C1121308   4.875   0.750   9.747  0.1618 -0.0214 -0.4699
  186SAPI    H121309   4.856   0.860   9.749  2.2157  0.3665  0.4321
  186SAPI     P21310   5.106   0.795   9.618 -0.2750  0.1638  0.4071
  186SAPI   O1321311   5.209   0.763   9.722 -0.1894  0.0333  0.4526
  186SAPI   O1421312   5.061   0.935   9.603  0.1092  0.6088  0.4685
  186SAPI   O1221313   4.972   0.708   9.649 -0.1803 -0.0301 -0.1274
  186SAPI   O1121314   5.146   0.724   9.483 -0.0533  0.5222 -0.3595
  186SAPI    C121315   5.283   0.683   9.468  0.1841  0.1971 -0.4081
  186SAPI    HA21316   5.351   0.768   9.447  2.8174 -1.1772  1.8220
  186SAPI    HB21317   5.316   0.627   9.558 -2.5166 -0.6695  0.1349
  186SAPI    C221318   5.293   0.573   9.356 -0.0647  0.6744  1.3479
  186SAPI    HS21319   5.394   0.532   9.335 -1.2578 -1.0500 -1.6334
  186SAPI   O2121320   5.247   0.624   9.230  0.2305  0.0603  0.1891
  186SAPI   C2121321   5.304   0.739   9.186 -0.4799  0.7723 -0.1217
  186SAPI   O2221322   5.406   0.787   9.230  0.0800 -0.1756  0.3402
  186SAPI   C2221323   5.225   0.804   9.072 -0.1225  0.4478  0.9885
  186SAPI   H2R21324   5.144   0.861   9.121 -1.0959 -1.2919  1.4697
  186SAPI   H2S21325   5.291   0.879   9.022 -0.6445  2.0414  2.5763
  186SAPI    C321326   5.222   0.445   9.388  0.5811  0.1623 -0.2252
  186SAPI    HX21327   5.118   0.454   9.425 -0.0325 -3.3744 -0.8054
  186SAPI    HY21328   5.274   0.411   9.481 -1.3087  1.8229  1.5425
  186SAPI   O3121329   5.228   0.351   9.276  0.0576 -0.1301 -0.0719
  186SAPI   C3121330   5.127   0.356   9.183  0.4761 -0.2996 -0.4367
  186SAPI   O3221331   5.025   0.419   9.203 -0.0026  0.3511 -0.1504
  186SAPI   C3221332   5.163   0.270   9.063 -0.6327 -0.6139  0.2448
  186SAPI   H2X21333   5.212   0.172   9.081 -1.3222 -1.0965 -0.4249
  186SAPI   H2Y21334   5.234   0.333   9.005 -0.6832 -0.8884 -0.1156
  186SAPI   C2321335   5.173   0.702   8.968 -0.1165  0.0468 -0.5331
  186SAPI   H3R21336   5.137   0.744   8.872  0.3237 -0.3216 -0.8660
  186SAPI   H3S21337   5.089   0.641   9.008  0.6344  0.3243  1.5530
  186SAPI   C2421338   5.284   0.613   8.925  0.1422 -0.7493 -0.2176
  186SAPI   H4R21339   5.222   0.526   8.893  0.4249 -1.5783  1.3874
  186SAPI   H4S21340   5.335   0.556   9.006 -2.8921 -1.9584  0.9923
  186SAPI   C2521341   5.372   0.659   8.806 -0.3378  0.0652 -0.2264
  186SAPI   H5R21342   5.469   0.705   8.831  0.3303 -1.0034 -0.7791
  186SAPI   C2621343   5.331   0.659   8.676 -0.6214 -0.1481  0.2221
  186SAPI   H6R21344   5.413   0.668   8.603  0.1776  1.5584  1.2722
  186SAPI   C2721345   5.199   0.610   8.622 -0.1232  0.1043  0.0083
  186SAPI   H7R21346   5.146   0.700   8.584  0.9388  1.5030  1.6884
  186SAPI   H7S21347   5.132   0.570   8.702 -2.3698 -0.6718 -2.1238
  186SAPI   C2821348   5.207   0.496   8.525 -0.0693  0.3927  0.1400
  186SAPI   H8R21349   5.274   0.416   8.559 -1.1975  0.4784  2.8259
  186SAPI   C2921350   5.146   0.485   8.404 -0.3666  0.3535  0.5524
  186SAPI   H9R21351   5.176   0.403   8.337  0.8021  0.4704  0.9116
  186SAPI  C21021352   5.042   0.577   8.346 -0.8056  0.1504 -0.3357
  186SAPI  H10R21353   4.976   0.596   8.433 -0.2472 -1.9631  0.6146
  186SAPI  H10S21354   4.973   0.523   8.277 -1.2199  1.5990 -1.1100
  186SAPI  C21121355   5.089   0.708   8.292 -0.3189 -0.3388 -0.2450
  186SAPI  H11R21356   5.189   0.740   8.322  0.4451 -0.0352 -2.8877
  186SAPI  C21221357   5.022   0.789   8.207  0.7031 -0.1286  0.4634
  186SAPI  H12R21358   5.064   0.882   8.167  0.5742  0.6580  2.0935
  186SAPI  C21321359   4.887   0.751   8.149 -0.3063  0.1234  0.4547
  186SAPI  H13R21360   4.810   0.750   8.230 -0.0469  0.2735  0.7043
  186SAPI  H13S21361   4.886   0.645   8.116 -0.5202  0.8150 -1.9853
  186SAPI  C21421362   4.847   0.834   8.025  0.0528  0.0408  0.4457
  186SAPI  H14R21363   4.772   0.913   8.043 -1.7640 -0.3509 -4.1252
  186SAPI  C21521364   4.889   0.813   7.902 -0.8385  0.3186  0.2062
  186SAPI  H15R21365   4.854   0.886   7.827 -2.3598  0.0799  0.6397
  186SAPI  C21621366   4.988   0.726   7.838  0.9553  0.1877 -0.7999
  186SAPI  H16R21367   4.984   0.625   7.886 -0.1013  0.9691  0.8399
  186SAPI  H16S21368   5.085   0.764   7.877 -0.3028  0.6444  2.1403
  186SAPI  C21721369   4.993   0.714   7.683  0.1876  0.1124  0.2705
  186SAPI  H17R21370   4.900   0.681   7.632 -1.6767  2.0678  2.1341
  186SAPI  H17S21371   5.071   0.639   7.658  0.5890  0.4462  0.4961
  186SAPI  C21821372   5.040   0.841   7.607  0.6452 -0.1171  0.2563
  186SAPI  H18R21373   5.137   0.881   7.644  1.0637  1.6730 -2.4727
  186SAPI  H18S21374   4.960   0.917   7.613  0.1192 -0.6020 -0.5424
  186SAPI  C21921375   5.071   0.806   7.460  0.1663  0.1110  0.3890
  186SAPI  H19R21376   4.989   0.759   7.403  1.1303 -0.2122 -0.7795
  186SAPI  H19S21377   5.157   0.736   7.460  2.7021  2.9808  0.6300
  186SAPI  C22021378   5.131   0.917   7.376  0.1074 -1.1187  0.6090
  186SAPI  H20R21379   5.171   0.884   7.277 -0.4422  0.0856 -0.0323
  186SAPI  H20S21380   5.215   0.967   7.429 -0.5708 -0.3843  1.0038
  186SAPI  H20T21381   5.055   0.997   7.365  1.9869  1.1068  2.6755
  186SAPI   C3321382   5.042   0.253   8.965 -0.5670 -0.4040 -0.1778
  186SAPI   H3X21383   5.002   0.354   8.942  0.5939 -0.2375 -1.5807
  186SAPI   H3Y21384   4.958   0.197   9.011  1.0960 -2.1318  0.8853
  186SAPI   C3421385   5.092   0.192   8.833  0.0754  0.1916  0.1489
  186SAPI   H4X21386   5.102   0.083   8.852 -0.4420  0.6683  3.8850
  186SAPI   H4Y21387   5.193   0.229   8.806 -0.8052  1.9307 -1.0271
  186SAPI   C3521388   5.000   0.215   8.706 -0.1394 -0.4380 -0.0927
  186SAPI   H5X21389   4.971   0.319   8.684  0.4681 -0.2002  0.1874
  186SAPI   H5Y21390   4.901   0.166   8.721 -1.1023  1.1686 -0.9964
  186SAPI   C3621391   5.079   0.142   8.596 -0.2016 -0.3990 -0.2259
  186SAPI   H6X21392   5.095   0.037   8.631 -2.5117 -0.8303 -0.2697
  186SAPI   H6Y21393   5.177   0.191   8.583 -0.8669  0.9724 -0.2045
  186SAPI   C3721394   5.004   0.125   8.457 -0.3918 -0.2451 -0.1228
  186SAPI   H7X21395   4.936   0.212   8.441  1.4664  1.9741  3.0005
  186SAPI   H7Y21396   4.944   0.035   8.482  0.2915 -0.6613  0.0262
  186SAPI   C3821397   5.100   0.096   8.345 -0.6480 -1.1677 -0.0771
  186SAPI   H8X21398   5.148  -0.003   8.359 -2.8853 -2.0706  2.1197
  186SAPI   H8Y21399   5.184   0.168   8.350 -1.2688 -0.4881  2.5969
  186SAPI   C3921400   5.022   0.117   8.211  0.3666  0.4287  0.0092
  186SAPI   H9X21401   4.984   0.222   8.216 -3.1443 -0.7914  2.9643
  186SAPI   H9Y21402   4.934   0.050   8.210  0.9442 -0.3445 -0.5392
  186SAPI  C31021403   5.115   0.083   8.089 -0.2137  0.1055 -0.4380
  186SAPI  H10X21404   5.034   0.072   8.013 -1.3526  3.0015  0.2139
  186SAPI  H10Y21405   5.159  -0.013   8.124  2.3975  0.0926 -3.3640
  186SAPI  C31121406   5.222   0.184   8.064 -0.2119 -0.0300  0.1898
  186SAPI  H11X21407   5.300   0.130   8.006 -0.2235 -0.1020  0.2416
  186SAPI  H11Y21408   5.261   0.212   8.165  0.1738 -1.2628  0.4052
  186SAPI  C31221409   5.182   0.309   7.988 -0.5041  0.0155  0.0710
  186SAPI  H12X21410   5.112   0.377   8.040 -1.9381  1.0158 -2.9184
  186SAPI  H12Y21411   5.137   0.282   7.890  1.3081 -0.8509 -0.5687
  186SAPI  C31321412   5.310   0.396   7.974  0.4931 -0.4494 -0.6336
  186SAPI  H13X21413   5.369   0.333   7.903  2.5937  0.5169  0.1448
  186SAPI  H13Y21414   5.354   0.408   8.075  1.2152  0.6286 -1.0559
  186SAPI  C31421415   5.288   0.537   7.916  0.1726  0.1009 -0.3642
  186SAPI  H14X21416   5.221   0.591   7.985  1.7790  1.0192  0.5509
  186SAPI  H14Y21417   5.218   0.536   7.830 -1.2096  0.3174  0.7321
  186SAPI  C31521418   5.413   0.622   7.885  0.0673 -0.0076  0.0671
  186SAPI  H15X21419   5.475   0.573   7.807  1.9419  0.6556  1.0746
  186SAPI  H15Y21420   5.475   0.635   7.977  0.6720 -1.9047 -0.0258
  186SAPI  C31621421   5.382   0.765   7.835 -0.6037  0.2367 -0.8138
  186SAPI  H16X21422   5.358   0.828   7.923 -0.2782 -2.6556  1.5073
  186SAPI  H16Y21423   5.292   0.749   7.772  0.2655 -1.1008 -1.7828
  186SAPI  C31721424   5.485   0.824   7.743 -0.2172  0.0192 -0.5055
  186SAPI  H17X21425   5.436   0.913   7.698  0.1890  0.4293 -0.1569
  186SAPI  H17Y21426   5.502   0.753   7.659  0.0249  1.5418 -1.8066
  186SAPI  C31821427   5.626   0.856   7.808  0.1918  0.5521  0.6528
  186SAPI  H18X21428   5.620   0.913   7.903 -0.3107 -0.7248  1.4171
  186SAPI  H18Y21429   5.693   0.914   7.741  0.2070  1.1724  1.1970
  186SAPI  H18Z21430   5.681   0.763   7.834  0.6691  0.5593 -0.2851
  187SAPI   C1221431   0.788   2.473   5.077  0.4452 -0.2958  0.1844
  187SAPI    H221432   0.711   2.547   5.107 -2.0343 -0.8921 -3.9547
  187SAPI    O221433   0.729   2.338   5.071 -0.8765 -0.3737 -0.4477
  187SAPI   HO221434   0.756   2.308   5.158  0.3853  1.3981 -0.1920
  187SAPI   C1321435   0.843   2.520   4.942 -0.1657  0.4777 -0.5212
  187SAPI    H321436   0.878   2.624   4.957 -0.4261  0.2329  2.4528
  187SAPI    O321437   0.738   2.536   4.848  0.0144  0.6740 -0.4881
  187SAPI   HO321438   0.712   2.445   4.831  0.6244  0.6433 -1.3089
  187SAPI   C1421439   0.951   2.432   4.882 -1.2485  0.1089 -0.9104
  187SAPI    H421440   0.908   2.331   4.862  1.5458 -0.8754 -2.5315
  187SAPI    O421441   1.000   2.472   4.754 -0.2657 -0.0406 -0.0451
  187SAPI   HO421442   1.045   2.557   4.760 -0.0273  0.1947 -3.2430
  187SAPI   C1521443   1.061   2.425   4.993 -0.0372  0.2851 -0.3655
  187SAPI    H521444   1.101   2.527   5.012  1.2463 -0.3274  0.3774
  187SAPI    O521445   1.176   2.353   4.954 -0.2877 -0.5823 -0.3771
  187SAPI   HO521446   1.152   2.265   4.923  0.1811  0.2360 -3.3654
  187SAPI   C1621447   1.019   2.385   5.137  0.3785 -0.2046 -0.2737
  187SAPI    H621448   0.990   2.278   5.134 -0.3416  0.0158 -1.7030
  187SAPI    O621449   1.119   2.399   5.241 -0.3589 -0.1640 -0.5828
  187SAPI   HO621450   1.102   2.330   5.305 -1.5541 -0.6649 -1.3932
  187SAPI   C1121451   0.899   2.467   5.176 -0.2804 -0.2358  0.2568
  187SAPI    H121452   0.935   2.571   5.189 -0.0456 -0.5850  2.9738
  187SAPI     P21453   0.766   2.520   5.411 -0.1337  0.2320 -0.0693
  187SAPI   O1321454   0.687   2.436   5.503 -0.0695 -0.5480 -0.0259
  187SAPI   O1421455   0.698   2.627   5.331  0.0562 -0.0924  0.1721
  187SAPI   O1221456   0.839   2.419   5.300 -0.2501  0.0269  0.8481
  187SAPI   O1121457   0.888   2.588   5.490  0.6459  0.1329  0.6296
  187SAPI    C121458   0.996   2.507   5.535  0.0391 -0.0555  0.2440
  187SAPI    HA21459   1.032   2.440   5.455 -0.1041  3.0598 -2.6612
  187SAPI    HB21460   1.077   2.580   5.559 -1.3697  1.3423  0.9685
  187SAPI    C221461   0.969   2.434   5.674  0.0124  0.7468 -0.2319
  187SAPI    HS21462   0.906   2.347   5.646 -3.5517  2.1992  2.5239
  187SAPI   O2121463   0.905   2.514   5.775  0.7292  0.1393  0.1938
  187SAPI   C2121464   0.841   2.454   5.866 -0.1690  0.6723  0.0438
  187SAPI   O2221465   0.796   2.338   5.869  0.5683  0.4653 -0.0146
  187SAPI   C2221466   0.827   2.559   5.979 -0.1653  1.2194 -0.4152
  187SAPI   H2R21467   0.932   2.587   5.999  0.9578 -0.9135 -2.7506
  187SAPI   H2S21468   0.765   2.647   5.953 -1.1930  0.1896 -1.6035
  187SAPI    C321469   1.101   2.368   5.732 -0.2551 -0.0416  0.4558
  187SAPI    HX21470   1.179   2.446   5.720  0.2766 -0.5205  0.7625
  187SAPI    HY21471   1.139   2.289   5.664 -0.5611  0.9412 -0.8868
  187SAPI   O3121472   1.103   2.325   5.867 -0.1897 -0.4185  0.0156
  187SAPI   C3121473   1.077   2.195   5.896  0.2235  0.7767  0.2453
  187SAPI   O3221474   1.066   2.102   5.819 -0.0540 -0.4157  0.2098
  187SAPI   C3221475   1.060   2.171   6.045 -0.3218  1.0918 -0.4268
  187SAPI   H2X21476   0.951   2.158   6.059 -0.1260 -0.9501 -0.5295
  187SAPI   H2Y21477   1.088   2.256   6.112  1.5073  0.3811 -0.2269
  187SAPI   C2321478   0.755   2.498   6.103  0.2663 -0.6866  0.0292
  187SAPI   H3R21479   0.809   2.409   6.144 -1.8282 -1.2410  1.7872
  187SAPI   H3S21480   0.650   2.477   6.073  0.9216 -1.6715 -1.7718
  187SAPI   C2421481   0.745   2.587   6.228  0.4217  0.3626  0.0285
  187SAPI   H4R21482   0.694   2.530   6.308  0.5824 -0.0554 -0.1629
  187SAPI   H4S21483   0.693   2.683   6.206  1.9569  1.4147  0.8550
  187SAPI   C2521484   0.881   2.640   6.273  0.2653  0.0317  0.0250
  187SAPI   H5R21485   0.939   2.702   6.203  1.3068 -1.1810 -0.2373
  187SAPI   C2621486   0.939   2.614   6.396 -0.7951 -0.9156 -0.2551
  187SAPI   H6R21487   1.037   2.661   6.408 -0.8064 -0.8113 -0.5533
  187SAPI   C2721488   0.879   2.530   6.511 -0.2125  0.2633 -0.3298
  187SAPI   H7R21489   0.963   2.515   6.583  0.4437  0.0057 -1.1446
  187SAPI   H7S21490   0.859   2.428   6.471  2.6373 -0.4694 -0.0873
  187SAPI   C2821491   0.760   2.586   6.580  0.7319  0.6034  0.3918
  187SAPI   H8R21492   0.668   2.573   6.521  0.0228 -0.4105  1.6546
  187SAPI   C2921493   0.759   2.662   6.690 -0.2607 -0.5733 -0.8279
  187SAPI   H9R21494   0.656   2.680   6.725  0.2268  1.1573 -0.1937
  187SAPI  C21021495   0.885   2.686   6.776  0.4839  0.4464  0.4499
  187SAPI  H10R21496   0.966   2.727   6.712 -0.2072 -1.4684 -1.8282
  187SAPI  H10S21497   0.921   2.587   6.810 -1.8791 -1.6828 -2.6457
  187SAPI  C21121498   0.851   2.785   6.889 -1.6281 -0.1620 -0.0886
  187SAPI  H11R21499   0.813   2.879   6.845 -2.1179 -0.0642  0.5278
  187SAPI  C21221500   0.855   2.756   7.021  0.0569  0.6826 -0.1665
  187SAPI  H12R21501   0.826   2.841   7.085  2.0643  0.6890  0.8054
  187SAPI  C21321502   0.908   2.633   7.086  0.9530  0.7036  0.1408
  187SAPI  H13R21503   0.996   2.675   7.139  0.4343  2.9480 -0.6425
  187SAPI  H13S21504   0.945   2.555   7.016 -0.9109 -1.4757  1.4425
  187SAPI  C21421505   0.823   2.575   7.201 -0.0341 -0.3194 -0.5151
  187SAPI  H14R21506   0.754   2.497   7.168 -1.8385  0.3889  1.3889
  187SAPI  C21521507   0.820   2.617   7.331 -0.3126 -0.2850 -0.6137
  187SAPI  H15R21508   0.746   2.580   7.404  1.3995  1.7528  2.3237
  187SAPI  C21621509   0.891   2.729   7.395  0.1339  0.2142 -0.2245
  187SAPI  H16R21510   0.971   2.767   7.328  0.5916 -0.9601 -0.3664
  187SAPI  H16S21511   0.936   2.695   7.491 -0.3923 -0.2987 -0.1552
  187SAPI  C21721512   0.802   2.853   7.430 -0.5508  0.3320 -0.4193
  187SAPI  H17R21513   0.709   2.807   7.470  0.2959 -0.1373  1.0951
  187SAPI  H17S21514   0.770   2.899   7.335  0.0175  1.3997 -0.1069
  187SAPI  C21821515   0.871   2.937   7.542  0.0958  0.6234  0.1954
  187SAPI  H18R21516   0.981   2.942   7.523 -0.0370 -0.8960 -1.2163
  187SAPI  H18S21517   0.861   2.870   7.629 -2.7985 -2.1926 -2.0709
  187SAPI  C21921518   0.816   3.070   7.563  0.6155 -0.0820  0.1086
  187SAPI  H19R21519   0.707   3.048   7.573 -0.1899  3.2136 -0.0797
  187SAPI  H19S21520   0.808   3.131   7.470  0.1723  3.1097  2.0999
  187SAPI  C22021521   0.866   3.144   7.681 -0.0206  0.6397 -0.3354
  187SAPI  H20R21522   0.810   3.237   7.703 -1.7982 -0.3195 -0.6010
  187SAPI  H20S21523   0.976   3.151   7.665  0.0791 -0.7590 -0.3439
  187SAPI  H20T21524   0.843   3.090   7.776 -0.2770  0.6777 -0.3757
  187SAPI   C3321525   1.125   2.048   6.106  0.2070 -0.1609 -0.3917
  187SAPI   H3X21526   1.233   2.063   6.126  0.4306 -1.6418 -0.3441
  187SAPI   H3Y21527   1.111   1.949   6.057  1.6695 -0.7797  0.3921
  187SAPI   C3421528   1.060   2.011   6.244 -0.8824  0.1404  0.6644
  187SAPI   H4X21529   1.101   1.913   6.276  1.2353  0.7895  0.1058
  187SAPI   H4Y21530   0.953   1.998   6.218 -0.3702  1.0652 -2.1478
  187SAPI   C3521531   1.074   2.116   6.355 -0.4934  0.1793  0.4784
  187SAPI   H5X21532   1.027   2.214   6.331  0.8230  0.5071 -0.8964
  187SAPI   H5Y21533   1.179   2.150   6.366 -0.3734  0.4410 -1.1902
  187SAPI   C3621534   1.014   2.053   6.480 -0.1488  0.1548  0.5351
  187SAPI   H6X21535   1.069   1.961   6.509 -0.2354 -0.5256 -1.3264
  187SAPI   H6Y21536   0.904   2.038   6.466 -0.3640 -0.3763  2.4615
  187SAPI   C3721537   1.026   2.144   6.596  0.0119 -0.1554 -0.9819
  187SAPI   H7X21538   0.964   2.234   6.576 -1.2964 -0.8054 -0.0342
  187SAPI   H7Y21539   1.132   2.177   6.601 -0.0147 -0.1257 -0.5607
  187SAPI   C3821540   0.993   2.083   6.732  0.7645  0.7934 -0.8940
  187SAPI   H8X21541   1.045   1.984   6.738 -0.2962  0.2287 -0.8097
  187SAPI   H8Y21542   0.883   2.069   6.723  0.7562  0.1075  0.1012
  187SAPI   C3921543   1.011   2.175   6.850 -0.4095  0.5072  0.5203
  187SAPI   H9X21544   0.984   2.281   6.832 -1.3722  0.4464  1.5154
  187SAPI   H9Y21545   1.120   2.180   6.870 -0.2577 -0.2898 -0.0512
  187SAPI  C31021546   0.942   2.118   6.978 -0.1174 -0.4312  0.1422
  187SAPI  H10X21547   0.950   2.007   6.984  1.3642 -0.3677 -0.2906
  187SAPI  H10Y21548   0.833   2.139   6.974 -0.6747 -2.6584  1.6502
  187SAPI  C31121549   1.002   2.181   7.103  0.2945 -0.4166 -0.5614
  187SAPI  H11X21550   0.981   2.290   7.093  0.9690 -0.2910 -0.6443
  187SAPI  H11Y21551   1.111   2.163   7.093  0.3889 -1.8138  2.0462
  187SAPI  C31221552   0.951   2.129   7.234  0.2732 -0.0880  0.0434
  187SAPI  H12X21553   1.007   2.176   7.318  1.1727  0.9038 -1.0758
  187SAPI  H12Y21554   0.982   2.023   7.252  0.1880  0.1574  1.7898
  187SAPI  C31321555   0.800   2.167   7.264 -0.2910 -0.6484  1.0521
  187SAPI  H13X21556   0.722   2.149   7.187 -0.1662  2.5196  0.0425
  187SAPI  H13Y21557   0.801   2.278   7.266  0.4340 -0.6534  2.0166
  187SAPI  C31421558   0.754   2.109   7.394 -0.1585  0.5062  0.0204
  187SAPI  H14X21559   0.776   2.001   7.407  0.8497  0.6979 -0.0123
  187SAPI  H14Y21560   0.644   2.128   7.392 -0.1494  0.5413 -0.1570
  187SAPI  C31521561   0.799   2.185   7.519 -0.1859 -0.4990  0.1069
  187SAPI  H15X21562   0.769   2.292   7.515  0.2322 -0.3913 -0.2841
  187SAPI  H15Y21563   0.910   2.175   7.528 -0.0810  0.7464  0.4468
  187SAPI  C31621564   0.732   2.129   7.647  0.2762  0.9366 -0.5053
  187SAPI  H16X21565   0.725   2.019   7.666 -1.2717  1.2851  1.2526
  187SAPI  H16Y21566   0.627   2.160   7.632 -1.2746 -2.8336  1.1314
  187SAPI  C31721567   0.771   2.185   7.786  0.0035  0.1841 -0.3157
  187SAPI  H17X21568   0.685   2.187   7.856  0.1289 -0.4428 -0.1429
  187SAPI  H17Y21569   0.805   2.289   7.765  0.1527  0.3758  0.8230
  187SAPI  C31821570   0.888   2.104   7.853 -0.1526  0.0336  0.4697
  187SAPI  H18X21571   0.973   2.091   7.782 -0.8733 -1.6483 -0.1502
  187SAPI  H18Y21572   0.853   2.001   7.877 -0.7264  0.0960 -0.0579
  187SAPI  H18Z21573   0.910   2.158   7.948 -1.7316  2.2469 -0.3342
  188SAPI   C1221574   1.266   5.060   5.478 -0.7467  0.1631  0.3699
  188SAPI    H221575   1.305   5.105   5.571  1.5329  2.3862 -1.5175
  188SAPI    O221576   1.381   5.062   5.387 -0.1999  0.2040 -0.4713
  188SAPI   HO221577   1.390   5.155   5.365 -2.4975  1.0254  1.6103
  188SAPI   C1321578   1.210   4.924   5.495 -0.5072 -0.1957 -0.1819
  188SAPI    H321579   1.124   4.925   5.566  0.2820 -0.9158  0.8222
  188SAPI    O321580   1.305   4.843   5.566 -0.3573 -0.3241  0.3318
  188SAPI   HO321581   1.393   4.853   5.527 -0.3056 -2.0642 -0.0925
  188SAPI   C1421582   1.157   4.861   5.362 -0.5253 -0.1798 -0.2431
  188SAPI    H421583   1.241   4.854   5.289 -2.0915 -0.7776 -2.0816
  188SAPI    O421584   1.105   4.723   5.391  0.1345 -0.8781 -0.2819
  188SAPI   HO421585   1.020   4.735   5.434 -0.2505 -3.5510 -0.1545
  188SAPI   C1521586   1.055   4.961   5.300  0.5505  0.2576  0.5844
  188SAPI    H521587   0.966   4.963   5.366 -0.5838 -2.0029 -0.7647
  188SAPI    O521588   1.007   4.917   5.166  0.5247  0.4784 -0.5941
  188SAPI   HO521589   0.968   4.993   5.121 -0.6403 -0.6926 -1.6565
  188SAPI   C1621590   1.109   5.109   5.293 -0.1668  0.2527 -0.0971
  188SAPI    H621591   1.193   5.107   5.221 -0.9361  0.5272 -1.0252
  188SAPI    O621592   1.000   5.202   5.239  0.0901 -0.2762 -0.2604
  188SAPI   HO621593   1.044   5.245   5.166  0.1477 -1.9011 -1.2276
  188SAPI   C1121594   1.161   5.157   5.425 -0.0628 -0.1957 -0.3271
  188SAPI    H121595   1.082   5.157   5.503 -0.0650  1.7783 -0.2712
  188SAPI     P21596   1.180   5.410   5.509  0.1697  0.2318 -0.3525
  188SAPI   O1321597   1.037   5.411   5.524 -0.1884  0.1348 -0.5289
  188SAPI   O1421598   1.240   5.536   5.471 -0.3250 -0.1050  0.2366
  188SAPI   O1221599   1.225   5.290   5.411 -0.1474  0.3944 -0.5248
  188SAPI   O1121600   1.247   5.368   5.643 -0.2277 -0.0283  0.3751
  188SAPI    C121601   1.274   5.467   5.743 -0.3439  0.7970  0.5337
  188SAPI    HA21602   1.348   5.427   5.815  0.5695 -3.5683 -2.4558
  188SAPI    HB21603   1.311   5.563   5.701 -0.5276  1.7898  2.5352
  188SAPI    C221604   1.141   5.494   5.822  0.2130 -0.4857 -0.2881
  188SAPI    HS21605   1.071   5.530   5.744  0.0365 -0.6846 -0.2208
  188SAPI   O2121606   1.169   5.586   5.927 -0.2250 -0.5437  0.6527
  188SAPI   C2121607   1.063   5.662   5.957  0.5089 -0.3115 -0.2532
  188SAPI   O2221608   0.949   5.647   5.910 -0.2252 -0.0468  0.0858
  188SAPI   C2221609   1.090   5.766   6.066  0.3698  0.1863  0.6967
  188SAPI   H2R21610   1.199   5.786   6.061  0.2104  0.7646 -1.4097
  188SAPI   H2S21611   1.039   5.865   6.064 -0.2009 -0.0721  1.8221
  188SAPI    C321612   1.072   5.368   5.875  0.2779 -0.0164 -0.3119
  188SAPI    HX21613   1.038   5.315   5.783  1.0072  0.1204 -0.6694
  188SAPI    HY21614   0.981   5.383   5.937 -0.5972 -0.0395 -1.5492
  188SAPI   O3121615   1.170   5.294   5.953 -0.1253 -0.1602  0.2879
  188SAPI   C3121616   1.156   5.170   5.953  0.7779  0.2162  0.8847
  188SAPI   O3221617   1.070   5.103   5.892 -0.9171 -0.4448 -0.3059
  188SAPI   C3221618   1.256   5.103   6.054 -0.0730 -0.4522 -0.1365
  188SAPI   H2X21619   1.352   5.149   6.022  0.0036 -1.2269 -1.0432
  188SAPI   H2Y21620   1.273   4.994   6.045  0.6359 -0.1920 -2.7981
  188SAPI   C2321621   1.075   5.696   6.200  0.9793 -0.2389 -0.0627
  188SAPI   H3R21622   1.118   5.774   6.268 -0.3420  2.9527 -2.6079
  188SAPI   H3S21623   1.148   5.612   6.205  1.3582  0.1195  0.8983
  188SAPI   C2421624   0.936   5.663   6.261 -0.5047 -0.1088  0.6839
  188SAPI   H4R21625   0.878   5.749   6.222  1.4421  0.0388 -2.0927
  188SAPI   H4S21626   0.948   5.671   6.372  0.6002 -0.2822  0.5778
  188SAPI   C2521627   0.879   5.528   6.223 -0.2322 -1.0825 -0.0681
  188SAPI   H5R21628   0.875   5.514   6.114  1.0607 -0.2897 -0.2426
  188SAPI   C2621629   0.834   5.430   6.303  0.0181  0.0186  0.0368
  188SAPI   H6R21630   0.802   5.339   6.252  2.9906 -1.1224 -0.0051
  188SAPI   C2721631   0.822   5.435   6.452  0.6362 -0.4293  0.3530
  188SAPI   H7R21632   0.918   5.479   6.487  0.8054  0.0812 -0.7085
  188SAPI   H7S21633   0.810   5.329   6.482  1.8360 -0.6203  0.1903
  188SAPI   C2821634   0.705   5.519   6.498  0.8152  0.6188 -0.0362
  188SAPI   H8R21635   0.713   5.627   6.478 -2.7060  0.7833 -1.3203
  188SAPI   C2921636   0.602   5.466   6.573 -0.8577 -0.7983  0.5016
  188SAPI   H9R21637   0.523   5.536   6.606  0.2024  0.1439  1.0887
  188SAPI  C21021638   0.579   5.321   6.610 -0.4948  0.1010 -0.0331
  188SAPI  H10R21639   0.648   5.301   6.694 -0.9570  0.8801  0.5493
  188SAPI  H10S21640   0.606   5.256   6.524 -1.9440 -0.7577  0.1406
  188SAPI  C21121641   0.442   5.296   6.666  0.0254  0.3163 -0.4573
  188SAPI  H11R21642   0.366   5.265   6.592  0.0562  2.6974 -1.5720
  188SAPI  C21221643   0.406   5.291   6.797  0.6242  0.2210  0.3401
  188SAPI  H12R21644   0.303   5.265   6.826  0.2350  2.1061  0.8080
  188SAPI  C21321645   0.487   5.315   6.921  0.1922 -0.0272  0.2081
  188SAPI  H13R21646   0.589   5.350   6.895  0.3364  2.5636  3.6229
  188SAPI  H13S21647   0.503   5.222   6.979  1.6825  1.1925  1.8436
  188SAPI  C21421648   0.426   5.419   7.014 -0.2997 -0.4424 -0.4670
  188SAPI  H14R21649   0.317   5.433   7.010 -0.5744 -2.4742 -1.1190
  188SAPI  C21521650   0.503   5.482   7.110  0.0994  0.3705  0.3963
  188SAPI  H15R21651   0.455   5.561   7.169 -0.4319  0.6073 -0.3396
  188SAPI  C21621652   0.652   5.465   7.136 -0.4595  0.6893 -0.0783
  188SAPI  H16R21653   0.711   5.559   7.135  2.0466 -0.7947  0.8547
  188SAPI  H16S21654   0.699   5.398   7.061 -0.5709  2.3800 -1.7327
  188SAPI  C21721655   0.685   5.387   7.265 -1.1819 -0.4897  0.5838
  188SAPI  H17R21656   0.791   5.355   7.260 -0.8626  0.7218 -2.7005
  188SAPI  H17S21657   0.624   5.294   7.267 -2.5809  0.2573 -2.0875
  188SAPI  C21821658   0.655   5.459   7.400 -0.7345  0.0470 -0.5444
  188SAPI  H18R21659   0.545   5.468   7.393 -0.6431  0.6456 -1.3086
  188SAPI  H18S21660   0.697   5.562   7.408 -1.2405  0.2310 -0.2223
  188SAPI  C21921661   0.687   5.386   7.532  0.0487  0.1322  0.1008
  188SAPI  H19R21662   0.656   5.280   7.523  0.6466  0.0320 -0.9345
  188SAPI  H19S21663   0.640   5.435   7.620  0.6820 -1.8408  1.5902
  188SAPI  C22021664   0.843   5.383   7.549 -0.6043  0.6448  0.7022
  188SAPI  H20R21665   0.892   5.482   7.551 -1.6158  1.1773 -0.0082
  188SAPI  H20S21666   0.878   5.335   7.455  0.6837 -2.3269  2.5502
  188SAPI  H20T21667   0.879   5.313   7.627 -2.0358 -2.9364 -1.5857
  188SAPI   C3321668   1.232   5.135   6.200 -0.3408  0.3348 -0.3195
  188SAPI   H3X21669   1.318   5.096   6.258 -1.5243 -1.0234  0.5843
  188SAPI   H3Y21670   1.137   5.083   6.225  0.1800 -0.5924 -0.2393
  188SAPI   C3421671   1.214   5.284   6.239  0.0327  0.5779  0.1905
  188SAPI   H4X21672   1.111   5.308   6.203 -0.4722 -0.4468  0.9036
  188SAPI   H4Y21673   1.286   5.349   6.185 -0.2718  1.1274  0.4361
  188SAPI   C3521674   1.218   5.318   6.393 -0.3215  0.3734 -0.2916
  188SAPI   H5X21675   1.197   5.427   6.395  0.7063  0.6300 -1.8270
  188SAPI   H5Y21676   1.321   5.310   6.434  0.6407 -0.6608 -2.7315
  188SAPI   C3621677   1.121   5.234   6.486  0.0825  0.0208  0.6579
  188SAPI   H6X21678   1.137   5.129   6.454 -2.6443 -0.7650  1.5895
  188SAPI   H6Y21679   1.018   5.262   6.457  0.8005  3.6027  1.0892
  188SAPI   C3721680   1.144   5.261   6.637  0.0275  0.4536  0.1940
  188SAPI   H7X21681   1.135   5.371   6.652 -0.8584  0.3870  0.2083
  188SAPI   H7Y21682   1.248   5.231   6.661 -1.1393 -1.0654  4.2145
  188SAPI   C3821683   1.038   5.193   6.717 -0.1944  0.3728 -0.1993
  188SAPI   H8X21684   1.019   5.089   6.683 -0.8655  0.7290 -0.9649
  188SAPI   H8Y21685   0.942   5.248   6.700 -1.2439 -1.1828  0.4663
  188SAPI   C3921686   1.061   5.207   6.872 -0.7665 -0.3447 -0.2231
  188SAPI   H9X21687   1.166   5.170   6.876  0.1069  1.7441 -1.8433
  188SAPI   H9Y21688   0.988   5.146   6.928 -1.2393 -0.5117 -0.9992
  188SAPI  C31021689   1.058   5.353   6.929 -0.4044 -0.6535  0.2367
  188SAPI  H10X21690   0.950   5.378   6.935 -0.0589  1.0771 -0.1691
  188SAPI  H10Y21691   1.103   5.437   6.872  0.0888  0.3927  2.0675
  188SAPI  C31121692   1.108   5.357   7.077  0.2595 -0.0639  0.6377
  188SAPI  H11X21693   1.069   5.447   7.130 -0.4341  0.2769 -0.4194
  188SAPI  H11Y21694   1.219   5.369   7.072  0.2894 -0.3866 -3.8938
  188SAPI  C31221695   1.079   5.227   7.159  0.2897  0.1476  0.3939
  188SAPI  H12X21696   1.138   5.137   7.131 -0.2652 -0.2981  0.6486
  188SAPI  H12Y21697   0.973   5.206   7.135  0.4087 -0.6701  0.5714
  188SAPI  C31321698   1.098   5.246   7.312  0.0250 -0.0003  0.4728
  188SAPI  H13X21699   1.032   5.169   7.357 -0.2241  0.4220  0.8360
  188SAPI  H13Y21700   1.073   5.349   7.347  3.3552  1.4525 -0.9704
  188SAPI  C31421701   1.245   5.228   7.360  0.1882 -0.0542  0.7310
  188SAPI  H14X21702   1.315   5.279   7.290 -2.4173 -2.7153 -4.3386
  188SAPI  H14Y21703   1.263   5.119   7.345  2.8706  0.3637  0.4279
  188SAPI  C31521704   1.282   5.260   7.506  0.5623 -0.0248 -0.9406
  188SAPI  H15X21705   1.257   5.368   7.514  1.1453  0.0365  0.4391
  188SAPI  H15Y21706   1.391   5.255   7.528  0.0717 -1.8853  1.5681
  188SAPI  C31621707   1.213   5.183   7.620 -0.2217  0.0161  0.1158
  188SAPI  H16X21708   1.246   5.078   7.611 -0.1676  0.0017  0.4619
  188SAPI  H16Y21709   1.103   5.173   7.605  0.0315 -1.2868 -1.0514
  188SAPI  C31721710   1.258   5.224   7.766 -0.3778  0.1359  0.0938
  188SAPI  H17X21711   1.211   5.159   7.842  2.0460 -2.2613 -0.2866
  188SAPI  H17Y21712   1.220   5.327   7.782 -2.1034 -0.6025  0.9199
  188SAPI  C31821713   1.406   5.228   7.794  0.0557  0.1382 -0.1172
  188SAPI  H18X21714   1.448   5.300   7.720  1.1183 -1.7019 -1.3839
  188SAPI  H18Y21715   1.445   5.124   7.788  3.1508  0.9723  2.6506
  188SAPI  H18Z21716   1.431   5.271   7.894 -1.5684  0.4601  0.1812
  189POPC     N21717   4.050   6.655   9.805  0.6794 -0.1881 -0.0824
  189POPC   C1221718   3.939   6.753   9.830 -0.0120 -0.0640  0.1671
  189POPC  H12A21719   3.939   6.829   9.752  1.1805 -0.1902  0.0306
  189POPC  H12B21720   3.957   6.807   9.922  0.3297 -1.6966  1.1027
  189POPC   C1321721   4.028   6.520   9.866 -0.3255 -0.6440  0.0101
  189POPC  H13A21722   4.014   6.541   9.971 -2.4564  2.7788 -0.7972
  189POPC  H13B21723   3.941   6.470   9.826 -0.1959 -0.7497 -0.1393
  189POPC  H13C21724   4.115   6.456   9.856  0.0582 -0.2579  0.7192
  189POPC   C1421725   4.053   6.635   9.656 -0.1912  0.1669  0.1355
  189POPC  H14A21726   4.052   6.730   9.605  2.7391 -0.1628 -0.7626
  189POPC  H14B21727   4.141   6.577   9.628 -1.1113 -0.4851 -1.5547
  189POPC  H14C21728   3.966   6.576   9.632  0.1679 -0.9877  1.5499
  189POPC   C1521729   4.180   6.708   9.847 -0.3756 -0.1738 -0.3330
  189POPC  H15A21730   4.262   6.644   9.821 -0.5234 -0.9972  1.1530
  189POPC  H15B21731   4.181   6.701   9.954 -2.1153 -1.8843 -0.3765
  189POPC  H15C21732   4.200   6.808   9.809  1.0176 -0.6140 -0.7941
  189POPC   C1121733   3.798   6.691   9.834  0.5889  0.6438 -0.2840
  189POPC  H11A21734   3.734   6.780   9.851  0.4650  0.8780 -1.8306
  189POPC  H11B21735   3.788   6.621   9.920  1.1431  0.3995 -0.4181
  189POPC     P21736   3.651   6.691   9.625 -0.3718 -0.3473 -0.6104
  189POPC   O1321737   3.710   6.820   9.577 -0.6761 -0.8298  0.2285
  189POPC   O1421738   3.525   6.696   9.704 -0.3407 -0.5121 -0.7881
  189POPC   O1221739   3.762   6.616   9.713 -0.4763 -0.2489  0.0345
  189POPC   O1121740   3.626   6.599   9.505  0.1707  0.1868  0.5530
  189POPC    C121741   3.717   6.494   9.478 -0.6563 -0.2335 -0.1459
  189POPC    HA21742   3.714   6.423   9.564  0.9242 -0.2061 -0.0474
  189POPC    HB21743   3.818   6.539   9.473 -1.8597  2.5227 -2.6285
  189POPC    C221744   3.666   6.421   9.354 -0.6199  0.0974 -0.4025
  189POPC    HS21745   3.734   6.333   9.351 -2.0000 -0.9995 -0.7297
  189POPC   O2121746   3.675   6.512   9.243  0.4272 -0.1668 -0.3262
  189POPC   C2121747   3.682   6.461   9.127  0.3165 -0.0875 -0.0957
  189POPC   O2221748   3.724   6.345   9.103 -0.2821  0.4310 -0.2674
  189POPC   C2221749   3.657   6.574   9.033  0.0306  0.1560  0.5951
  189POPC   H2R21750   3.736   6.646   9.063  0.1905 -0.5399  1.9410
  189POPC   H2S21751   3.559   6.619   9.059  0.5466 -0.6510  4.6269
  189POPC    C321752   3.519   6.362   9.382 -0.1616  0.6896  0.7716
  189POPC    HX21753   3.451   6.449   9.396 -1.1647  0.1399 -0.4817
  189POPC    HY21754   3.520   6.306   9.478 -0.9844  0.0010  0.3985
  189POPC   O3121755   3.455   6.294   9.264  0.5829 -0.5699 -0.4885
  189POPC   C3121756   3.491   6.168   9.253 -0.2002  0.2915  0.7989
  189POPC   O3221757   3.563   6.107   9.334 -0.1857  0.3584 -0.1142
  189POPC   C3221758   3.427   6.103   9.132 -0.5273 -0.1675  0.7015
  189POPC   H2X21759   3.327   6.151   9.132 -0.6972 -0.2803 -2.2699
  189POPC   H2Y21760   3.424   5.993   9.147  1.4382 -0.3608  0.0227
  189POPC   C2321761   3.676   6.534   8.885  0.0151 -0.1256 -0.2918
  189POPC   H3R21762   3.633   6.434   8.861 -1.4155  0.2576  0.5183
  189POPC   H3S21763   3.783   6.513   8.866  0.2415  1.6491 -1.2144
  189POPC   C2421764   3.622   6.634   8.780 -0.1652  0.4341 -1.3445
  189POPC   H4R21765   3.662   6.734   8.806  0.2759 -0.6008  2.7181
  189POPC   H4S21766   3.512   6.634   8.768 -0.3702  0.3449  0.3323
  189POPC   C2521767   3.664   6.604   8.635 -0.5883  0.2891  0.2404
  189POPC   H5R21768   3.604   6.523   8.589  0.5527  0.7514 -2.2705
  189POPC   H5S21769   3.770   6.575   8.652 -0.0406  2.4817  0.8233
  189POPC   C2621770   3.651   6.725   8.534  0.3016  0.4241  0.5180
  189POPC   H6R21771   3.712   6.813   8.561  1.6801 -0.2918 -0.1373
  189POPC   H6S21772   3.541   6.743   8.532  0.5021  1.6801 -0.0782
  189POPC   C2721773   3.663   6.684   8.379 -0.1461  0.3207  0.2703
  189POPC   H7R21774   3.621   6.583   8.359 -0.5659  1.0714 -3.4080
  189POPC   H7S21775   3.773   6.689   8.363  0.0126  0.8027  1.4087
  189POPC   C2821776   3.588   6.779   8.290  0.5282  0.2500 -0.1394
  189POPC   H8R21777   3.636   6.880   8.291  0.9543  0.0450  0.5568
  189POPC   H8S21778   3.485   6.779   8.331  0.8292 -2.9723  0.8542
  189POPC   C2921779   3.575   6.724   8.147 -0.9011 -0.2161 -0.3090
  189POPC   H9121780   3.661   6.660   8.120 -1.8660 -1.8100  0.2410
  189POPC  C21021781   3.494   6.769   8.049  0.1979 -0.2984 -0.6467
  189POPC  H10121782   3.499   6.719   7.951 -0.3219 -0.5418 -0.5534
  189POPC  C21121783   3.386   6.876   8.075  0.0809  0.1349 -0.2219
  189POPC  H11R21784   3.422   6.980   8.062  1.1623 -0.3159 -0.9741
  189POPC  H11S21785   3.367   6.881   8.184  2.0075 -1.9041  0.2812
  189POPC  C21221786   3.250   6.856   8.009  0.7503  0.3121  0.4589
  189POPC  H12R21787   3.186   6.945   8.025  0.3011  0.3212 -1.1945
  189POPC  H12S21788   3.204   6.775   8.068  0.0970 -0.3888 -0.9696
  189POPC  C21321789   3.247   6.804   7.865  0.2929  0.0621 -0.3507
  189POPC  H13R21790   3.314   6.716   7.854  0.3638 -0.0839  1.0877
  189POPC  H13S21791   3.292   6.891   7.812  1.7973  0.1893  1.0367
  189POPC  C21421792   3.109   6.773   7.809 -0.0241 -0.5043  0.6548
  189POPC  H14R21793   3.055   6.704   7.878 -0.5341  0.0265  0.7898
  189POPC  H14S21794   3.130   6.723   7.712 -1.6444 -0.9984  0.5365
  189POPC  C21521795   3.032   6.898   7.774  0.4725 -0.4958 -0.0702
  189POPC  H15R21796   3.101   6.966   7.719 -1.2597 -0.0275 -1.7522
  189POPC  H15S21797   3.014   6.966   7.860 -0.9810 -1.7207  0.6333
  189POPC  C21621798   2.914   6.882   7.686  0.2887 -0.2819  0.8964
  189POPC  H16R21799   2.931   6.835   7.587  0.8303  2.0335 -0.1761
  189POPC  H16S21800   2.874   6.982   7.663  1.8040  0.5863  1.8469
  189POPC  C21721801   2.804   6.793   7.757 -1.1448 -0.5635 -0.2813
  189POPC  H17R21802   2.767   6.843   7.850  0.9721  0.8363 -0.1304
  189POPC  H17S21803   2.854   6.699   7.787 -1.4982 -0.4594  0.6887
  189POPC  C21821804   2.688   6.766   7.667  0.9893 -0.0582 -0.0525
  189POPC  H18R21805   2.598   6.718   7.712 -2.0539  3.5760 -1.6460
  189POPC  H18S21806   2.724   6.719   7.573  1.2025 -0.2448  0.1215
  189POPC  H18T21807   2.633   6.856   7.632  1.7679 -0.7441 -3.4976
  189POPC   C3321808   3.498   6.134   8.996  0.5018  0.3272  0.9199
  189POPC   H3X21809   3.606   6.116   9.014  0.0024 -0.4739  3.4871
  189POPC   H3Y21810   3.504   6.243   8.974 -0.2236  0.1745 -0.1130
  189POPC   C3421811   3.453   6.059   8.874 -0.1981  0.4287  0.4581
  189POPC   H4X21812   3.353   6.104   8.854  0.2151  1.7521  1.2715
  189POPC   H4Y21813   3.436   5.953   8.902 -0.6917  0.3255 -0.1972
  189POPC   C3521814   3.546   6.060   8.749 -0.1692 -0.2670 -0.8667
  189POPC   H5X21815   3.656   6.049   8.764 -0.0479 -0.2030 -1.6752
  189POPC   H5Y21816   3.538   6.162   8.706 -0.7590 -1.0280 -2.6435
  189POPC   C3621817   3.496   5.971   8.633 -0.2668 -0.3507 -0.2897
  189POPC   H6X21818   3.388   5.997   8.625 -0.3504 -0.3812  0.6358
  189POPC   H6Y21819   3.505   5.863   8.659  1.1676  0.0186  0.8854
  189POPC   C3721820   3.566   6.014   8.502 -0.4343  0.0924 -0.5906
  189POPC   H7X21821   3.677   6.013   8.507 -0.4720 -0.1181  0.3065
  189POPC   H7Y21822   3.528   6.116   8.482  0.3147  0.7951  1.3581
  189POPC   C3821823   3.519   5.944   8.376 -0.1525  0.7886  0.3538
  189POPC   H8X21824   3.410   5.949   8.360 -0.2682 -1.7049 -0.0427
  189POPC   H8Y21825   3.543   5.836   8.386  1.4939  1.0951  0.1349
  189POPC   C3921826   3.583   5.998   8.247  0.1104  1.2589  0.0518
  189POPC   H9X21827   3.694   5.994   8.249  0.1896  0.4021 -2.4290
  189POPC   H9Y21828   3.554   6.105   8.245 -1.9541  0.7886  1.2339
  189POPC  C31021829   3.544   5.924   8.118  0.2620  0.4379 -0.6208
  189POPC  H10X21830   3.581   5.979   8.029 -1.4686  2.0830 -0.3873
  189POPC  H10Y21831   3.434   5.913   8.129  0.1607  0.0662 -1.8354
  189POPC  C31121832   3.590   5.773   8.114 -0.2731  0.3355  0.6852
  189POPC  H11X21833   3.549   5.713   8.030  0.5967 -2.5163  2.1853
  189POPC  H11Y21834   3.554   5.724   8.207  1.8247 -0.5899  1.0472
  189POPC  C31221835   3.743   5.760   8.094  0.4969 -0.1620  0.0536
  189POPC  H12X21836   3.793   5.829   8.165  0.3301  0.3478 -0.3225
  189POPC  H12Y21837   3.779   5.789   7.993  1.1930  0.0789  0.3666
  189POPC  C31321838   3.795   5.614   8.115  0.4125 -0.7662  0.2886
  189POPC  H13X21839   3.746   5.573   8.206  1.9255 -2.7920  0.2826
  189POPC  H13Y21840   3.905   5.610   8.133  0.6746  1.8035 -0.2889
  189POPC  C31421841   3.752   5.512   8.006 -0.0259 -0.0293 -0.1156
  189POPC  H14X21842   3.645   5.536   7.991 -0.1325 -0.1534  0.4109
  189POPC  H14Y21843   3.748   5.406   8.042  1.1620 -0.3705 -0.9585
  189POPC  C31521844   3.835   5.517   7.880  0.0552 -0.6811 -0.3201
  189POPC  H15X21845   3.822   5.619   7.838 -1.8635 -0.8086 -0.1300
  189POPC  H15Y21846   3.794   5.449   7.802 -0.4876 -2.1606  1.2046
  189POPC  C31621847   3.982   5.485   7.879  0.2678  0.0617 -0.0924
  189POPC  H16X21848   3.996   5.375   7.886 -3.5560 -0.5463  0.1392
  189POPC  H16Y21849   4.034   5.531   7.965 -1.5318  2.1874 -0.0772
  189POPC  H16Z21850   4.030   5.520   7.785  2.5167 -0.6377  0.7387
  190POPC     N21851   6.281   2.622   9.819 -0.0379  0.1484 -0.1546
  190POPC   C1221852   6.383   2.606   9.703  0.5812 -0.2291  0.9204
  190POPC  H12A21853   6.412   2.503   9.710 -2.3236 -1.1198  1.1699
  190POPC  H12B21854   6.456   2.686   9.698  0.7021 -0.3904 -2.0408
  190POPC   C1321855   6.222   2.761   9.827  0.2689 -0.3663 -0.3341
  190POPC  H13A21856   6.302   2.830   9.847  2.5248 -2.9100 -0.0013
  190POPC  H13B21857   6.180   2.794   9.733 -0.6548 -0.7439 -0.0650
  190POPC  H13C21858   6.150   2.765   9.908  1.9646  2.2471  1.1880
  190POPC   C1421859   6.168   2.525   9.813 -0.3660  0.4201  0.4504
  190POPC  H14A21860   6.113   2.541   9.905  1.3271  3.4664  1.0771
  190POPC  H14B21861   6.106   2.538   9.726  1.0488 -0.3261 -0.7058
  190POPC  H14C21862   6.202   2.423   9.824  0.9105  1.0119  2.8184
  190POPC   C1521863   6.353   2.606   9.953 -0.1120 -0.5591 -0.1245
  190POPC  H15A21864   6.408   2.514   9.954 -0.1154 -0.6003  2.4075
  190POPC  H15B21865   6.282   2.595  10.033 -0.6687 -4.0359 -0.9460
  190POPC  H15C21866   6.421   2.688   9.975 -0.0532 -0.1716 -1.6285
  190POPC   C1121867   6.322   2.619   9.565 -0.2552  0.4352 -0.7983
  190POPC  H11A21868   6.244   2.542   9.547  1.2707 -1.3507 -0.1031
  190POPC  H11B21869   6.397   2.587   9.489  1.5878 -1.5591  1.6629
  190POPC     P21870   6.357   2.868   9.508 -0.3550 -0.0933  0.5197
  190POPC   O1321871   6.487   2.872   9.581  0.3585 -0.2391  0.3845
  190POPC   O1421872   6.265   2.987   9.533  0.1208  0.0996 -0.1373
  190POPC   O1221873   6.267   2.740   9.541  0.7196 -1.0331 -0.6285
  190POPC   O1121874   6.379   2.845   9.353 -0.6989 -0.4048  1.0861
  190POPC    C121875   6.264   2.840   9.267  0.2447  0.3473 -0.0888
  190POPC    HA21876   6.178   2.898   9.306  1.7568  1.8006  1.2494
  190POPC    HB21877   6.230   2.735   9.253  2.3774 -0.6917  1.8872
  190POPC    C221878   6.293   2.879   9.121  0.1909  0.0991  0.5067
  190POPC    HS21879   6.197   2.893   9.067  0.3306  0.5103  0.3664
  190POPC   O2121880   6.385   2.794   9.052  0.3560  0.0173  0.4774
  190POPC   C2121881   6.350   2.675   9.020  0.2465  0.8798 -0.0803
  190POPC   O2221882   6.238   2.625   9.034 -0.1077 -0.1111  0.2798
  190POPC   C2221883   6.477   2.601   8.974 -0.0483  0.3559  0.5733
  190POPC   H2R21884   6.477   2.505   9.031  0.7623  1.1155  1.8910
  190POPC   H2S21885   6.572   2.652   9.001  0.8943 -0.7998 -0.4541
  190POPC    C321886   6.351   3.023   9.112  0.3562  0.2561 -0.1334
  190POPC    HX21887   6.441   3.028   9.176  0.1678  0.3134  0.1325
  190POPC    HY21888   6.273   3.093   9.151 -0.3048 -0.6452  0.2031
  190POPC   O3121889   6.367   3.067   8.974 -0.1603 -0.3602  0.0784
  190POPC   C3121890   6.259   3.096   8.903  0.1785  0.0624  0.2124
  190POPC   O3221891   6.144   3.095   8.950 -0.4249 -0.0090  0.3660
  190POPC   C3221892   6.303   3.151   8.766 -0.2929 -0.5059 -0.6996
  190POPC   H2X21893   6.387   3.094   8.721 -0.0545  0.6003 -1.7105
  190POPC   H2Y21894   6.341   3.254   8.778 -1.4800 -0.1808  0.5499
  190POPC   C2321895   6.478   2.571   8.822 -0.1947  0.2587  0.2949
  190POPC   H3R21896   6.385   2.524   8.784 -0.9789  2.2692 -0.4335
  190POPC   H3S21897   6.560   2.498   8.804  0.2553 -0.1783  3.6393
  190POPC   C2421898   6.503   2.693   8.740 -0.4008 -1.1884  0.4225
  190POPC   H4R21899   6.610   2.723   8.745 -0.7940  0.2096  0.8332
  190POPC   H4S21900   6.443   2.774   8.784 -0.0765 -0.6086 -0.1811
  190POPC   C2521901   6.468   2.688   8.589  1.2550  0.0050  0.0499
  190POPC   H5R21902   6.519   2.768   8.532  1.5024 -0.3556 -0.2407
  190POPC   H5S21903   6.358   2.691   8.577  0.7570 -2.3442  2.9120
  190POPC   C2621904   6.510   2.555   8.527  0.0893 -0.5845 -0.3942
  190POPC   H6R21905   6.449   2.466   8.552  0.7245 -0.8511  0.2580
  190POPC   H6S21906   6.611   2.532   8.568  0.0907 -1.0006 -0.6239
  190POPC   C2721907   6.512   2.582   8.376  0.0169 -0.3860  0.6192
  190POPC   H7R21908   6.584   2.665   8.359  1.1318 -0.9916  2.1725
  190POPC   H7S21909   6.413   2.612   8.337  0.1753 -1.0258 -0.2957
  190POPC   C2821910   6.561   2.457   8.298  0.6253 -0.0270 -0.0113
  190POPC   H8R21911   6.647   2.420   8.358  2.5891  0.7355 -2.2037
  190POPC   H8S21912   6.609   2.482   8.201  2.3286  0.1668  0.8458
  190POPC   C2921913   6.448   2.363   8.285  0.1940 -0.1548 -0.1877
  190POPC   H9121914   6.365   2.398   8.348 -0.3421  0.3680 -1.1639
  190POPC  C21021915   6.442   2.249   8.210 -0.2382  0.0954  0.9909
  190POPC  H10121916   6.351   2.187   8.208 -1.2868  1.5294 -2.1989
  190POPC  C21121917   6.544   2.199   8.109 -0.7189  0.0222  0.0275
  190POPC  H11R21918   6.556   2.090   8.126 -0.7658  0.2816  2.0036
  190POPC  H11S21919   6.640   2.252   8.127 -0.5539 -0.5102  0.7299
  190POPC  C21221920   6.504   2.235   7.965 -0.3969 -0.6427 -0.6278
  190POPC  H12R21921   6.599   2.232   7.908  1.2849 -0.2396  1.9588
  190POPC  H12S21922   6.473   2.342   7.962  0.1316 -0.2045  3.3434
  190POPC  C21321923   6.396   2.153   7.903  0.6253 -0.4411  0.1202
  190POPC  H13R21924   6.305   2.174   7.963  0.3975 -0.2804 -0.2827
  190POPC  H13S21925   6.414   2.047   7.930 -1.8015 -1.2186 -1.1116
  190POPC  C21421926   6.370   2.186   7.758  0.6831 -0.5823 -0.6048
  190POPC  H14R21927   6.431   2.112   7.701 -1.8163 -1.6767 -2.0212
  190POPC  H14S21928   6.405   2.288   7.733 -1.4477  0.6426  1.1114
  190POPC  C21521929   6.225   2.156   7.707 -0.4329  0.1458  0.4810
  190POPC  H15R21930   6.153   2.221   7.760 -1.5374 -1.1504  0.6276
  190POPC  H15S21931   6.209   2.053   7.746  1.6537  0.2345  1.7316
  190POPC  C21621932   6.197   2.182   7.555  0.1051  0.6473  0.3657
  190POPC  H16R21933   6.276   2.145   7.487 -0.3934  2.0326 -1.0440
  190POPC  H16S21934   6.205   2.293   7.553  0.8648  0.7354  3.4011
  190POPC  C21721935   6.056   2.135   7.518 -0.0949  0.6716 -0.1101
  190POPC  H17R21936   5.989   2.181   7.594 -1.6095 -0.9605 -0.3891
  190POPC  H17S21937   6.046   2.026   7.537 -0.1817  0.1244 -2.8523
  190POPC  C21821938   6.009   2.174   7.376  0.1513 -0.2081 -0.3049
  190POPC  H18R21939   6.008   2.285   7.374 -0.4808 -0.1997  0.1232
  190POPC  H18S21940   5.907   2.137   7.351  1.4234 -3.6114 -1.0003
  190POPC  H18T21941   6.068   2.123   7.297 -1.7610 -0.4991 -1.6300
  190POPC   C3321942   6.193   3.168   8.657 -0.6530 -0.0797 -0.4470
  190POPC   H3X21943   6.115   3.244   8.678  0.1803  0.7470 -0.2943
  190POPC   H3Y21944   6.144   3.068   8.650 -0.9375  0.0459 -0.2868
  190POPC   C3421945   6.259   3.191   8.525 -0.3611 -0.3742 -0.1386
  190POPC   H4X21946   6.330   3.275   8.540 -0.1535 -0.4928 -0.4504
  190POPC   H4Y21947   6.169   3.217   8.465 -2.2038 -0.9450  2.2043
  190POPC   C3521948   6.326   3.072   8.455 -0.3522  0.1775  0.1232
  190POPC   H5X21949   6.256   2.986   8.449 -1.2517  0.7664  1.5595
  190POPC   H5Y21950   6.409   3.035   8.519  0.5111 -0.4787 -1.3467
  190POPC   C3621951   6.374   3.116   8.315 -0.0183  0.0129  0.0166
  190POPC   H6X21952   6.430   3.211   8.324 -0.9789  0.6062 -0.0237
  190POPC   H6Y21953   6.295   3.148   8.243  0.8513  2.5952  0.0862
  190POPC   C3721954   6.449   3.009   8.236  0.8749  0.2296  0.3289
  190POPC   H7X21955   6.525   2.958   8.300  0.6882  1.5639  1.6836
  190POPC   H7Y21956   6.496   3.072   8.157 -0.3070 -0.1149 -0.6825
  190POPC   C3821957   6.355   2.898   8.195 -0.2186 -0.1208  0.6831
  190POPC   H8X21958   6.275   2.954   8.143 -0.7986  1.2767  2.9313
  190POPC   H8Y21959   6.311   2.847   8.283 -1.9658 -0.6567 -0.4475
  190POPC   C3921960   6.413   2.803   8.091  0.3740  0.2353  0.4074
  190POPC   H9X21961   6.496   2.738   8.126 -1.4626 -1.9991  0.8467
  190POPC   H9Y21962   6.442   2.865   8.004 -1.5447 -0.4907 -0.8185
  190POPC  C31021963   6.303   2.712   8.028 -0.4002 -0.2576  0.0067
  190POPC  H10X21964   6.207   2.761   8.000 -0.2162 -0.6787 -1.4551
  190POPC  H10Y21965   6.275   2.644   8.111 -0.4728  0.0035  0.1983
  190POPC  C31121966   6.353   2.635   7.909  0.1742  0.5043 -0.0215
  190POPC  H11X21967   6.277   2.560   7.880  0.3556  0.3862 -0.1925
  190POPC  H11Y21968   6.444   2.574   7.929  0.9981  0.1389 -4.0335
  190POPC  C31221969   6.371   2.728   7.780 -0.5560  0.1109  0.0834
  190POPC  H12X21970   6.455   2.798   7.799 -0.3483 -0.3377  0.8712
  190POPC  H12Y21971   6.274   2.776   7.757 -0.0551  1.4390  0.6250
  190POPC  C31321972   6.411   2.640   7.661  0.1615  0.6699  0.4387
  190POPC  H13X21973   6.345   2.554   7.637  1.3163  0.1454 -1.0172
  190POPC  H13Y21974   6.507   2.593   7.692  0.8115  0.4910 -1.6788
  190POPC  C31421975   6.448   2.726   7.539 -0.2906 -0.2478  0.1006
  190POPC  H14X21976   6.491   2.661   7.461  0.9367  0.9392 -0.2549
  190POPC  H14Y21977   6.515   2.805   7.579  0.1707 -0.7571  0.3358
  190POPC  C31521978   6.333   2.797   7.480  0.3181  1.1114  0.3551
  190POPC  H15X21979   6.290   2.870   7.553  0.2847  2.2217 -0.7408
  190POPC  H15Y21980   6.249   2.728   7.460  2.4886 -1.1419 -1.6443
  190POPC  C31621981   6.372   2.867   7.350 -0.5216  0.4433  0.2000
  190POPC  H16X21982   6.282   2.914   7.306 -1.8639 -2.3888 -0.2955
  190POPC  H16Y21983   6.410   2.800   7.270 -1.1988  0.5764 -0.2377
  190POPC  H16Z21984   6.442   2.950   7.377 -1.0975  1.0714 -0.2059
  191POPC     N21985   3.984   4.464   5.809  0.4841  0.4984 -0.6598
  191POPC   C1221986   3.948   4.316   5.799  0.1824 -0.1257  0.5398
  191POPC  H12A21987   4.022   4.268   5.736 -0.1769  0.3844 -0.2894
  191POPC  H12B21988   3.854   4.313   5.746  0.8186  0.8639 -0.6995
  191POPC   C1321989   3.871   4.538   5.879  0.1528  0.1015  0.1301
  191POPC  H13A21990   3.880   4.531   5.986 -2.2315  0.9208  0.4421
  191POPC  H13B21991   3.881   4.643   5.852 -0.7716 -0.1103 -1.1435
  191POPC  H13C21992   3.774   4.499   5.853  0.3685 -2.8752  3.1371
  191POPC   C1421993   4.114   4.473   5.892  1.0566 -0.0817 -0.2219
  191POPC  H14A21994   4.108   4.399   5.970  0.5300  0.8427  0.6359
  191POPC  H14B21995   4.198   4.448   5.830  1.7617  0.0736  0.6534
  191POPC  H14C21996   4.110   4.568   5.944 -3.1482 -0.7520  1.1354
  191POPC   C1521997   3.996   4.521   5.672 -0.6497  0.0106  0.4960
  191POPC  H15A21998   4.053   4.450   5.615 -1.4833 -0.3552  0.1026
  191POPC  H15B21999   4.053   4.612   5.662  0.5272 -0.8070 -0.5127
  191POPC  H15C22000   3.901   4.541   5.626 -0.2808 -1.1320 -0.8110
  191POPC   C1122001   3.940   4.242   5.937 -0.3230 -0.1067  0.6437
  191POPC  H11A22002   3.859   4.166   5.936 -1.3546  0.7473  3.9345
  191POPC  H11B22003   3.913   4.315   6.016 -0.3924  3.2184 -2.2306
  191POPC     P22004   4.100   4.042   5.907 -0.0354 -0.1878  0.3869
  191POPC   O1322005   4.018   4.041   5.783 -0.1808 -0.0838  0.7798
  191POPC   O1422006   4.086   3.928   6.001  0.6999  0.2550  0.0307
  191POPC   O1222007   4.064   4.181   5.977  0.4455  0.1568 -0.1969
  191POPC   O1122008   4.248   4.047   5.863 -0.0421  0.2141  0.0288
  191POPC    C122009   4.335   4.140   5.927 -0.0258 -0.9995  0.0656
  191POPC    HA22010   4.320   4.155   6.036 -0.8971  1.2969 -0.2958
  191POPC    HB22011   4.339   4.244   5.887 -1.2533  0.1708  2.7597
  191POPC    C222012   4.483   4.092   5.922 -0.2361 -0.5514  0.2246
  191POPC    HS22013   4.502   4.058   5.818 -0.5143  0.2688 -0.1052
  191POPC   O2122014   4.509   3.996   6.030 -0.1600 -0.5324  0.0107
  191POPC   C2122015   4.488   3.874   6.010 -0.0069 -0.8557 -0.2676
  191POPC   O2222016   4.466   3.827   5.897 -0.4092 -0.0202  0.4704
  191POPC   C2222017   4.487   3.793   6.144 -0.1485  0.6361 -0.3138
  191POPC   H2R22018   4.564   3.832   6.214  0.1892  1.3464 -1.0705
  191POPC   H2S22019   4.512   3.690   6.110 -1.1552 -0.3010  1.6106
  191POPC    C322020   4.578   4.219   5.940  0.2890  0.0140  0.5083
  191POPC    HX22021   4.546   4.290   5.860  1.9361 -1.2306 -1.3437
  191POPC    HY22022   4.681   4.180   5.931 -0.0623 -1.1281  1.2203
  191POPC   O3122023   4.555   4.285   6.067  0.4964  0.3716 -0.0043
  191POPC   C3122024   4.670   4.310   6.137 -0.1155 -1.1263  0.8008
  191POPC   O3222025   4.777   4.310   6.087 -0.4024  0.5204 -0.0192
  191POPC   C3222026   4.636   4.352   6.280  0.4044 -0.0235  0.0750
  191POPC   H2X22027   4.526   4.350   6.291  0.0704 -0.9517 -2.5243
  191POPC   H2Y22028   4.670   4.454   6.308 -1.9606  0.0959  2.9635
  191POPC   C2322029   4.351   3.796   6.211  0.8983 -0.5646 -0.0502
  191POPC   H3R22030   4.278   3.771   6.131 -0.8778  0.6252  1.1147
  191POPC   H3S22031   4.323   3.897   6.248 -1.8224 -1.2618  0.0218
  191POPC   C2422032   4.333   3.685   6.316 -0.1952  0.4527  0.8942
  191POPC   H4R22033   4.355   3.594   6.256  0.2265  0.0787  1.6044
  191POPC   H4S22034   4.229   3.673   6.353 -0.5394 -0.2065 -0.2409
  191POPC   C2522035   4.423   3.694   6.439  0.2273  0.3786  0.5875
  191POPC   H5R22036   4.395   3.786   6.494 -0.2408 -0.7317  2.2670
  191POPC   H5S22037   4.525   3.705   6.396  1.0056 -2.8115  1.3795
  191POPC   C2622038   4.431   3.577   6.537 -0.0545 -0.1419  0.2535
  191POPC   H6R22039   4.452   3.477   6.492  0.4732 -1.0357  2.3497
  191POPC   H6S22040   4.332   3.569   6.586  1.5206 -0.8951  3.5864
  191POPC   C2722041   4.528   3.610   6.648  0.0236 -0.0954 -0.6547
  191POPC   H7R22042   4.517   3.718   6.673  1.1128 -0.1882  0.2699
  191POPC   H7S22043   4.630   3.587   6.612  1.3213  0.2077  2.5004
  191POPC   C2822044   4.483   3.537   6.784  0.3034  0.4142 -0.8901
  191POPC   H8R22045   4.468   3.429   6.765  1.7807 -0.2688  1.4961
  191POPC   H8S22046   4.382   3.574   6.816 -0.6352 -0.6508 -2.4730
  191POPC   C2922047   4.585   3.573   6.887  0.6749  0.0230 -0.0313
  191POPC   H9122048   4.672   3.507   6.890  1.5718  1.1218 -0.8546
  191POPC  C21022049   4.579   3.687   6.963 -0.1460  0.3675 -0.2004
  191POPC  H10122050   4.665   3.713   7.027  0.2369 -2.7054  0.6944
  191POPC  C21122051   4.483   3.800   6.946  0.3209  0.5363 -0.3318
  191POPC  H11R22052   4.443   3.820   7.048  1.8429 -0.4880  0.5042
  191POPC  H11S22053   4.396   3.771   6.883 -0.5009  2.1694 -0.0131
  191POPC  C21222054   4.548   3.921   6.886 -0.7135  0.4576  0.0231
  191POPC  H12R22055   4.533   3.918   6.776 -1.7877  2.8723  0.0360
  191POPC  H12S22056   4.657   3.928   6.907 -0.9502  3.0249  0.7308
  191POPC  C21322057   4.476   4.054   6.930  0.0888 -0.1041  0.2554
  191POPC  H13R22058   4.478   4.064   7.040 -1.5332 -0.1975  0.3196
  191POPC  H13S22059   4.366   4.043   6.919  0.1550  0.7714 -1.7236
  191POPC  C21422060   4.525   4.177   6.848  0.1873 -0.5303  0.6261
  191POPC  H14R22061   4.447   4.256   6.840 -0.4295 -1.1716  0.1103
  191POPC  H14S22062   4.535   4.143   6.743 -1.7579 -1.6602  0.7517
  191POPC  C21522063   4.655   4.235   6.905 -0.0719  0.1529  0.4138
  191POPC  H15R22064   4.708   4.165   6.973  0.4375 -0.9750 -1.0748
  191POPC  H15S22065   4.627   4.323   6.966  0.2815  1.7077 -1.5695
  191POPC  C21622066   4.756   4.288   6.801 -0.3595 -0.0156  0.1301
  191POPC  H16R22067   4.699   4.350   6.729 -0.1801 -1.8281 -1.6714
  191POPC  H16S22068   4.794   4.205   6.737 -2.4494 -1.2111  0.3519
  191POPC  C21722069   4.860   4.383   6.858 -0.0841  0.8833  0.1412
  191POPC  H17R22070   4.821   4.470   6.916  1.1147  1.7392 -0.2844
  191POPC  H17S22071   4.919   4.426   6.774  0.6338  0.6876  0.5382
  191POPC  C21822072   4.958   4.311   6.956 -0.0405  0.1218 -0.4543
  191POPC  H18R22073   4.915   4.268   7.049  0.5138  0.9512  0.2074
  191POPC  H18S22074   5.024   4.395   6.988  0.9192 -0.1627 -1.6364
  191POPC  H18T22075   5.019   4.243   6.893 -0.6350 -0.0951 -0.7997
  191POPC   C3322076   4.691   4.242   6.385  0.4307  0.1051 -0.3266
  191POPC   H3X22077   4.658   4.290   6.480  0.3625 -0.2791 -0.1545
  191POPC   H3Y22078   4.802   4.236   6.381  0.3457 -1.9015 -0.6173
  191POPC   C3422079   4.627   4.093   6.387 -0.4568  0.7356 -0.0895
  191POPC   H4X22080   4.651   4.049   6.287 -0.2990 -0.5087  0.4820
  191POPC   H4Y22081   4.517   4.095   6.400 -0.6695  0.4367 -1.5928
  191POPC   C3522082   4.691   3.991   6.485  0.4983  0.2162 -0.0097
  191POPC   H5X22083   4.636   3.898   6.459  1.0935  0.2038 -1.2801
  191POPC   H5Y22084   4.672   4.020   6.591  1.9325 -0.1552  0.3668
  191POPC   C3622085   4.841   3.959   6.472 -0.0803 -0.4860 -0.6026
  191POPC   H6X22086   4.905   4.049   6.482 -0.9535  0.3817 -2.3811
  191POPC   H6Y22087   4.861   3.913   6.373  0.0864 -0.2434 -0.6834
  191POPC   C3722088   4.888   3.859   6.572 -0.2880 -0.0453 -0.8177
  191POPC   H7X22089   4.982   3.818   6.531 -0.2673  0.5275 -1.3483
  191POPC   H7Y22090   4.820   3.771   6.567 -0.0185 -0.4358  1.3431
  191POPC   C3822091   4.903   3.894   6.723  0.3690  0.2810  0.5169
  191POPC   H8X22092   4.812   3.934   6.774 -2.3270 -1.9384 -2.1947
  191POPC   H8Y22093   4.968   3.984   6.730 -0.6961  1.1375 -0.2684
  191POPC   C3922094   4.952   3.782   6.809 -0.3892 -0.5612 -0.8496
  191POPC   H9X22095   5.049   3.754   6.763  0.6845 -0.7283  1.3635
  191POPC   H9Y22096   4.871   3.706   6.817  0.4669 -1.4825 -0.7543
  191POPC  C31022097   4.979   3.837   6.949  0.0167  0.3038 -0.1607
  191POPC  H10X22098   4.876   3.874   6.969 -0.8512 -1.3006 -1.2898
  191POPC  H10Y22099   5.041   3.929   6.952 -0.5161  0.6607  2.7882
  191POPC  C31122100   5.012   3.737   7.068  0.2007 -0.1222  0.3024
  191POPC  H11X22101   5.116   3.700   7.051  0.1888  0.8960 -2.5433
  191POPC  H11Y22102   4.952   3.646   7.047 -0.7963  0.6750 -0.4145
  191POPC  C31222103   4.995   3.785   7.213  0.1596 -0.9624  0.2502
  191POPC  H12X22104   5.064   3.870   7.231 -0.0386 -0.6020 -0.6300
  191POPC  H12Y22105   5.023   3.698   7.275  0.0903 -1.2241 -0.0850
  191POPC  C31322106   4.852   3.823   7.239  0.0082  0.0164  0.2639
  191POPC  H13X22107   4.775   3.747   7.212 -0.2009 -0.0534  1.0193
  191POPC  H13Y22108   4.822   3.912   7.180 -0.8491  0.1796  0.9364
  191POPC  C31422109   4.817   3.851   7.384  0.3640  0.0377 -0.2753
  191POPC  H14X22110   4.834   3.761   7.447  0.1777  1.4224  1.8370
  191POPC  H14Y22111   4.708   3.871   7.392  0.3903 -0.2953  1.0079
  191POPC  C31522112   4.895   3.968   7.448 -0.6641 -0.9132  0.3697
  191POPC  H15X22113   4.996   3.966   7.403 -1.0328  0.4639 -0.6024
  191POPC  H15Y22114   4.902   3.955   7.558  0.6228  1.7999  0.6814
  191POPC  C31622115   4.848   4.116   7.414  0.5470  0.4304 -0.6824
  191POPC  H16X22116   4.745   4.142   7.449  0.4356 -1.6651  0.7191
  191POPC  H16Y22117   4.839   4.133   7.305 -1.1033  2.2689 -0.3227
  191POPC  H16Z22118   4.915   4.196   7.452  1.0850  0.8077 -2.3649
  192POPC     N22119   3.144   6.736   5.625 -0.3556 -0.6048  0.4098
  192POPC   C1222120   3.200   6.758   5.760  0.2331  0.1838 -0.1690
  192POPC  H12A22121   3.199   6.865   5.776  0.0656  0.5606 -2.3861
  192POPC  H12B22122   3.305   6.731   5.765  0.1310 -0.0657  0.7734
  192POPC   C1322123   3.199   6.842   5.534 -0.3595 -0.4870 -0.6893
  192POPC  H13A22124   3.152   6.931   5.575 -1.5796 -1.6437  0.5209
  192POPC  H13B22125   3.307   6.838   5.543 -0.5120 -1.3296  1.2424
  192POPC  H13C22126   3.168   6.828   5.432  0.7948  0.3957 -1.1911
  192POPC   C1422127   3.172   6.598   5.571 -0.0951  0.3869  0.1582
  192POPC  H14A22128   3.127   6.577   5.475 -0.4219 -2.9244  0.8959
  192POPC  H14B22129   3.279   6.586   5.563 -0.2693 -0.2426 -1.9909
  192POPC  H14C22130   3.132   6.531   5.645 -1.1762  0.1020 -0.6537
  192POPC   C1522131   2.999   6.755   5.636  0.2528  0.7070  0.5999
  192POPC  H15A22132   2.959   6.713   5.545  1.2086 -0.3521  0.6403
  192POPC  H15B22133   2.972   6.859   5.650 -1.0760  0.3304  0.9301
  192POPC  H15C22134   2.950   6.708   5.719 -0.6081  0.9298  0.2314
  192POPC   C1122135   3.142   6.687   5.885 -0.1377  0.4123 -0.4445
  192POPC  H11A22136   3.052   6.748   5.909  0.5396  1.8521 -1.4381
  192POPC  H11B22137   3.213   6.700   5.970 -1.3019 -1.0689  0.8177
  192POPC     P22138   2.972   6.492   5.904 -0.0975 -0.0800 -0.1958
  192POPC   O1322139   2.950   6.363   5.835  0.1207 -0.2760 -0.7652
  192POPC   O1422140   2.867   6.599   5.883 -0.3264  0.2144 -0.0052
  192POPC   O1222141   3.118   6.541   5.864  0.6872 -0.5809 -0.0884
  192POPC   O1122142   2.977   6.462   6.059 -0.1038 -0.3335  0.1626
  192POPC    C122143   3.090   6.395   6.119  0.3367  0.5752 -0.0273
  192POPC    HA22144   3.087   6.404   6.230 -2.0046 -0.3994  0.0440
  192POPC    HB22145   3.182   6.450   6.089 -1.6135  2.4073 -3.0932
  192POPC    C222146   3.107   6.245   6.090 -0.1459 -0.4001  0.3207
  192POPC    HS22147   3.135   6.229   5.984 -0.1087  0.3785  0.2058
  192POPC   O2122148   2.981   6.192   6.117  0.4715  0.2587  0.0694
  192POPC   C2122149   2.953   6.064   6.066  0.4308 -0.2827  0.1087
  192POPC   O2222150   3.034   5.992   6.017  0.2289  0.0070 -0.3407
  192POPC   C2222151   2.808   6.030   6.109  0.0362 -0.0693 -0.3023
  192POPC   H2R22152   2.756   6.016   6.012  2.1860 -1.3531 -1.3283
  192POPC   H2S22153   2.768   6.117   6.165 -0.1489 -1.9386  2.6972
  192POPC    C322154   3.227   6.187   6.183  0.2880  0.1349  1.1629
  192POPC    HX22155   3.317   6.250   6.167 -0.3146  0.6945 -0.1252
  192POPC    HY22156   3.244   6.080   6.157  1.7561  0.4772  0.6310
  192POPC   O3122157   3.185   6.192   6.320  0.2599 -0.3296 -0.1544
  192POPC   C3122158   3.274   6.147   6.404  0.0283  0.1070  0.4216
  192POPC   O3222159   3.387   6.112   6.376  0.2906  0.1273  0.2751
  192POPC   C3222160   3.211   6.126   6.541  0.2516 -0.0564 -0.4761
  192POPC   H2X22161   3.110   6.080   6.528  0.1700  0.5940 -2.5387
  192POPC   H2Y22162   3.180   6.228   6.572  0.6142 -0.6381  2.0532
  192POPC   C2322163   2.794   5.893   6.187  0.1331  0.1164  0.1230
  192POPC   H3R22164   2.852   5.812   6.139 -0.4318 -0.8102  0.9544
  192POPC   H3S22165   2.692   5.854   6.163  1.3832 -1.9827 -2.2783
  192POPC   C2422166   2.822   5.916   6.339  0.1190 -0.1734 -0.0788
  192POPC   H4R22167   2.765   6.009   6.358  0.0459  0.4413 -2.8048
  192POPC   H4S22168   2.925   5.950   6.361 -0.6274  0.9445  1.8774
  192POPC   C2522169   2.780   5.811   6.433 -0.7458  0.5744 -0.1155
  192POPC   H5R22170   2.832   5.718   6.402  1.4228  1.1546  1.5486
  192POPC   H5S22171   2.671   5.805   6.413 -0.8643 -1.5299  0.8633
  192POPC   C2622172   2.804   5.866   6.578  0.4574  0.3885 -0.4890
  192POPC   H6R22173   2.733   5.951   6.592  0.7878  0.5266  0.4196
  192POPC   H6S22174   2.906   5.911   6.586 -0.0312  1.5184 -0.4065
  192POPC   C2722175   2.770   5.759   6.677 -0.4335  0.3289 -0.7092
  192POPC   H7R22176   2.815   5.659   6.655 -1.7886 -0.3760 -0.3436
  192POPC   H7S22177   2.663   5.737   6.656 -1.2501  2.2744  1.1390
  192POPC   C2822178   2.780   5.792   6.827 -0.1298  0.4138 -0.3375
  192POPC   H8R22179   2.887   5.776   6.855 -0.4601  0.9123  1.3286
  192POPC   H8S22180   2.742   5.702   6.880  2.0163  0.0432  0.7018
  192POPC   C2922181   2.733   5.926   6.872  0.2433 -0.3679 -0.4331
  192POPC   H9122182   2.738   6.007   6.798  1.1319  0.9490  0.9905
  192POPC  C21022183   2.680   5.960   6.994  0.1045 -0.1237 -0.3070
  192POPC  H10122184   2.645   6.064   7.002 -2.9686 -1.0173 -0.6388
  192POPC  C21122185   2.658   5.861   7.115 -0.6641  0.2332 -0.1011
  192POPC  H11R22186   2.717   5.892   7.204  2.8625 -1.5716 -1.6207
  192POPC  H11S22187   2.695   5.758   7.097  2.1664  0.9983  0.8590
  192POPC  C21222188   2.508   5.855   7.152  0.3222 -0.8412  0.4663
  192POPC  H12R22189   2.496   5.773   7.226  1.7687 -1.1094  0.4297
  192POPC  H12S22190   2.456   5.825   7.058  0.5977  0.2791 -0.0600
  192POPC  C21322191   2.460   5.990   7.205 -0.0135  0.4408 -0.2968
  192POPC  H13R22192   2.427   6.050   7.118 -1.6217 -0.6471 -0.4592
  192POPC  H13S22193   2.535   6.059   7.250 -1.5159  1.0006  1.4772
  192POPC  C21422194   2.345   5.994   7.310 -0.0733  0.5912 -0.0390
  192POPC  H14R22195   2.385   5.984   7.413 -1.5575  1.4384  0.6574
  192POPC  H14S22196   2.275   5.908   7.303  0.9874 -0.3434  0.6254
  192POPC  C21522197   2.267   6.122   7.303 -0.1955 -0.0424 -0.0902
  192POPC  H15R22198   2.193   6.131   7.220 -0.3563  1.9528  0.2079
  192POPC  H15S22199   2.337   6.207   7.287  1.3396 -1.6084 -2.1960
  192POPC  C21622200   2.199   6.160   7.434 -0.3986  0.5213  0.0147
  192POPC  H16R22201   2.136   6.069   7.448 -1.3851  0.5214 -3.4018
  192POPC  H16S22202   2.123   6.241   7.435  1.1999  2.0782  1.5785
  192POPC  C21722203   2.296   6.184   7.549  0.4299 -0.0530 -0.6745
  192POPC  H17R22204   2.352   6.274   7.517 -0.7164  0.6009 -0.8861
  192POPC  H17S22205   2.360   6.098   7.576 -0.0166 -0.0270  0.5453
  192POPC  C21822206   2.213   6.208   7.674 -0.3710  0.2358 -0.4136
  192POPC  H18R22207   2.137   6.129   7.692 -0.4831  0.6569  1.0166
  192POPC  H18S22208   2.170   6.311   7.668 -0.4346  0.1838 -0.9628
  192POPC  H18T22209   2.280   6.211   7.762  1.3050  1.5878 -1.6544
  192POPC   C3322210   3.303   6.058   6.642 -0.7302  0.1631 -0.3099
  192POPC   H3X22211   3.405   6.100   6.632 -0.6887 -0.1198 -1.1300
  192POPC   H3Y22212   3.301   5.949   6.619 -0.3982  0.3523 -1.2664
  192POPC   C3422213   3.265   6.077   6.790 -0.0024  0.4129  0.0175
  192POPC   H4X22214   3.292   6.184   6.807  1.4836 -0.0818  0.9351
  192POPC   H4Y22215   3.332   6.024   6.860 -2.2050 -2.2043  0.2975
  192POPC   C3522216   3.115   6.055   6.832 -0.6121  0.3155 -0.6343
  192POPC   H5X22217   3.087   5.955   6.792 -0.3699 -1.1423  2.5141
  192POPC   H5Y22218   3.051   6.135   6.790 -0.8391  0.5735  0.1885
  192POPC   C3622219   3.081   6.053   6.982  0.5044  0.7855 -0.0695
  192POPC   H6X22220   2.971   6.048   6.990  0.5313  0.3987  0.0955
  192POPC   H6Y22221   3.122   6.147   7.025 -0.0968  0.4650  1.2647
  192POPC   C3722222   3.158   5.949   7.060 -0.2543 -0.4161 -0.4463
  192POPC   H7X22223   3.265   5.977   7.056  0.1467 -1.8090 -0.1395
  192POPC   H7Y22224   3.145   5.853   7.005 -1.0971 -0.3987 -0.2924
  192POPC   C3822225   3.108   5.953   7.204  0.1697  0.1224 -0.6091
  192POPC   H8X22226   2.999   5.969   7.193  0.2101  0.0052 -1.2356
  192POPC   H8Y22227   3.145   6.042   7.260  1.0244  0.0477 -1.0258
  192POPC   C3922228   3.134   5.828   7.287  0.2679  0.6743 -0.3440
  192POPC   H9X22229   3.095   5.844   7.389 -0.1224  0.3000 -0.4303
  192POPC   H9Y22230   3.244   5.825   7.298  0.1811  0.2942  0.4157
  192POPC  C31022231   3.082   5.697   7.225 -0.1723  0.3815 -0.5493
  192POPC  H10X22232   3.139   5.672   7.133 -0.0552 -0.0467 -0.3591
  192POPC  H10Y22233   2.974   5.711   7.203 -0.0667  2.5078 -0.0050
  192POPC  C31122234   3.091   5.584   7.332 -0.3162 -0.1699  0.4371
  192POPC  H11X22235   3.037   5.621   7.422  1.1119  2.3828  0.3579
  192POPC  H11Y22236   3.194   5.569   7.372 -0.0129 -1.4869 -0.7438
  192POPC  C31222237   3.038   5.447   7.287  0.5117  0.3543  0.1702
  192POPC  H12X22238   3.059   5.383   7.375  1.0529  2.5921  1.7347
  192POPC  H12Y22239   3.105   5.423   7.202  0.3501  1.3113 -0.2422
  192POPC  C31322240   2.891   5.455   7.231  0.2270  0.0594  0.0151
  192POPC  H13X22241   2.845   5.357   7.207 -0.8946  0.4586  0.4423
  192POPC  H13Y22242   2.900   5.504   7.131 -1.1357 -0.8501 -0.5826
  192POPC  C31422243   2.790   5.509   7.339 -0.8585 -0.3795 -0.1924
  192POPC  H14X22244   2.695   5.528   7.285 -1.7478  1.9815  2.0205
  192POPC  H14Y22245   2.822   5.610   7.372  1.6834 -1.9181  2.5036
  192POPC  C31522246   2.743   5.414   7.451  0.2868  0.5660  0.6553
  192POPC  H15X22247   2.739   5.312   7.408  3.7690  1.1731 -1.5345
  192POPC  H15Y22248   2.639   5.442   7.478 -0.0065  0.7015 -0.5686
  192POPC  C31622249   2.831   5.410   7.574  0.0480 -0.4048  0.1499
  192POPC  H16X22250   2.793   5.343   7.654  0.5600 -1.1369 -0.2196
  192POPC  H16Y22251   2.836   5.515   7.611 -0.8388 -0.1278 -0.4709
  192POPC  H16Z22252   2.936   5.388   7.546 -0.2124 -0.7321 -0.5907
  193SOD    SOD22253   4.159   2.922   3.998  0.0603  0.4631  0.5349
  194SOD    SOD22254   4.521   5.940  15.069 -0.1298  0.0679 -0.1049
  195SOD    SOD22255   0.229   2.855  10.324  0.3403 -0.5836  0.7801
  196SOD    SOD22256   3.702   0.944  10.252  0.5230 -0.1583 -0.6292
  197SOD    SOD22257   3.676   3.800   2.761 -0.1396 -0.0898  0.2748
  198SOD    SOD22258   6.047   3.678   2.748 -0.2093  0.2652 -0.1123
  199SOD    SOD22259   1.651   2.233  15.305  0.0841  0.0208 -0.0089
  200SOD    SOD22260   3.779   2.836   5.297 -0.0439  0.0616  0.0963
  201SOD    SOD22261   6.213   1.088   3.134 -0.4085 -0.6725 -0.4492
  202SOD    SOD22262   1.763   5.505  11.216 -0.1904 -0.0204 -0.5681
  203SOD    SOD22263   6.394   0.367   2.663  0.1406 -0.5559  0.7822
  204SOD    SOD22264   4.086   4.137   1.434  0.5397 -0.4874 -0.3613
  205SOD    SOD22265   4.013   2.129  13.883 -0.1429 -0.4221  0.2864
  206SOD    SOD22266   0.558   5.476  13.228  0.0276 -0.3808  0.0497
  207SOD    SOD22267   4.832   4.377   1.146  0.1747 -0.1529 -0.1641
  208SOD    SOD22268   6.399   2.431  11.703 -0.1131  0.4628  0.0275
  209SOD    SOD22269   3.060   0.374   1.368 -0.4137 -0.0359 -0.0298
  210SOD    SOD22270   6.928   1.562  12.397  0.2354  0.0891  0.6496
  211SOD    SOD22271   6.413   4.094  12.132 -0.0146 -0.1862  0.1706
  212SOD    SOD22272   3.845   5.023   3.815 -0.0624 -0.0861 -0.0751
  213SOD    SOD22273   5.811   1.391   0.678 -0.0998 -0.0582 -0.1316
  214SOD    SOD22274   4.162   3.559   9.994  0.0819  0.5284  0.4094
  215SOD    SOD22275   5.881   2.294  10.597 -0.8830  0.4175  0.1826
  216SOD    SOD22276   2.225   2.775  15.431 -0.2366  0.2099 -0.0806
  217SOD    SOD22277   2.881   5.694  10.287 -0.5121 -0.1110 -0.2113
  218SOD    SOD22278   2.209   4.901  11.081 -0.1267 -0.8150 -0.6299
  219SOD    SOD22279   2.195   3.417   1.852  0.0784 -0.2682 -0.3854
  220SOD    SOD22280   0.456   0.410   4.188  0.3648  0.0236  0.5625
  221SOD    SOD22281   5.080   4.010   4.518 -0.0853  0.2091 -0.0275
  222SOD    SOD22282   0.156   2.894  13.144  0.1723  0.2255 -0.7520
  223SOD    SOD22283   5.174   1.736   0.447  0.3962 -0.2481  0.8258
  224SOD    SOD22284   1.793   4.724   3.661  0.1547 -0.1984 -0.2238
  225SOD    SOD22285   4.789   2.494   9.756 -0.7863 -0.2161  0.7529
  226SOD    SOD22286   1.162   3.328   1.121 -0.2311 -0.3612  0.1580
  227SOD    SOD22287   4.799   7.087  10.091  0.1505 -0.1579  0.0941
  228SOD    SOD22288   3.255   0.238  12.662 -0.4997 -0.2554  0.1666
  229SOD    SOD22289   0.416   3.476   5.098 -0.3294 -0.3510  0.5623
  230SOD    SOD22290   3.718   6.216  11.511  0.3721  0.1670 -0.2547
  231SOD    SOD22291   6.081   5.333   4.939 -0.0037 -0.0227 -0.0210
  232SOD    SOD22292   2.622   6.421  11.302 -0.1328 -0.1370 -0.3586
  233SOD    SOD22293   1.698   1.085  14.927  0.3527  0.7319 -0.1454
  234SOD    SOD22294   0.757   6.098   2.956  0.0047 -0.0359 -0.1511
  235SOD    SOD22295   0.659   5.082   5.644 -0.2584 -0.0902 -0.0407
  236SOD    SOD22296   2.427   1.008   4.551  0.3741 -0.4771 -0.1505
  237SOD    SOD22297   5.814   7.045   4.014  0.4245 -0.3336 -0.2577
  238SOD    SOD22298   4.849   6.937  11.226  0.0062  0.3317 -0.6787
  239SOD    SOD22299   3.300   3.268   2.124 -0.1507  0.0090 -0.7179
  240SOD    SOD22300   3.681   5.683  13.293 -0.4464 -0.0916 -0.0615
  241SOD    SOD22301   0.171   3.999   5.706  0.5590  0.4120  0.1498
  242SOD    SOD22302   1.311   6.749  11.755 -0.1649  0.2040  0.4209
  243SOD    SOD22303   5.635   6.895  14.710 -0.0963  0.1925  0.4355
  244SOD    SOD22304   1.310   1.077   0.522  0.3570  0.2865 -0.3728
  245SOD    SOD22305   3.272   2.499   5.523  0.1927  0.3210  0.5278
  246SOD    SOD22306   6.454   2.288  10.196 -0.8138 -0.5629 -0.4262
  247SOD    SOD22307   6.212   0.489  10.736 -0.1928  0.0246  0.0973
  248SOD    SOD22308   5.361   4.722   0.689 -0.4547  0.3611 -0.3760
  249SOD    SOD22309   6.302   3.912   1.806  0.0257  0.5033 -0.4646
  250SOD    SOD22310   1.739   5.868   0.676  0.6425  0.0151  0.3589
  251SOD    SOD22311   6.055   6.664  10.017  0.0341 -0.4966 -0.3051
  252SOD    SOD22312   6.981   5.976   1.491  0.2573 -0.1711 -0.1404
  253SOD    SOD22313   1.581   0.571  13.428 -0.2502  0.3633  0.1900
  254SOD    SOD22314   1.617   0.709  12.119  0.1435 -0.6268  0.0200
  255SOD    SOD22315   3.693   4.587  10.232 -0.1402  0.2517 -0.0431
  256SOD    SOD22316   4.360   4.652   5.365  0.0143  0.2816 -0.3930
  257SOD    SOD22317   0.306   0.019   5.664 -0.0254 -0.3442 -0.3206
  258SOD    SOD22318   5.361   3.179  15.139  0.3968  0.3180 -0.5022
  259SOD    SOD22319   3.975   5.108  11.738 -0.0520  0.2762 -0.0534
  260SOD    SOD22320   4.248   3.405  14.861 -0.4642  0.2096 -0.5357
  261SOD    SOD22321   1.574   6.928   9.865 -0.0878 -0.2243  0.6240
  262SOD    SOD22322   2.560   2.894   4.799  0.4255  0.0477  0.2954
  263SOD    SOD22323   5.659   3.776  14.371 -1.0280 -0.0131  0.3720
  264SOD    SOD22324   4.252   3.319   3.635 -0.1371  0.7622  0.6258
  265SOD    SOD22325   6.356   3.131   9.959  0.3744  0.2428 -0.0691
  266SOD    SOD22326   4.056   2.784  11.851  0.2439 -0.2977 -0.0185
  267SOD    SOD22327   2.846   3.175   5.190 -0.2261 -0.3753  0.2428
  268SOD    SOD22328   3.541   4.626  11.779  0.2487 -0.4705 -0.0012
  269SOD    SOD22329   2.478   0.909   3.034 -0.4787 -0.2951 -0.5606
  270CLA    CLA22330   0.968   5.824   2.626 -0.0461  0.1691  0.3128
  271CLA    CLA22331   7.083   2.131  12.746  0.0845 -0.2565 -0.2832
  272CLA    CLA22332   2.336   1.408   2.984  0.1397  0.5107  0.2875
  273CLA    CLA22333   6.098   0.742  13.034  0.0156  0.0434  0.1342
  274CLA    CLA22334   4.509   4.769   3.046  0.0827  0.2222 -0.2463
  275CLA    CLA22335   4.117   0.372   1.130 -0.1471 -0.3252 -0.2439
  276CLA    CLA22336   4.533   0.856   4.352 -0.1110 -0.1347 -0.0928
  277CLA    CLA22337   1.735   2.934   0.077 -0.1607  0.1980 -0.2593
  278CLA    CLA22338   4.509   4.308   1.815 -0.3969 -0.0006  0.0888
  279CLA    CLA22339   2.863   2.542   3.910 -0.3526  0.1123  0.3970
  280CLA    CLA22340   5.154   6.378  14.490 -0.3212 -0.0075  0.1143
  281CLA    CLA22341   6.819   2.891  11.242 -0.0596 -0.0100 -0.3530
  282CLA    CLA22342   2.360   6.531  11.640 -0.1040 -0.2686 -0.2443
  283CLA    CLA22343   0.279   6.447  13.540  0.0158 -0.0107  0.2291
  284CLA    CLA22344   3.274   4.927  11.441  0.3400 -0.1006 -0.0429
  285CLA    CLA22345   6.763   2.752  10.463 -0.1860  0.1994  0.2961
  286CLA    CLA22346   4.591   2.117   3.353  0.5447  0.1198  0.0968
  287CLA    CLA22347   6.301   3.750   0.131 -0.5056  0.3265 -0.0620
  288CLA    CLA22348   5.188   3.483   0.386  0.6940  0.2699  0.2247
  289CLA    CLA22349   1.216   3.507   1.886  0.1032  0.0357  0.3288
  290CLA    CLA22350   0.281   4.197   4.199  0.0687 -0.3435 -0.1861
  291CLA    CLA22351   7.016   2.417   3.873 -0.1633 -0.2481 -0.0347
  292CLA    CLA22352   1.427   1.353  15.372  0.1847  0.4034  0.2243
  293CLA    CLA22353   4.582   1.141  13.311 -0.0492 -0.4017 -0.5256
  294CLA    CLA22354   5.957   6.109  15.051 -0.0038  0.0181  0.2315
  295CLA    CLA22355   2.763   5.334   0.184  0.4066 -0.1346 -0.3387
  296CLA    CLA22356   2.986   1.322  11.675 -0.1188 -0.5255  0.1845
  297CLA    CLA22357   3.327   6.355  10.986 -0.4193  0.0544  0.2978
  298CLA    CLA22358   0.827   1.520  13.595 -0.0203 -0.2022 -0.1271
  299CLA    CLA22359   5.046   2.388   3.268  0.2395 -0.2726 -0.5733
  300CLA    CLA22360   3.286   1.201  10.610  0.1336  0.1564  0.2433
  301CLA    CLA22361   5.466   1.875  14.213  0.1533 -0.0191 -0.0024
  302CLA    CLA22362   3.555   6.854  14.294 -0.3967 -0.2337  0.2018
  303CLA    CLA22363   1.825   3.597   1.082 -0.2511  0.6810  0.0825
  304CLA    CLA22364   3.743   3.369   3.608 -0.1234  0.1310 -0.1979
  305CLA    CLA22365   6.601   0.579   3.235  0.1460  0.7270 -0.1671
  306CLA    CLA22366   0.172   3.710   3.642 -0.4603  0.1278 -0.1383
  307CLA    CLA22367   5.321   5.319  15.415 -0.3719 -0.0156 -0.1630
  308CLA    CLA22368   2.679   7.032  13.046 -0.3597  0.0491 -0.3567
  309CLA    CLA22369   4.648   6.515   0.413  0.3610 -0.6660 -0.1256
  310CLA    CLA22370   1.053   6.348  11.848  0.0502  0.0302  0.2489
  311CLA    CLA22371   3.233   3.568   0.542  0.1117  0.0948 -0.4448
  312CLA    CLA22372   5.991   0.219  15.139 -0.4635 -0.3037  0.0145
  313CLA    CLA22373   0.825   5.082   0.612  0.2229 -0.0294  0.2215
  314CLA    CLA22374   5.287   4.223   3.857  0.1956  0.2749 -0.2162
  315CLA    CLA22375   0.005   5.520   3.587  0.5978  0.4649  0.2584
  316CLA    CLA22376   6.322   3.973  11.504  0.4369  0.2228  0.0137
  317CLA    CLA22377   7.124   2.270  13.648 -0.1182  0.1929  0.4890
  318CLA    CLA22378   4.075   5.029  10.613 -0.1061  0.1757  0.1326
  319CLA    CLA22379   7.018   3.825  13.570 -0.2153  0.0664  0.0425
  320CLA    CLA22380   4.768   3.668   1.474  0.3180 -0.1743  0.0847
  321CLA    CLA22381   3.528   4.112  12.731  0.2163 -0.0320 -0.1499
  322CLA    CLA22382   0.342   5.503  12.575  0.2102 -0.3110  0.0019
  323TIP3   OH222383   3.694   4.069  14.356 -0.9635 -0.0625 -0.1552
  323TIP3    H122384   3.686   4.112  14.441  0.4535 -2.0274  1.0666
  323TIP3    H222385   3.750   4.127  14.305 -0.2442  0.2302  0.9391
  324TIP3   OH222386   6.432   5.848   5.372 -0.0218 -0.4124 -0.1714
  324TIP3    H122387   6.479   5.922   5.333 -1.9404  1.8112  1.4664
  324TIP3    H222388   6.461   5.846   5.463 -1.5841 -0.2371  0.3614
  325TIP3   OH222389   6.188   6.076  10.595 -0.1900 -0.5588  0.5530
  325TIP3    H122390   6.169   6.170  10.606 -1.5548 -0.9450  1.8234
  325TIP3    H222391   6.152   6.055  10.509 -2.5908 -0.4866  1.4563
  326TIP3   OH222392   6.621   2.369   9.750  0.1342 -0.3870  0.2200
  326TIP3    H122393   6.695   2.314   9.725 -0.6339 -1.7646  0.8554
  326TIP3    H222394   6.657   2.458   9.753  1.3088 -0.7719 -1.2460
  327TIP3   OH222395   5.307   1.740  10.186  0.1042  0.2359 -0.1511
  327TIP3    H122396   5.276   1.817  10.233 -0.1153  0.6480 -0.9558
  327TIP3    H222397   5.372   1.701  10.245  0.1812  0.9988  0.2889
  328TIP3   OH222398   3.608   6.187   3.924 -0.0297 -0.4069  0.4020
  328TIP3    H122399   3.671   6.218   3.990 -0.9477  1.8021  0.3255
  328TIP3    H222400   3.663   6.150   3.854  1.0518 -0.6424  1.3458
  329TIP3   OH222401   0.765   4.306  11.012 -0.0495  0.0809 -0.2397
  329TIP3    H122402   0.858   4.314  10.990  0.1784 -1.5708  0.0029
  329TIP3    H222403   0.719   4.325  10.931  0.5950 -1.2021 -0.9353
  330TIP3   OH222404   6.035   3.133   1.744  0.0489  0.0127  0.5201
  330TIP3    H122405   5.977   3.204   1.718  0.3164 -0.0880 -0.3963
  330TIP3    H222406   6.046   3.081   1.665  0.7196 -0.4419  0.8998
  331TIP3   OH222407   2.629   2.594  15.227  0.8016  0.1051 -0.4018
  331TIP3    H122408   2.597   2.539  15.156  0.5552 -3.3078  2.1142
  331TIP3    H222409   2.721   2.609  15.207  0.4589  0.2873 -1.9911
  332TIP3   OH222410   4.261   4.694  12.967  0.3417 -0.0548 -0.8510
  332TIP3    H122411   4.272   4.621  12.907  0.6213  0.7328 -1.7883
  332TIP3    H222412   4.181   4.738  12.937  0.0134 -0.1352 -0.1177
  333TIP3   OH222413   0.165   3.889   3.192 -0.2793 -0.3316 -0.4304
  333TIP3    H122414   0.227   3.819   3.173  2.1435  1.3361  0.8817
  333TIP3    H222415   0.162   3.894   3.288 -0.6468  1.1049 -0.4869
  334TIP3   OH222416   3.114   0.168   1.009 -0.3616 -0.5615 -0.4495
  334TIP3    H122417   3.064   0.123   0.941 -2.2244 -1.5784  1.4910
  334TIP3    H222418   3.142   0.099   1.069 -1.1081  0.5363  1.2552
  335TIP3   OH222419   0.553   6.543  13.711 -0.0257 -0.2611 -0.4927
  335TIP3    H122420   0.489   6.500  13.654  1.0315 -2.9429  0.1648
  335TIP3    H222421   0.627   6.482  13.713  2.6439  2.7046 -1.2546
  336TIP3   OH222422   4.725   1.852  11.118 -0.8969 -0.2891 -0.4241
  336TIP3    H122423   4.641   1.812  11.140 -1.1111  0.2021 -0.3353
  336TIP3    H222424   4.780   1.835  11.194 -1.1580  0.0665 -0.1548
  337TIP3   OH222425   1.094   0.412  11.873 -1.0601 -0.0441  0.1656
  337TIP3    H122426   1.021   0.473  11.879 -0.5981  0.4644  0.7203
  337TIP3    H222427   1.163   0.452  11.926 -1.0396 -1.4701  1.2753
  338TIP3   OH222428   4.774   2.462  14.026 -0.0610 -0.3124 -0.0428
  338TIP3    H122429   4.747   2.497  14.111 -0.7824 -1.2375  0.1310
  338TIP3    H222430   4.839   2.525  13.994 -2.9404  2.5310 -0.8578
  339TIP3   OH222431   3.026   3.096  11.023  0.5143 -0.3206  0.2954
  339TIP3    H122432   3.061   3.115  10.936 -0.6402 -1.2882 -0.4289
  339TIP3    H222433   2.934   3.123  11.018  0.6405  0.4026  1.5073
  340TIP3   OH222434   0.313   3.321  11.601  0.5232  0.9814 -0.0178
  340TIP3    H122435   0.373   3.393  11.620  0.7493  0.8539 -0.2326
  340TIP3    H222436   0.308   3.271  11.682  1.1740  0.6591 -0.1739
  341TIP3   OH222437   0.450   4.549  14.752 -0.2031  0.1455 -0.3630
  341TIP3    H122438   0.486   4.628  14.710 -1.0411  0.9547  0.3839
  341TIP3    H222439   0.469   4.479  14.690  3.8997  0.1831  0.5306
  342TIP3   OH222440   1.243   6.889  14.225  0.2766  0.0994  0.0219
  342TIP3    H122441   1.210   6.855  14.141 -4.2261  0.0912  1.5203
  342TIP3    H222442   1.279   6.975  14.204 -1.6325  0.5262 -1.8608
  343TIP3   OH222443   7.095   7.032  14.239  0.6695 -0.0948  0.5710
  343TIP3    H122444   7.036   7.049  14.166  1.2979  0.3430  0.1590
  343TIP3    H222445   7.152   7.108  14.242  1.3457 -0.6047  0.8331
  344TIP3   OH222446   1.100   2.817  14.181  0.5370  0.2523 -0.7221
  344TIP3    H122447   1.161   2.876  14.225  0.2876 -0.3807  0.5179
  344TIP3    H222448   1.154   2.768  14.120  1.3160 -0.3371  0.4015
  345TIP3   OH222449   2.396   0.210  13.024  0.4081  0.0462 -0.1793
  345TIP3    H122450   2.406   0.222  12.929 -1.9237  0.5438 -0.4307
  345TIP3    H222451   2.484   0.219  13.059  1.3328 -0.1624 -2.3009
  346TIP3   OH222452   1.577   6.177  11.883  0.0748  0.5081 -0.0676
  346TIP3    H122453   1.539   6.164  11.970  0.5968 -0.1137  0.0705
  346TIP3    H222454   1.504   6.204  11.828 -0.3267  0.5359  0.4815
  347TIP3   OH222455   2.310   0.279   1.979 -0.0785  0.1565 -0.6493
  347TIP3    H122456   2.391   0.312   2.017 -1.3464  1.8361  0.7613
  347TIP3    H222457   2.264   0.357   1.948 -0.7581 -0.8399 -2.3102
  348TIP3   OH222458   4.416   1.732  10.843  0.3417 -0.2031 -0.0943
  348TIP3    H122459   4.326   1.707  10.819  1.1089 -1.1705 -2.1873
  348TIP3    H222460   4.410   1.825  10.865 -1.1955 -0.2919 -0.0031
  349TIP3   OH222461   0.287   0.645  15.038  0.2000  0.1413  0.7071
  349TIP3    H122462   0.276   0.561  15.084  0.1472 -0.7501 -0.8635
  349TIP3    H222463   0.357   0.689  15.086  0.4861 -0.9609  1.3429
  350TIP3   OH222464   4.205   5.760  11.542 -0.6155 -0.5677 -0.3858
  350TIP3    H122465   4.148   5.825  11.582  1.1153  1.6313 -1.2897
  350TIP3    H222466   4.270   5.740  11.609  0.3116  0.5755 -0.9108
  351TIP3   OH222467   6.928   0.885  14.564 -0.2546  0.5531  0.2635
  351TIP3    H122468   6.928   0.794  14.594  1.2156  0.7701  1.0286
  351TIP3    H222469   6.994   0.928  14.619  2.1264  1.1501 -2.8256
  352TIP3   OH222470   1.399   1.515  11.699  0.9747  0.1222  0.5481
  352TIP3    H122471   1.415   1.563  11.618  0.0697 -0.3111  0.0909
  352TIP3    H222472   1.418   1.577  11.769 -0.5509  1.2989 -0.0259
  353TIP3   OH222473   1.791   5.291  10.479 -0.3415  0.1805  0.0647
  353TIP3    H122474   1.759   5.312  10.391  1.6647  1.5342 -0.4147
  353TIP3    H222475   1.728   5.332  10.538 -0.6872  0.8997 -0.7873
  354TIP3   OH222476   2.817   6.347  12.113 -0.1398  0.2138 -0.4064
  354TIP3    H122477   2.785   6.399  12.187 -1.0316 -0.8089 -0.0354
  354TIP3    H222478   2.749   6.355  12.047 -0.6637 -1.0324 -0.0616
  355TIP3   OH222479   0.616   3.164  12.094 -0.2703 -0.2038 -0.4445
  355TIP3    H122480   0.555   3.237  12.102  0.4040  0.3541 -0.3172
  355TIP3    H222481   0.679   3.177  12.165 -0.1409 -0.9049 -0.4250
  356TIP3   OH222482   5.993   5.820  14.340 -0.0126 -0.4669  0.0743
  356TIP3    H122483   6.034   5.835  14.425 -0.9081  0.2892  0.4010
  356TIP3    H222484   6.053   5.762  14.293  2.3154  1.9119 -0.1377
  357TIP3   OH222485   1.621   4.395  12.899 -0.1490  0.3963  0.2070
  357TIP3    H122486   1.692   4.356  12.848  0.7710  0.1251  1.6357
  357TIP3    H222487   1.647   4.487  12.910 -0.7525  0.6623 -0.4714
  358TIP3   OH222488   1.252   5.041   3.552  0.4085 -0.7227  0.1748
  358TIP3    H122489   1.317   5.103   3.519 -0.1418 -0.0420  0.3383
  358TIP3    H222490   1.248   5.058   3.646 -2.8271  2.1102 -0.2560
  359TIP3   OH222491   2.469   5.735  14.384  0.1234 -0.4588 -0.0409
  359TIP3    H122492   2.540   5.797  14.369  0.1748 -0.5170 -0.0395
  359TIP3    H222493   2.390   5.788  14.382  0.3370  0.1873  3.0198
  360TIP3   OH222494   4.600   4.840   9.595 -0.1613  0.2068 -0.0804
  360TIP3    H122495   4.604   4.935   9.581  0.4409  0.5045  1.7805
  360TIP3    H222496   4.514   4.824   9.633 -0.4618 -0.0908 -0.8577
  361TIP3   OH222497   6.505   2.892  10.351 -0.2525  0.3182 -0.1231
  361TIP3    H122498   6.548   2.912  10.268 -1.8362 -1.4434 -1.4749
  361TIP3    H222499   6.573   2.854  10.405  0.4135 -0.2838 -1.3487
  362TIP3   OH222500   3.646   4.197  12.998 -0.1164  0.1120 -0.2480
  362TIP3    H122501   3.605   4.143  12.929 -0.6061 -0.9642  0.8455
  362TIP3    H222502   3.736   4.210  12.968 -0.4236 -0.0135 -1.2721
  363TIP3   OH222503   0.672   0.891  12.180 -0.2497  0.2396 -0.1374
  363TIP3    H122504   0.662   0.853  12.093  1.5597  1.0440 -0.7563
  363TIP3    H222505   0.711   0.822  12.233  0.1584  0.2476 -0.4234
  364TIP3   OH222506   1.052   4.529  14.047 -0.1269  0.1469  0.0397
  364TIP3    H122507   1.082   4.539  14.137 -0.4609 -1.8945  0.4358
  364TIP3    H222508   0.999   4.449  14.048  2.6933 -2.0033 -2.6181
  365TIP3   OH222509   0.843   4.532   1.832  0.1357 -0.2109 -0.6508
  365TIP3    H122510   0.804   4.550   1.747 -1.9252  0.7092  0.4004
  365TIP3    H222511   0.837   4.616   1.879 -2.4578 -1.5275  1.6975
  366TIP3   OH222512   0.345   4.038  10.734 -0.3593  0.3857  0.2630
  366TIP3    H122513   0.288   4.063  10.806  0.4619 -0.4089  1.2167
  366TIP3    H222514   0.431   4.072  10.758  0.2029 -0.9870  0.3013
  367TIP3   OH222515   4.704   2.175  10.856  0.0034  0.0778  0.0996
  367TIP3    H122516   4.704   2.170  10.760  1.2038  0.2113  0.0806
  367TIP3    H222517   4.728   2.266  10.875 -1.5067  0.4085  0.5353
  368TIP3   OH222518   5.540   4.227  12.961 -0.5015  0.2992  0.1760
  368TIP3    H122519   5.528   4.147  12.911  2.6380 -1.3069  1.7327
  368TIP3    H222520   5.518   4.204  13.051  1.9708  0.5942  0.9384
  369TIP3   OH222521   6.747   0.333  11.478  0.2463  0.0202  0.5380
  369TIP3    H122522   6.807   0.350  11.406 -0.0134  0.1840  0.3563
  369TIP3    H222523   6.680   0.277  11.440  0.3609 -0.2784  0.7769
  370TIP3   OH222524   0.518   0.217  13.609 -0.2687 -0.1438 -0.6194
  370TIP3    H122525   0.426   0.223  13.582 -0.4151 -1.9021 -0.6406
  370TIP3    H222526   0.518   0.245  13.700 -1.0924 -1.4191 -0.2029
  371TIP3   OH222527   5.202   3.666  11.842 -0.6617  0.0123  0.1987
  371TIP3    H122528   5.184   3.591  11.786 -2.5595  1.5246 -1.3560
  371TIP3    H222529   5.183   3.742  11.787  2.4844  1.7278  1.2737
  372TIP3   OH222530   2.679   0.744   0.667  0.3641 -0.1590  0.1961
  372TIP3    H122531   2.757   0.728   0.720  0.0159 -0.2528  0.6945
  372TIP3    H222532   2.606   0.718   0.724 -0.0426  0.1928 -0.1546
  373TIP3   OH222533   1.375   6.478  10.144 -0.0476 -0.1672 -0.0657
  373TIP3    H122534   1.325   6.534  10.085 -0.8350 -0.4858  0.2831
  373TIP3    H222535   1.460   6.521  10.152 -0.8891  1.4095  0.8067
  374TIP3   OH222536   4.475   2.648  13.485 -0.3850  0.3902  0.5852
  374TIP3    H122537   4.490   2.554  13.476  1.7245  0.5992  1.4619
  374TIP3    H222538   4.380   2.658  13.475 -0.5373 -1.6883 -0.5265
  375TIP3   OH222539   6.628   1.790  11.222  0.0917 -0.1560  0.3034
  375TIP3    H122540   6.537   1.782  11.251  0.1459 -1.1819  0.2416
  375TIP3    H222541   6.634   1.878  11.185 -0.9845 -0.2152 -0.0617
  376TIP3   OH222542   0.701   4.030  14.087 -0.5940  0.6283  0.6315
  376TIP3    H122543   0.697   3.965  14.157 -0.2912  0.3957  0.4380
  376TIP3    H222544   0.761   3.991  14.023 -1.8470  0.2294 -0.3502
  377TIP3   OH222545   6.488   4.639   3.730 -0.2990 -0.8363  0.0155
  377TIP3    H122546   6.422   4.569   3.723 -0.5965 -0.4720 -0.8745
  377TIP3    H222547   6.471   4.696   3.655  0.2835 -0.0907  0.4393
  378TIP3   OH222548   5.879   1.050   4.861  0.2156  0.1410 -0.1345
  378TIP3    H122549   5.962   1.006   4.878 -0.1285  0.0154  1.3812
  378TIP3    H222550   5.892   1.095   4.778  0.7803 -2.3035 -1.4494
  379TIP3   OH222551   2.990   2.150   4.428  0.1018  0.0543 -0.0037
  379TIP3    H122552   2.982   2.071   4.375  0.3934 -0.5875  0.8848
  379TIP3    H222553   3.034   2.121   4.508 -2.9319  0.3067  1.9304
  380TIP3   OH222554   3.510   3.674   4.504  0.2111  0.2867  0.0432
  380TIP3    H122555   3.553   3.589   4.513 -0.3618  0.0370  0.5086
  380TIP3    H222556   3.476   3.674   4.415 -0.9330 -0.5405  0.4495
  381TIP3   OH222557   4.109   6.239   1.632  0.3140 -0.1715 -0.2369
  381TIP3    H122558   4.182   6.178   1.625 -0.2471 -1.0320  0.9232
  381TIP3    H222559   4.138   6.318   1.587  2.3533 -0.1327  1.0375
  382TIP3   OH222560   4.494   6.522  11.551 -0.7988 -0.1855  0.2592
  382TIP3    H122561   4.538   6.445  11.588  0.9059  0.1490 -0.9724
  382TIP3    H222562   4.425   6.485  11.495 -0.3040 -0.8235  0.0565
  383TIP3   OH222563   4.358   3.903   0.673  0.3091 -0.8019 -0.5411
  383TIP3    H122564   4.340   3.932   0.584 -0.4527 -1.1637 -0.5145
  383TIP3    H222565   4.275   3.866   0.703  0.7878 -1.4488  0.0178
  384TIP3   OH222566   5.239   4.982   3.735 -0.3314 -0.2613  0.3145
  384TIP3    H122567   5.188   4.903   3.719  0.3640 -0.5777 -0.3989
  384TIP3    H222568   5.292   4.962   3.812  1.0274 -1.1070 -0.7926
  385TIP3   OH222569   5.805   4.247   5.638 -0.1483 -0.4454  0.4904
  385TIP3    H122570   5.719   4.254   5.596  0.0157 -0.7635  0.1019
  385TIP3    H222571   5.793   4.179   5.705 -0.4930  0.2761  1.1823
  386TIP3   OH222572   0.032   7.045   1.940 -0.1466  0.1132  0.1655
  386TIP3    H122573   0.037   6.950   1.928 -1.4772  0.0777 -0.2828
  386TIP3    H222574   0.093   7.063   2.012  0.2805 -1.0469  0.1225
  387TIP3   OH222575   3.177   2.014   2.524 -0.2366 -0.2322  0.6434
  387TIP3    H122576   3.162   1.929   2.564 -0.5558  0.9160  3.1974
  387TIP3    H222577   3.207   1.995   2.435 -1.2867 -2.9414  0.7884
  388TIP3   OH222578   1.922   2.137   4.929 -0.4450  0.5522  0.1294
  388TIP3    H122579   1.910   2.169   5.018 -1.9837  0.6942 -0.1049
  388TIP3    H222580   1.838   2.096   4.906 -0.1871  0.7927 -1.3542
  389TIP3   OH222581   1.322   4.277   4.866  0.7932 -0.1860  0.3443
  389TIP3    H122582   1.268   4.332   4.810  1.9440  1.0754  0.4209
  389TIP3    H222583   1.313   4.315   4.953  3.0540  1.0972  0.0793
  390TIP3   OH222584   6.743   0.885   3.329  0.1090 -0.5551  0.6836
  390TIP3    H122585   6.693   0.864   3.250  2.0184  2.5700 -1.6025
  390TIP3    H222586   6.808   0.816   3.336 -0.0084 -0.8154 -0.5854
  391TIP3   OH222587   1.157   4.431   2.217  0.2652 -0.1698 -0.4447
  391TIP3    H122588   1.241   4.408   2.258  1.1189  0.7891 -1.5966
  391TIP3    H222589   1.101   4.454   2.291  0.8172 -1.3867  0.3906
  392TIP3   OH222590   7.149   5.486   4.673 -0.1284  0.3020 -0.8623
  392TIP3    H122591   7.093   5.427   4.623 -0.3831  1.0420 -1.4639
  392TIP3    H222592   7.219   5.511   4.612 -1.2038  2.3251 -1.3738
  393TIP3   OH222593   0.640   7.018   0.001 -0.0022 -0.4467 -0.1408
  393TIP3    H122594   0.554   7.008   0.041  1.0165 -0.7971  2.0734
  393TIP3    H222595   0.633   6.972  -0.083 -1.6577 -1.3755  0.4675
  394TIP3   OH222596   6.751   1.794   1.464 -1.0567  0.5168  0.3378
  394TIP3    H122597   6.766   1.876   1.511 -1.4118  0.6715  0.1762
  394TIP3    H222598   6.698   1.741   1.523  0.5282 -0.2552  1.1547
  395TIP3   OH222599   4.867   6.087   1.284 -0.3329  0.2341  0.1352
  395TIP3    H122600   4.780   6.057   1.312 -0.6839  1.2104  0.1102
  395TIP3    H222601   4.890   6.156   1.346 -0.6148  1.6222 -1.2419
  396TIP3   OH222602   6.995   0.018   0.709  0.3630 -0.3587 -0.4668
  396TIP3    H122603   6.988   0.005   0.615  0.4266 -1.8417 -0.2978
  396TIP3    H222604   7.078  -0.024   0.733 -0.9202 -2.4938  0.5914
  397TIP3   OH222605   5.024   6.333   1.398 -0.8110  0.6909  0.0788
  397TIP3    H122606   4.981   6.382   1.468 -0.6989  3.2495 -1.5393
  397TIP3    H222607   5.013   6.387   1.320  3.1133  0.2857 -0.9717
  398TIP3   OH222608   3.713   2.920   3.650 -0.6503 -0.3969  0.2893
  398TIP3    H122609   3.731   2.839   3.698 -0.9245 -0.8492 -0.3629
  398TIP3    H222610   3.632   2.902   3.602 -1.8297  0.9237  1.6553
  399TIP3   OH222611   3.238   3.734   1.981  0.0599 -0.1150  0.5070
  399TIP3    H122612   3.309   3.692   1.932 -1.2030 -0.6640 -0.9196
  399TIP3    H222613   3.259   3.828   1.978  0.7725 -0.2791  0.1630
  400TIP3   OH222614   1.592   4.937   0.409  0.2295  0.0910 -0.0713
  400TIP3    H122615   1.512   4.915   0.455 -0.9304  2.0160 -1.0526
  400TIP3    H222616   1.643   4.989   0.471  1.2294 -1.9137  0.8877
  401TIP3   OH222617   4.027   4.345  14.043  0.4608 -0.2485  0.4541
  401TIP3    H122618   4.098   4.397  14.006 -0.3073  0.3839 -0.1630
  401TIP3    H222619   4.031   4.262  13.996  1.5080 -0.6629  1.2387
  402TIP3   OH222620   5.292   7.113  12.838 -0.3640  0.0345 -0.5640
  402TIP3    H122621   5.298   7.205  12.864 -1.5499  0.2933 -1.1424
  402TIP3    H222622   5.198   7.096  12.828 -0.1136 -0.9345 -1.5070
  403TIP3   OH222623   3.696   3.132   2.562  0.0879  0.9575 -0.3056
  403TIP3    H122624   3.606   3.103   2.580  0.3224  0.8436  0.7423
  403TIP3    H222625   3.751   3.060   2.592  0.5157  0.2884 -2.4586
  404TIP3   OH222626   2.844   4.287   3.775  0.3854 -0.7010 -0.1090
  404TIP3    H122627   2.922   4.343   3.765  1.4221 -2.0629  0.0025
  404TIP3    H222628   2.795   4.301   3.694  0.1906  0.9531  0.2493
  405TIP3   OH222629   1.318   4.597   5.289  0.2485  0.1520  0.1080
  405TIP3    H122630   1.257   4.653   5.338 -0.8903 -1.4743  0.6268
  405TIP3    H222631   1.364   4.548   5.357  0.6720 -0.1164 -0.3711
  406TIP3   OH222632   0.797   5.485   3.293  0.2486  0.4999  0.3902
  406TIP3    H122633   0.758   5.405   3.329 -0.9747  1.4310  1.2360
  406TIP3    H222634   0.746   5.501   3.213  2.9713 -1.5767 -1.9597
  407TIP3   OH222635   5.951   0.508  13.902 -0.1238 -0.1015 -0.3493
  407TIP3    H122636   5.945   0.429  13.848  1.0331  0.0950 -0.8051
  407TIP3    H222637   6.036   0.545  13.879  0.2449  0.1771  1.3569
  408TIP3   OH222638   2.698   0.295   3.970 -0.4717  0.5772  0.0192
  408TIP3    H122639   2.606   0.294   3.996 -0.9386  1.4288 -1.5036
  408TIP3    H222640   2.738   0.361   4.027 -0.5111 -0.6350  1.5100
  409TIP3   OH222641   6.066   4.502  15.445 -0.0238  0.4904  0.5845
  409TIP3    H122642   6.121   4.511  15.367 -1.5985  0.0529 -0.6384
  409TIP3    H222643   6.055   4.592  15.476  0.9204  0.6346  0.5347
  410TIP3   OH222644   1.868   6.188   2.000 -0.6476 -0.4468 -0.4305
  410TIP3    H122645   1.858   6.101   2.037  0.7303  0.2496  1.7707
  410TIP3    H222646   1.815   6.245   2.057  1.1303  0.5931  0.2561
  411TIP3   OH222647   7.156   0.194   4.602 -0.3831 -0.6989  0.3471
  411TIP3    H122648   7.148   0.204   4.507 -1.2147  0.5002  0.5244
  411TIP3    H222649   7.066   0.184   4.633 -0.1069 -1.2495  1.0035
  412TIP3   OH222650   5.221   2.727   4.974  0.3822 -0.6767  0.1475
  412TIP3    H122651   5.255   2.807   5.014 -0.6085  0.0941 -0.4858
  412TIP3    H222652   5.133   2.751   4.944  0.4570 -1.7041 -0.9802
  413TIP3   OH222653   2.752   1.244   2.998  0.0957  0.2704 -0.2175
  413TIP3    H122654   2.668   1.200   2.983  0.5611 -0.1539 -1.8436
  413TIP3    H222655   2.817   1.173   2.997  0.6224  0.7462 -0.5282
  414TIP3   OH222656   1.210   0.417   6.128 -0.0832 -0.1386 -0.2447
  414TIP3    H122657   1.133   0.446   6.078  0.6074  0.0056 -1.2614
  414TIP3    H222658   1.178   0.405   6.217 -1.2587  0.0312 -0.6276
  415TIP3   OH222659   2.422   4.062   3.038 -0.1500  0.1777  0.6893
  415TIP3    H122660   2.485   3.992   3.055 -2.6539 -2.2602  0.6833
  415TIP3    H222661   2.434   4.082   2.946  1.1553  0.3706  0.8791
  416TIP3   OH222662   0.140   1.595   2.329 -0.0401  0.6727  0.0614
  416TIP3    H122663   0.158   1.605   2.236  0.3879  0.6032  0.1360
  416TIP3    H222664   0.044   1.591   2.335 -0.0789 -3.3665 -0.8156
  417TIP3   OH222665   4.469   3.630   1.823 -0.1905  0.1978  0.6694
  417TIP3    H122666   4.554   3.668   1.848  1.2569 -1.3911 -1.4391
  417TIP3    H222667   4.429   3.696   1.767  1.4097 -0.4712 -1.3672
  418TIP3   OH222668   6.227   1.999   1.788  0.1010  0.6712 -0.0367
  418TIP3    H122669   6.194   1.934   1.726 -0.0600 -0.0749  0.7948
  418TIP3    H222670   6.157   2.064   1.794 -0.3394  0.1937  0.1391
  419TIP3   OH222671   6.131   6.747   5.476 -0.2192  0.0912  0.2562
  419TIP3    H122672   6.147   6.702   5.394 -0.7513 -0.1543  0.2790
  419TIP3    H222673   6.138   6.840   5.455 -0.3353  0.0293 -0.0656
  420TIP3   OH222674   1.148   1.191   0.929 -0.2578 -0.5293  0.1046
  420TIP3    H122675   1.241   1.180   0.949 -0.4995 -0.7180  1.2019
  420TIP3    H222676   1.146   1.243   0.849  0.7834  0.3479  0.6355
  421TIP3   OH222677   2.346   0.645   9.907 -0.0819  0.1370 -0.0021
  421TIP3    H122678   2.374   0.622   9.995  0.2005  1.5580  0.3036
  421TIP3    H222679   2.271   0.703   9.920  0.8289  1.5074 -0.6314
  422TIP3   OH222680   0.144   4.446   0.938  0.3014 -0.3162  0.0773
  422TIP3    H122681   0.098   4.363   0.929 -1.0507  0.5928 -2.1297
  422TIP3    H222682   0.109   4.483   1.020 -1.3118 -0.6264 -0.4357
  423TIP3   OH222683   6.623   0.581  14.818 -0.2436  0.2326  0.7003
  423TIP3    H122684   6.645   0.493  14.850  1.6166  0.0037 -0.9914
  423TIP3    H222685   6.631   0.637  14.895 -1.1686 -1.0032  1.7535
  424TIP3   OH222686   1.477   3.232   0.684 -0.6275  0.8781  0.2924
  424TIP3    H122687   1.461   3.163   0.748  3.0258 -0.0381  0.4762
  424TIP3    H222688   1.535   3.293   0.728  1.6812  0.4371 -1.8769
  425TIP3   OH222689   6.807   2.537  13.594 -0.2659  0.0297 -0.2806
  425TIP3    H122690   6.749   2.468  13.626  0.6640  0.0157  1.4982
  425TIP3    H222691   6.844   2.502  13.513 -0.5331 -1.1549  0.0913
  426TIP3   OH222692   0.737   5.776  12.978 -0.5269 -0.0594 -0.2172
  426TIP3    H122693   0.826   5.795  12.946 -0.4059 -1.6172 -0.8951
  426TIP3    H222694   0.737   5.810  13.068 -0.0072  1.9976 -0.9364
  427TIP3   OH222695   5.886   1.944   0.715 -0.0867  0.1321  0.2321
  427TIP3    H122696   5.972   1.909   0.740  0.0071  2.2244  3.4565
  427TIP3    H222697   5.893   1.961   0.621  0.9336 -5.0495 -0.8965
  428TIP3   OH222698   2.504   2.055  14.178  0.6069  0.3471  0.3266
  428TIP3    H122699   2.465   2.067  14.092  0.3869  0.6464  0.4653
  428TIP3    H222700   2.565   1.983  14.167 -0.4502 -0.5597  0.2555
  429TIP3   OH222701   1.046   2.586   0.224 -0.4590 -0.0332  0.4417
  429TIP3    H122702   1.130   2.540   0.219 -0.3584  0.2456 -0.9439
  429TIP3    H222703   0.981   2.516   0.221 -0.2948 -0.1666 -1.0572
  430TIP3   OH222704   4.845   3.656  14.753  0.0303  0.1238 -0.3589
  430TIP3    H122705   4.780   3.623  14.692 -0.4713  1.0340 -0.3369
  430TIP3    H222706   4.833   3.751  14.752  1.9794  0.4122 -1.0639
  431TIP3   OH222707   1.027   0.895  14.312 -0.1245 -0.3411  0.1187
  431TIP3    H122708   0.990   0.823  14.260 -1.3421  0.0556  0.3896
  431TIP3    H222709   1.121   0.879  14.312 -0.2635 -1.2900 -0.7871
  432TIP3   OH222710   3.869   3.264  14.382  0.0055  0.4276  0.2667
  432TIP3    H122711   3.877   3.226  14.294  0.3125  1.0347  0.0323
  432TIP3    H222712   3.951   3.310  14.396 -0.4348  1.1708  0.4719
  433TIP3   OH222713   1.228   5.559  12.635  0.6500  0.3681  0.2518
  433TIP3    H122714   1.185   5.503  12.700  0.9097 -0.1058  0.0169
  433TIP3    H222715   1.268   5.629  12.687  0.2095  0.4148  0.5335
  434TIP3   OH222716   4.875   6.955  10.581 -0.3709 -0.4796 -0.1199
  434TIP3    H122717   4.948   6.990  10.531  0.5852 -0.3496  1.3011
  434TIP3    H222718   4.797   6.992  10.540  0.4518  0.7278 -0.6285
  435TIP3   OH222719   1.543   5.651   1.695  0.0652  0.2609 -0.8384
  435TIP3    H122720   1.466   5.651   1.752 -0.6516  1.0495 -1.7709
  435TIP3    H222721   1.560   5.559   1.678 -0.0762  0.0394  0.1521
  436TIP3   OH222722   2.282   5.228  13.146 -0.0475  0.5199  0.3884
  436TIP3    H122723   2.263   5.296  13.081 -2.7208 -0.8106 -0.3594
  436TIP3    H222724   2.249   5.264  13.228 -2.7132 -0.3015 -0.2461
  437TIP3   OH222725   5.351   5.961  14.877 -0.2084 -0.0792  0.8524
  437TIP3    H122726   5.268   5.929  14.913 -0.3920  0.4893  0.9424
  437TIP3    H222727   5.416   5.898  14.907 -0.4926 -0.0957  1.4361
  438TIP3   OH222728   1.598   7.056  10.552  1.3111 -0.0215  0.1170
  438TIP3    H122729   1.573   7.066  10.644  0.0153 -0.2738 -0.1868
  438TIP3    H222730   1.688   7.026  10.555  1.4624  0.4954  1.2945
  439TIP3   OH222731   2.386   2.821  12.333 -0.3208  0.3119  0.6244
  439TIP3    H122732   2.363   2.732  12.307  1.0977 -0.4054  1.6921
  439TIP3    H222733   2.353   2.828  12.423 -0.8251  1.0296  0.3891
  440TIP3   OH222734   1.218   2.042   1.344  0.1415 -0.0354 -0.2792
  440TIP3    H122735   1.210   2.017   1.252 -1.7649  1.7219 -0.6733
  440TIP3    H222736   1.278   2.116   1.344 -1.0894  1.0021 -0.3837
  441TIP3   OH222737   6.045   3.178  13.579 -0.9835 -0.0076 -0.3940
  441TIP3    H122738   6.124   3.230  13.561 -1.3643  0.2484 -1.3591
  441TIP3    H222739   6.078   3.098  13.620  0.1465 -1.3877 -3.6580
  442TIP3   OH222740   2.461   5.334  10.182  0.4024 -0.2246  0.3121
  442TIP3    H122741   2.477   5.425  10.159 -0.4776  0.7220  3.0470
  442TIP3    H222742   2.385   5.309  10.130 -0.2848  1.1332  0.6261
  443TIP3   OH222743   0.073   5.510  13.389 -0.4438  0.1369 -0.1421
  443TIP3    H122744   0.108   5.542  13.473  1.4636 -0.2463 -0.7355
  443TIP3    H222745   0.100   5.418  13.386 -2.1982 -0.3940 -0.3299
  444TIP3   OH222746   2.991   4.475  12.540  0.6289  0.5085  0.1237
  444TIP3    H122747   3.002   4.399  12.482  1.1273  1.0186 -0.4708
  444TIP3    H222748   2.995   4.439  12.628 -1.5211 -0.4826 -0.1376
  445TIP3   OH222749   6.910   6.857  12.512  0.2417 -0.1019  0.4075
  445TIP3    H122750   6.980   6.836  12.574 -0.2469  1.7215  1.6619
  445TIP3    H222751   6.956   6.890  12.435  0.8007 -0.1937  0.6923
  446TIP3   OH222752   1.292   0.062   3.530  0.6322 -0.4393  0.0826
  446TIP3    H122753   1.216   0.004   3.525 -0.1302  0.4693  0.8588
  446TIP3    H222754   1.367   0.004   3.517 -0.1913 -1.3085 -1.0132
  447TIP3   OH222755   1.571   5.747   4.358 -0.0268  0.3447 -0.0930
  447TIP3    H122756   1.593   5.795   4.278 -0.3943 -0.5986 -0.7799
  447TIP3    H222757   1.475   5.743   4.357 -0.0220  0.1436  0.2824
  448TIP3   OH222758   3.405   4.572  14.914  0.0923  0.5664 -0.2614
  448TIP3    H122759   3.343   4.645  14.921  0.3555  1.0674 -2.3367
  448TIP3    H222760   3.488   4.610  14.941 -0.5085 -0.2713  3.1286
  449TIP3   OH222761   0.997   6.211  11.049 -0.0186  0.3863 -0.1676
  449TIP3    H122762   1.074   6.156  11.038  1.0460  1.7078  0.4840
  449TIP3    H222763   0.965   6.225  10.959 -0.3710 -1.3119 -0.3450
  450TIP3   OH222764   6.773   3.024  10.817 -0.6428  0.0867 -0.9399
  450TIP3    H122765   6.772   3.079  10.896  0.5920  0.6620 -1.2970
  450TIP3    H222766   6.795   2.936  10.849 -0.8928  0.1597 -0.5630
  451TIP3   OH222767   5.309   1.843   0.818  0.2467  0.0222  0.4337
  451TIP3    H122768   5.345   1.791   0.890  0.2202 -0.5864  0.0149
  451TIP3    H222769   5.227   1.798   0.794 -0.2365  0.7654  0.6506
  452TIP3   OH222770   4.425   6.031  10.570  0.8725 -0.1010  0.4017
  452TIP3    H122771   4.385   6.106  10.614  0.6969 -0.5059  0.9424
  452TIP3    H222772   4.413   6.049  10.477  0.8986  0.5763  0.5241
  453TIP3   OH222773   0.564   4.142  10.824  0.7543  0.6891  0.3967
  453TIP3    H122774   0.517   4.216  10.863 -0.7597  0.8478 -1.6005
  453TIP3    H222775   0.617   4.181  10.754  0.5267 -0.0180 -0.1804
  454TIP3   OH222776   0.918   5.372   9.493  0.1192  0.3193  0.1522
  454TIP3    H122777   0.952   5.284   9.509  0.0722  0.4580  1.0461
  454TIP3    H222778   0.823   5.361   9.488  0.2177  0.0386 -1.6583
  455TIP3   OH222779   0.199   4.583  15.485 -0.4579  0.2289 -0.2239
  455TIP3    H122780   0.234   4.543  15.404  0.5288 -1.3920  0.9276
  455TIP3    H222781   0.277   4.598  15.539 -1.2777 -1.8903  1.7453
  456TIP3   OH222782   6.778   3.963  12.847 -0.5046 -0.1524 -0.4976
  456TIP3    H122783   6.724   3.892  12.810  0.0580 -1.1776  0.5661
  456TIP3    H222784   6.730   3.991  12.925 -1.2223  1.3598 -1.4371
  457TIP3   OH222785   3.917   4.677  14.276 -0.0596 -0.6216  0.1098
  457TIP3    H122786   3.876   4.763  14.279 -0.5417 -0.8535  0.2131
  457TIP3    H222787   3.862   4.621  14.332 -1.1307 -1.5808 -1.8102
  458TIP3   OH222788   0.220   4.549   1.930  0.1812  0.5015  0.1286
  458TIP3    H122789   0.315   4.545   1.943 -0.0097  0.4881  1.6758
  458TIP3    H222790   0.199   4.468   1.885  0.7012 -0.3425  1.3467
  459TIP3   OH222791   5.723   4.862   9.626  0.7226  0.5339 -0.0881
  459TIP3    H122792   5.632   4.882   9.648  0.9935  0.9451  0.6841
  459TIP3    H222793   5.771   4.942   9.647  1.5571 -0.3099  1.3322
  460TIP3   OH222794   5.787   3.962  13.652  0.3235 -0.1940 -0.1568
  460TIP3    H122795   5.825   4.025  13.591 -0.4335 -0.5754 -1.0500
  460TIP3    H222796   5.852   3.954  13.722  0.3784  1.6789  0.0670
  461TIP3   OH222797   3.789   0.827  14.220 -0.4571  0.0833 -0.2002
  461TIP3    H122798   3.713   0.876  14.250 -0.4450 -0.0494  0.0468
  461TIP3    H222799   3.760   0.785  14.138 -0.8567 -0.4875  0.2222
  462TIP3   OH222800   1.088   5.735  12.109  0.3963 -0.1554 -0.4505
  462TIP3    H122801   1.003   5.775  12.094  0.2910 -0.5685 -0.9722
  462TIP3    H222802   1.073   5.671  12.179  0.6938  1.1140  0.8344
  463TIP3   OH222803   4.027   1.725   3.614  0.9106  0.0577  0.4443
  463TIP3    H122804   4.095   1.666   3.648 -0.3176 -2.2822 -0.9223
  463TIP3    H222805   3.951   1.668   3.600 -1.0725  2.4103  1.0526
  464TIP3   OH222806   4.844   3.049   2.371 -0.3130  0.2820  0.0052
  464TIP3    H122807   4.849   2.972   2.313  0.8335  0.0208  0.4270
  464TIP3    H222808   4.835   3.012   2.459 -1.3051  0.6662  0.0691
  465TIP3   OH222809   3.312   0.150   9.655 -0.3169  0.0332 -0.2419
  465TIP3    H122810   3.247   0.187   9.595  1.1645  0.7717 -1.4689
  465TIP3    H222811   3.393   0.150   9.605  1.1951  1.4286  2.0133
  466TIP3   OH222812   0.903   5.433  12.753 -0.3101 -0.2222 -0.0043
  466TIP3    H122813   0.833   5.462  12.695 -0.1570  0.3704  0.1069
  466TIP3    H222814   0.971   5.499  12.743  0.6672 -1.3085 -0.9005
  467TIP3   OH222815   1.468   1.655  11.446 -0.0474 -0.1578 -0.3465
  467TIP3    H122816   1.378   1.675  11.471  0.2586  0.8686 -0.0479
  467TIP3    H222817   1.491   1.721  11.381  0.7806  0.1212  0.2135
  468TIP3   OH222818   2.086   0.863  12.725  0.5140 -0.1679  0.1024
  468TIP3    H122819   2.129   0.813  12.794  1.4056 -0.1522 -0.4289
  468TIP3    H222820   2.121   0.827  12.644 -0.2265  0.0790 -0.3392
  469TIP3   OH222821   0.816   0.117   1.574  0.0380 -0.3848  0.0235
  469TIP3    H122822   0.846   0.205   1.555 -0.9794  0.3395  1.6117
  469TIP3    H222823   0.889   0.075   1.619 -0.2273  0.3776  1.1910
  470TIP3   OH222824   3.447   6.629   9.950  0.0727  0.3003  1.0156
  470TIP3    H122825   3.436   6.716   9.988 -0.9930  0.9266 -0.6586
  470TIP3    H222826   3.484   6.645   9.863 -1.8466 -0.7674 -0.0478
  471TIP3   OH222827   4.530   6.847  13.260 -0.8589 -0.1746  0.3267
  471TIP3    H122828   4.456   6.894  13.298  0.0473 -0.4924  2.6204
  471TIP3    H222829   4.584   6.915  13.220 -1.5831  0.2386  0.0299
  472TIP3   OH222830   2.647   2.960  15.368 -0.1399 -0.2030  0.2646
  472TIP3    H122831   2.729   2.916  15.344 -1.4353 -1.3800 -2.4051
  472TIP3    H222832   2.667   3.053  15.356  0.9351 -0.4399  0.0609
  473TIP3   OH222833   4.000   6.861  10.088 -0.5078  0.7325  0.4785
  473TIP3    H122834   3.949   6.893  10.162  0.0779  0.6602  0.9162
  473TIP3    H222835   4.037   6.778  10.118 -1.3739  0.0122 -0.3722
  474TIP3   OH222836   4.291   2.459  13.805 -0.1427 -0.2537  0.1137
  474TIP3    H122837   4.285   2.551  13.829 -0.8351 -0.0982 -0.6132
  474TIP3    H222838   4.333   2.417  13.880 -0.4161  0.5400  0.7227
  475TIP3   OH222839   4.589   0.197   1.149 -0.1796 -0.2792  0.2206
  475TIP3    H122840   4.501   0.206   1.187 -0.2964  2.6988 -0.5163
  475TIP3    H222841   4.574   0.158   1.063 -0.9819  1.0935 -0.3078
  476TIP3   OH222842   1.123   6.111  10.378  0.6050 -0.3042 -0.2493
  476TIP3    H122843   1.172   6.066  10.309  2.0079 -0.2231  0.6467
  476TIP3    H222844   1.174   6.095  10.458 -0.3260  0.6162  0.5591
  477TIP3   OH222845   6.758   2.506  10.267 -0.0799  0.3198  0.1491
  477TIP3    H122846   6.784   2.548  10.185  0.1690  0.2462  0.1887
  477TIP3    H222847   6.763   2.576  10.333 -1.4252  0.6728 -0.0990
  478TIP3   OH222848   2.537   1.752  11.599  0.1625  0.5169 -0.3237
  478TIP3    H122849   2.611   1.708  11.558 -0.5163 -0.0850 -0.9183
  478TIP3    H222850   2.564   1.843  11.607  1.9278 -0.1006  1.6837
  479TIP3   OH222851   2.707   3.938   0.965  0.3845  0.4115  0.0756
  479TIP3    H122852   2.795   3.917   0.935 -0.7912 -2.3488 -1.8265
  479TIP3    H222853   2.650   3.878   0.917 -2.2915 -0.1471  3.5584
  480TIP3   OH222854   1.847   3.395  11.923 -0.9757  0.4009 -0.0771
  480TIP3    H122855   1.940   3.409  11.937 -0.6989  1.0418 -2.2259
  480TIP3    H222856   1.827   3.316  11.974  0.7136  0.2728  0.4548
  481TIP3   OH222857   5.758   5.468   9.996  0.6067  0.7150 -0.4189
  481TIP3    H122858   5.755   5.443   9.903  0.9728  2.7593 -1.0294
  481TIP3    H222859   5.841   5.514  10.006 -0.1879  2.0165  0.4950
  482TIP3   OH222860   3.961   2.906  12.281 -0.3530  0.0920  0.4500
  482TIP3    H122861   4.010   2.911  12.363 -0.5806 -1.1385  0.6706
  482TIP3    H222862   4.022   2.866  12.219 -0.4263  0.3568  0.2060
  483TIP3   OH222863   2.294   6.352   0.882 -0.2572  0.0421 -0.1314
  483TIP3    H122864   2.249   6.310   0.808 -1.7822  3.1072 -1.1408
  483TIP3    H222865   2.245   6.324   0.959 -1.7516  0.5152 -0.8570
  484TIP3   OH222866   3.720   6.471  13.415 -0.0972  0.9583  0.5150
  484TIP3    H122867   3.710   6.383  13.377 -0.7739  1.2952 -0.1129
  484TIP3    H222868   3.814   6.479  13.432  0.0582  0.3487 -0.0103
  485TIP3   OH222869   6.460   2.492  11.917 -0.1676  0.2198 -0.1571
  485TIP3    H122870   6.477   2.431  11.989  1.6237  0.0349 -0.6847
  485TIP3    H222871   6.529   2.558  11.924  0.8003 -0.4470 -2.3496
  486TIP3   OH222872   3.677   0.984  10.633  0.2210  0.2854  0.1580
  486TIP3    H122873   3.766   0.980  10.669  0.2000 -0.5716  0.1372
  486TIP3    H222874   3.630   1.043  10.692  0.3631 -0.5990  1.1995
  487TIP3   OH222875   1.390   5.377  11.363  0.5465  0.4099  0.9370
  487TIP3    H122876   1.327   5.320  11.319  0.0243  1.9469 -0.3974
  487TIP3    H222877   1.337   5.430  11.423  0.5634  1.4653  0.0605
  488TIP3   OH222878   0.368   2.567   2.173 -0.0207 -0.3740 -0.0715
  488TIP3    H122879   0.306   2.591   2.241 -1.3282 -3.1428 -0.1677
  488TIP3    H222880   0.358   2.635   2.106 -0.2178  1.2426  1.5191
  489TIP3   OH222881   4.452   3.223  11.795 -0.0510 -0.1442 -0.5523
  489TIP3    H122882   4.493   3.304  11.766  1.8788 -0.3201  1.3571
  489TIP3    H222883   4.511   3.154  11.763 -0.0499 -0.5643  0.3080
  490TIP3   OH222884   4.254   2.346  11.978 -0.0160  0.0649 -0.2778
  490TIP3    H122885   4.245   2.262  12.024  0.2292 -0.1352 -0.5893
  490TIP3    H222886   4.332   2.335  11.924  0.2891  0.6671  0.0393
  491TIP3   OH222887   6.992   5.734  12.673  0.4024  0.5067 -0.0604
  491TIP3    H122888   6.908   5.693  12.652 -0.0919  1.4862 -0.0462
  491TIP3    H222889   7.039   5.667  12.724 -0.4067 -0.0050  0.0356
  492TIP3   OH222890   1.597   0.203  15.184 -0.1050 -0.1846 -0.2102
  492TIP3    H122891   1.659   0.275  15.194 -0.0770 -0.4605  2.0415
  492TIP3    H222892   1.648   0.132  15.147 -0.0803  0.8128 -2.2457
  493TIP3   OH222893   6.888   2.553  12.225  0.1730  0.3081  0.0849
  493TIP3    H122894   6.800   2.539  12.261 -0.0368  2.0510  0.3142
  493TIP3    H222895   6.874   2.556  12.130  0.3834 -1.8759 -0.0701
  494TIP3   OH222896   5.922   2.234   4.517 -0.3253 -0.2197  0.5386
  494TIP3    H122897   5.984   2.300   4.546 -0.5854 -0.9157  2.8766
  494TIP3    H222898   5.877   2.275   4.443  1.1975  1.2338  0.3538
  495TIP3   OH222899   6.776   3.071   2.306 -0.3535 -0.4544 -0.8163
  495TIP3    H122900   6.841   3.140   2.320  0.5389 -1.2960 -0.7607
  495TIP3    H222901   6.777   3.020   2.387 -0.0607 -1.3024 -1.3425
  496TIP3   OH222902   1.360   4.263  10.753  0.0517  0.5880  0.6415
  496TIP3    H122903   1.306   4.207  10.698  0.6035  0.8973 -0.2425
  496TIP3    H222904   1.408   4.202  10.810  0.7161  0.1496 -0.3728
  497TIP3   OH222905   1.813   1.232  10.768  0.4443  0.4139 -0.1842
  497TIP3    H122906   1.749   1.280  10.716 -0.0202  0.4919  0.4477
  497TIP3    H222907   1.827   1.150  10.720 -1.0597 -0.1490  0.2859
  498TIP3   OH222908   0.349   5.303  13.121 -0.3283 -0.5810  0.0819
  498TIP3    H122909   0.370   5.255  13.041 -0.6312 -0.6018  0.0146
  498TIP3    H222910   0.303   5.381  13.090 -0.9702 -0.8778  0.2728
  499TIP3   OH222911   5.411   4.373  12.699  0.4339  0.0055 -0.3257
  499TIP3    H122912   5.443   4.296  12.745 -0.0319  0.0434  0.0732
  499TIP3    H222913   5.321   4.351  12.674  0.3583  0.3530 -0.3672
  500TIP3   OH222914   3.151   1.155  14.204 -0.4630  0.0555  0.1742
  500TIP3    H122915   3.143   1.250  14.192 -0.2569  0.4016  2.3920
  500TIP3    H222916   3.238   1.133  14.171 -0.1007  0.8209  0.6100
  501TIP3   OH222917   4.537   3.665   0.341  0.3185 -1.0058 -0.1576
  501TIP3    H122918   4.502   3.732   0.284  3.6093 -1.2122 -2.7429
  501TIP3    H222919   4.567   3.713   0.419  0.6188  0.2036 -0.9862
  502TIP3   OH222920   4.524   6.868  12.830  0.3551  0.2245  0.1505
  502TIP3    H122921   4.520   6.912  12.915  1.5566 -1.3956  1.1094
  502TIP3    H222922   4.608   6.821  12.831 -0.2642 -1.0173 -1.3166
  503TIP3   OH222923   1.139   1.253  10.268  0.1447  0.2283 -0.1675
  503TIP3    H122924   1.181   1.200  10.337 -0.1190  0.2513  0.0125
  503TIP3    H222925   1.082   1.191  10.223 -0.4778  0.4443  0.3062
  504TIP3   OH222926   2.724   0.153  14.338  0.7098 -0.0766 -0.2769
  504TIP3    H122927   2.661   0.225  14.350  1.0037 -0.0865  1.5757
  504TIP3    H222928   2.769   0.175  14.257 -0.8042  0.5876 -0.9925
  505TIP3   OH222929   1.796   2.728  11.547  0.3496 -0.0092  0.3012
  505TIP3    H122930   1.811   2.822  11.534 -1.5030  0.5535  1.8200
  505TIP3    H222931   1.746   2.722  11.628  1.4326 -2.4308  0.8942
  506TIP3   OH222932   2.867   4.860  13.931  0.1214 -0.5468 -0.2797
  506TIP3    H122933   2.818   4.785  13.966 -1.8110  0.7884  0.0617
  506TIP3    H222934   2.917   4.892  14.006  0.4857 -1.1068 -0.2726
  507TIP3   OH222935   3.821   4.100  13.688  0.1759  0.4006  0.0689
  507TIP3    H122936   3.794   4.180  13.643 -1.0444 -0.1863 -0.2696
  507TIP3    H222937   3.795   4.029  13.630  0.4176 -0.2878  0.7778
  508TIP3   OH222938   0.221   4.293   9.837 -0.2543 -0.3405 -0.0516
  508TIP3    H122939   0.267   4.367   9.876 -1.3634  0.4422 -0.1820
  508TIP3    H222940   0.202   4.321   9.747  0.8466 -1.4850 -0.6786
  509TIP3   OH222941   0.472   3.777  13.591  0.0845 -0.2938 -0.3281
  509TIP3    H122942   0.465   3.725  13.511  1.4850 -2.5780  0.9152
  509TIP3    H222943   0.553   3.828  13.579 -0.1280 -0.0312 -0.6719
  510TIP3   OH222944   1.118   6.454  10.354  0.4672  0.2796  0.1829
  510TIP3    H122945   1.133   6.389  10.286 -0.2448  0.1332  0.1615
  510TIP3    H222946   1.171   6.423  10.428 -0.5553 -0.8196  0.4835
  511TIP3   OH222947   2.238   5.801  12.489 -0.2309  0.0165  0.2751
  511TIP3    H122948   2.327   5.793  12.523 -0.8041 -2.0430  1.4956
  511TIP3    H222949   2.200   5.875  12.536  0.7746  0.8375 -0.1718
  512TIP3   OH222950   0.615   2.141  11.913  0.1883 -0.0400 -0.2873
  512TIP3    H122951   0.647   2.178  11.995 -1.4436  1.2386 -0.1927
  512TIP3    H222952   0.680   2.074  11.890  1.5444  0.7230  1.1677
  513TIP3   OH222953   3.255   6.694   9.641  0.6068  0.2475 -0.1357
  513TIP3    H122954   3.327   6.656   9.691  0.0798  0.7852  1.0638
  513TIP3    H222955   3.297   6.755   9.580  1.3336 -1.0945 -1.0261
  514TIP3   OH222956   2.779   0.344  12.886 -0.3748  0.8662 -0.0678
  514TIP3    H122957   2.758   0.292  12.964 -0.9541 -0.6162 -1.1602
  514TIP3    H222958   2.867   0.378  12.902 -1.1251  1.9964  1.9385
  515TIP3   OH222959   5.906   4.381  15.238  0.1478 -0.8888 -0.1219
  515TIP3    H122960   5.814   4.364  15.257 -0.6333  1.7215 -1.1451
  515TIP3    H222961   5.933   4.444  15.304  1.1646 -1.4352  0.0100
  516TIP3   OH222962   0.690   4.533   0.494  0.1862  0.1899  0.1378
  516TIP3    H122963   0.602   4.506   0.520  0.5673 -2.2061 -0.7910
  516TIP3    H222964   0.724   4.580   0.570 -2.7345  3.5602 -0.3953
  517TIP3   OH222965   2.676   4.763   1.992  0.3094  0.3102  0.4254
  517TIP3    H122966   2.642   4.823   1.926 -1.7187 -1.1211  0.0480
  517TIP3    H222967   2.723   4.818   2.053 -0.2049  2.0640 -0.6862
  518TIP3   OH222968   4.027   4.279  13.702 -0.2788 -0.4111  0.0067
  518TIP3    H122969   3.952   4.325  13.665 -0.2580 -0.6162 -0.2948
  518TIP3    H222970   4.036   4.200  13.649 -1.1338 -1.4536  1.3426
  519TIP3   OH222971   1.393   0.279   3.621 -0.1097 -0.1698  0.2173
  519TIP3    H122972   1.341   0.213   3.576  1.0613 -1.7231  1.0183
  519TIP3    H222973   1.348   0.294   3.704 -0.3584  0.0344  0.0483
  520TIP3   OH222974   5.271   3.719  12.890 -0.1456 -0.0568  0.2764
  520TIP3    H122975   5.354   3.670  12.892 -0.1917 -0.1070  2.1758
  520TIP3    H222976   5.292   3.802  12.934 -1.4604 -0.6981  2.2057
  521TIP3   OH222977   0.779   1.536  13.278 -0.3543 -0.2308 -0.2396
  521TIP3    H122978   0.712   1.471  13.258 -0.8454  0.3598 -0.5865
  521TIP3    H222979   0.782   1.540  13.374 -2.2480  1.1261 -0.1829
  522TIP3   OH222980   0.894   7.051  10.625 -0.0084 -0.1386 -0.4937
  522TIP3    H122981   0.805   7.084  10.641 -0.1142 -0.8954  0.6426
  522TIP3    H222982   0.936   7.055  10.711  1.0691  0.2118 -1.0258
  523TIP3   OH222983   1.552   2.461  13.874  0.3993  0.1071  0.5068
  523TIP3    H122984   1.593   2.473  13.788  0.2672 -1.5241  0.1845
  523TIP3    H222985   1.466   2.425  13.854  1.2822 -2.7154  1.3417
  524TIP3   OH222986   1.471   4.669  14.297 -0.3560 -0.8230 -0.1673
  524TIP3    H122987   1.492   4.588  14.251 -1.2421 -0.7708 -0.6876
  524TIP3    H222988   1.447   4.642  14.386  0.6559 -0.9932  0.0647
  525TIP3   OH222989   1.395   2.427  10.370 -0.3350 -0.4026  0.1621
  525TIP3    H122990   1.353   2.509  10.399  2.4005  0.2884  2.6691
  525TIP3    H222991   1.473   2.456  10.324  0.7608 -1.5695  1.2334
  526TIP3   OH222992   0.339   5.062  13.269 -0.2060  0.0219 -0.1181
  526TIP3    H122993   0.425   5.055  13.311 -0.8759 -0.1549  1.2733
  526TIP3    H222994   0.341   5.147  13.224  0.6727  0.0430 -0.0534
  527TIP3   OH222995   3.451   1.360   3.155 -0.5987 -0.0504  0.3645
  527TIP3    H122996   3.431   1.454   3.149 -1.5068 -0.2749 -0.1703
  527TIP3    H222997   3.481   1.348   3.245  0.8408  0.9988  0.0710
  528TIP3   OH222998   5.694   4.705  10.664  0.1253  0.4321 -0.0542
  528TIP3    H122999   5.714   4.793  10.631 -2.2748  0.1132 -2.6578
  528TIP3    H223000   5.615   4.716  10.716  1.6375  0.2342  2.4680
  529TIP3   OH223001   3.891   0.628   9.540  0.8342  0.0068 -0.3610
  529TIP3    H123002   3.932   0.710   9.514  0.6865  0.2427  0.1304
  529TIP3    H223003   3.962   0.577   9.579  0.7926  0.1654 -0.0748
  530TIP3   OH223004   5.132   0.513  11.706 -0.9884 -0.6213  0.4042
  530TIP3    H123005   5.140   0.562  11.625 -0.6111 -2.4154 -0.6838
  530TIP3    H223006   5.220   0.509  11.741 -0.6332 -2.2825 -0.6071
  531TIP3   OH223007   0.757   4.492  13.351 -0.2342  0.8922 -0.0317
  531TIP3    H123008   0.829   4.462  13.295 -1.4352 -2.0678 -0.1841
  531TIP3    H223009   0.678   4.464  13.306 -1.4324  2.5528  0.9500
  532TIP3   OH223010   0.326   2.575  15.290  0.0723  0.3345  0.1209
  532TIP3    H123011   0.313   2.603  15.380 -0.0267 -1.0912  0.5698
  532TIP3    H223012   0.281   2.642  15.238  0.3152  1.2872  1.0950
  533TIP3   OH223013   0.976   5.446  14.519  0.1717 -0.0866  0.0260
  533TIP3    H123014   1.042   5.383  14.548 -3.1584 -2.3262  3.6391
  533TIP3    H223015   0.920   5.396  14.459  0.7576  1.3612 -1.8458
  534TIP3   OH223016   5.173   5.603  11.754 -0.0001 -0.2308  0.4094
  534TIP3    H123017   5.212   5.517  11.764  2.3370  0.3462 -2.4396
  534TIP3    H223018   5.241   5.664  11.785 -1.2137  0.6640  1.4212
  535TIP3   OH223019   2.043   0.232  14.068 -0.8478  0.1660  0.0696
  535TIP3    H123020   1.965   0.176  14.059 -0.1271 -0.5649 -2.4795
  535TIP3    H223021   2.113   0.181  14.028  0.4832  1.7427  0.3173
  536TIP3   OH223022   5.337   1.308   0.182  0.5878  0.6372  0.2368
  536TIP3    H123023   5.285   1.372   0.134 -0.6079 -1.0930 -0.9000
  536TIP3    H223024   5.276   1.270   0.246  1.3806  0.8737  1.1620
  537TIP3   OH223025   3.578   3.155  10.857 -0.8164 -0.0114  0.0525
  537TIP3    H123026   3.642   3.135  10.926 -1.5403 -1.5767  0.3151
  537TIP3    H223027   3.628   3.204  10.792  1.0671 -2.2650 -0.3599
  538TIP3   OH223028   5.282   6.610  10.088  0.2780 -0.0717  0.2052
  538TIP3    H123029   5.194   6.633  10.058  0.9385 -0.0583 -1.8850
  538TIP3    H223030   5.303   6.529  10.042  1.3709 -0.0680  0.6587
  539TIP3   OH223031   5.222   4.738   9.852 -0.0115  0.0072  0.1475
  539TIP3    H123032   5.147   4.686   9.879  0.7834 -1.2526 -0.0177
  539TIP3    H223033   5.296   4.677   9.853  0.9564  1.1350 -0.0119
  540TIP3   OH223034   0.278   2.596  12.092 -0.1369  0.4068 -0.3183
  540TIP3    H123035   0.326   2.570  12.013  0.3309  1.2624 -0.3257
  540TIP3    H223036   0.346   2.620  12.155 -0.4783 -0.9982  0.6259
  541TIP3   OH223037   5.347   6.491  12.170  0.6894 -0.1664 -0.6388
  541TIP3    H123038   5.322   6.399  12.183  1.9104 -0.7852 -2.2251
  541TIP3    H223039   5.284   6.524  12.106  0.2238  0.1221 -0.0356
  542TIP3   OH223040   5.421   0.591  15.197 -0.0227  0.5965 -0.2212
  542TIP3    H123041   5.365   0.655  15.154 -0.5086  0.1343 -0.2785
  542TIP3    H223042   5.478   0.559  15.127 -0.8515 -0.1968 -0.5523
  543TIP3   OH223043   1.611   0.976  13.269  0.3018 -0.3201  0.4660
  543TIP3    H123044   1.576   1.063  13.287  0.9785  0.2680 -0.8854
  543TIP3    H223045   1.539   0.929  13.226  0.2820 -0.0331  0.1760
  544TIP3   OH223046   0.770   1.669  11.315  0.0991  0.2662  0.8006
  544TIP3    H123047   0.715   1.676  11.237  0.8459  0.6699  0.2926
  544TIP3    H223048   0.740   1.590  11.359 -0.5543  0.2165  0.2797
  545TIP3   OH223049   4.646   2.335   9.617  0.2600  0.1328  0.1275
  545TIP3    H123050   4.655   2.290   9.533  1.7529  0.0488  0.3105
  545TIP3    H223051   4.594   2.275   9.670  0.9381 -0.6945 -0.1198
  546TIP3   OH223052   2.566   6.793  12.654  0.3601  0.0132  0.1881
  546TIP3    H123053   2.626   6.856  12.615 -0.1229  0.3105 -0.0862
  546TIP3    H223054   2.491   6.846  12.682 -0.6451 -0.5934 -1.2341
  547TIP3   OH223055   0.203   0.961  13.518 -0.6204  0.1654 -0.3016
  547TIP3    H123056   0.186   1.009  13.436 -0.1968  0.0287 -0.4757
  547TIP3    H223057   0.290   0.924  13.505 -0.6877 -0.1257  0.0881
  548TIP3   OH223058   6.429   0.651  11.103 -0.3776 -0.2135 -0.3246
  548TIP3    H123059   6.446   0.558  11.118  1.0555  0.0260 -0.3024
  548TIP3    H223060   6.423   0.659  11.008 -2.0085 -0.5490 -0.2709
  549TIP3   OH223061   7.049   1.227  15.263 -0.1692  0.3608 -0.2325
  549TIP3    H123062   7.086   1.312  15.238 -0.1155  0.0351 -1.2992
  549TIP3    H223063   7.087   1.165  15.201 -0.1442 -0.4666  0.5936
  550TIP3   OH223064   0.544   0.327  12.615 -0.2271  0.0106  0.3979
  550TIP3    H123065   0.596   0.295  12.689  2.9689 -0.4007 -1.7839
  550TIP3    H223066   0.525   0.248  12.564  1.5074  0.6788 -1.3989
  551TIP3   OH223067   1.235   1.138   9.887 -0.2412  0.2276  0.3391
  551TIP3    H123068   1.203   1.190   9.813 -0.3547  1.4916  1.2577
  551TIP3    H223069   1.329   1.153   9.888 -0.3692  1.0275  1.0550
  552TIP3   OH223070   0.690   3.817  14.709  0.4937 -0.0092  0.2320
  552TIP3    H123071   0.684   3.851  14.620 -2.0223 -0.8510  0.0146
  552TIP3    H223072   0.725   3.891  14.760 -1.3453  1.7293 -0.8617
  553TIP3   OH223073   3.565   1.076  14.911  0.2304 -0.2114 -0.2517
  553TIP3    H123074   3.511   1.090  14.834  1.4562 -0.3593 -1.1651
  553TIP3    H223075   3.538   1.144  14.972 -2.0269 -1.1911 -0.0547
  554TIP3   OH223076   2.937   0.150   0.742 -0.5271 -0.0255  0.1732
  554TIP3    H123077   2.850   0.125   0.711 -0.7542  1.0148 -0.0966
  554TIP3    H223078   2.982   0.183   0.664  0.1592 -0.6831  0.2838
  555TIP3   OH223079   1.297   3.449  10.921  0.5894  0.0884  0.3177
  555TIP3    H123080   1.240   3.509  10.873  0.1367 -1.6563 -1.4267
  555TIP3    H223081   1.238   3.382  10.955  1.3634 -0.6790  0.1654
  556TIP3   OH223082   1.236   6.620  12.197 -0.0171  0.2028 -0.7621
  556TIP3    H123083   1.238   6.524  12.200  0.8232  0.1903 -1.3362
  556TIP3    H223084   1.281   6.642  12.115 -0.2159  1.0893 -0.6414
  557TIP3   OH223085   0.559   0.353  15.155 -0.1426  0.2717 -0.5084
  557TIP3    H123086   0.511   0.271  15.144 -3.4538  1.6057  2.2274
  557TIP3    H223087   0.548   0.399  15.071 -0.8378 -0.7993 -1.0238
  558TIP3   OH223088   1.339   0.828   0.878 -0.0099 -0.7396  0.2232
  558TIP3    H123089   1.325   0.878   0.959 -0.6216 -0.7453  0.1277
  558TIP3    H223090   1.433   0.814   0.875 -0.1676 -2.9870  2.2878
  559TIP3   OH223091   0.403   4.346  10.898 -0.4449  0.6175  0.2605
  559TIP3    H123092   0.336   4.323  10.963 -2.8556  3.2341 -1.0861
  559TIP3    H223093   0.444   4.425  10.933  1.7322 -0.6695  0.8230
  560TIP3   OH223094   5.632   0.010  12.690 -0.5205 -0.3281  0.0318
  560TIP3    H123095   5.724   0.037  12.699 -0.5660  0.0709 -0.5854
  560TIP3    H223096   5.621  -0.061  12.754  0.3734 -0.7685 -0.2794
  561TIP3   OH223097   6.624   1.501  12.994  0.3040  0.1643 -0.0224
  561TIP3    H123098   6.575   1.535  12.919  1.4022  0.0372 -0.8177
  561TIP3    H223099   6.715   1.504  12.967  0.5885 -1.6892  0.5741
  562TIP3   OH223100   0.195   0.355  15.111  0.3050 -0.4543  0.5135
  562TIP3    H123101   0.110   0.328  15.146  0.9169 -1.7728  1.0304
  562TIP3    H223102   0.253   0.281  15.127  1.4432  0.2251 -0.2886
  563TIP3   OH223103   0.205   1.115  13.266  0.0568 -0.5137  0.4068
  563TIP3    H123104   0.162   1.111  13.181 -1.5804  0.0146  1.1851
  563TIP3    H223105   0.254   1.198  13.264 -0.7498 -0.0285  0.3171
  564TIP3   OH223106   6.480   4.308   0.158  0.4373 -0.4802  0.2476
  564TIP3    H123107   6.406   4.248   0.150 -1.3397  1.5790  0.1319
  564TIP3    H223108   6.502   4.331   0.067 -0.9529  1.2939  0.2908
  565TIP3   OH223109   1.192   5.697   2.410  0.1065 -0.2237 -0.3199
  565TIP3    H123110   1.122   5.742   2.456  0.4370  0.3579 -0.3783
  565TIP3    H223111   1.203   5.614   2.458 -0.8638 -0.4858 -0.5447
  566TIP3   OH223112   5.667   0.427  11.642 -0.2238 -0.0842 -0.5060
  566TIP3    H123113   5.582   0.416  11.684  0.4276  1.1551  1.3203
  566TIP3    H223114   5.717   0.480  11.705  1.3643  0.5591 -2.2211
  567TIP3   OH223115   4.868   1.080  11.438  0.0110 -0.1755  0.6542
  567TIP3    H123116   4.893   1.116  11.353  2.2602 -1.9013  0.4803
  567TIP3    H223117   4.780   1.112  11.454  1.1021  3.7243 -0.3032
  568TIP3   OH223118   1.812   2.406  11.638 -0.1683 -0.5419 -0.1972
  568TIP3    H123119   1.870   2.462  11.690 -0.3628 -0.7325  0.2285
  568TIP3    H223120   1.775   2.464  11.572  0.0952 -0.3028 -0.1374
  569TIP3   OH223121   1.674   0.894  10.963  0.1296  0.0739 -0.3050
  569TIP3    H123122   1.766   0.901  10.987  0.2978 -4.2018  0.9437
  569TIP3    H223123   1.626   0.904  11.045 -0.4702  0.5957 -0.7002
  570TIP3   OH223124   4.371   4.459  15.101  0.7150 -0.1836  0.8189
  570TIP3    H123125   4.279   4.440  15.123  0.6560  0.9975  1.6632
  570TIP3    H223126   4.385   4.414  15.018 -0.3876 -1.0722  1.0866
  571TIP3   OH223127   2.519   0.116  10.917  0.6424 -0.0612 -0.5659
  571TIP3    H123128   2.519   0.151  10.828 -0.6311 -1.5523 -1.2035
  571TIP3    H223129   2.456   0.170  10.964  0.3915 -0.0442 -0.9175
  572TIP3   OH223130   0.774   6.407  11.182 -0.0822  0.4159 -0.9715
  572TIP3    H123131   0.832   6.338  11.150 -0.1503  0.5637 -1.4264
  572TIP3    H223132   0.694   6.397  11.132 -0.3211  0.4359 -0.5951
  573TIP3   OH223133   3.921   5.074  14.117  0.3017 -0.3615 -0.1546
  573TIP3    H123134   3.890   5.038  14.033  1.8591  1.0520 -1.4021
  573TIP3    H223135   3.896   5.167  14.113  3.1525  0.4779 -0.5453
  574TIP3   OH223136   5.653   1.033  12.901  0.3858  0.1087 -0.0964
  574TIP3    H123137   5.590   0.975  12.859  0.4950  0.4841 -0.7824
  574TIP3    H223138   5.732   0.979  12.911  0.7605  0.3556 -1.4775
  575TIP3   OH223139   1.241   2.933  13.916  0.2943 -0.3107 -0.1579
  575TIP3    H123140   1.217   3.022  13.941 -0.3972 -0.6854  0.5529
  575TIP3    H223141   1.159   2.893  13.887  0.6151 -0.6914 -0.5619
  576TIP3   OH223142   1.182   5.868  10.684  0.1524 -0.8533  0.2139
  576TIP3    H123143   1.254   5.812  10.711  1.5744  0.2415 -1.1738
  576TIP3    H223144   1.222   5.953  10.666 -1.5659 -0.0545 -0.0890
  577TIP3   OH223145   5.791   5.584  10.253 -0.2424  0.1263 -0.1198
  577TIP3    H123146   5.743   5.548  10.179 -1.9881 -0.4288  1.2133
  577TIP3    H223147   5.765   5.676  10.255 -1.6370 -0.2599  0.8321
  578TIP3   OH223148   6.022   5.279  10.002  0.0995 -0.1619  0.4620
  578TIP3    H123149   5.948   5.228   9.968 -1.0267  0.5809  1.6907
  578TIP3    H223150   6.019   5.361   9.953  0.4690 -0.3607  0.1074
  579TIP3   OH223151   2.066   1.232  15.256 -0.4150 -0.0040  0.8252
  579TIP3    H123152   2.153   1.208  15.224 -0.3260 -0.7916  1.6129
  579TIP3    H223153   2.026   1.148  15.279 -1.5602  0.3102  0.0576
  580TIP3   OH223154   1.345   1.811  13.749 -0.0383  0.4636  0.2292
  580TIP3    H123155   1.374   1.901  13.730 -0.2325  0.5880  0.5168
  580TIP3    H223156   1.255   1.821  13.780 -0.2815  0.1065 -0.3514
  581TIP3   OH223157   4.723   0.836  10.872  0.1983 -0.3990  0.3623
  581TIP3    H123158   4.650   0.795  10.918  0.1585 -0.9568 -0.1911
  581TIP3    H223159   4.781   0.865  10.942 -0.8541  0.6484  0.8352
  582TIP3   OH223160   1.165   4.475  12.143  0.7402  0.5191 -0.1783
  582TIP3    H123161   1.231   4.436  12.086  0.6275  1.0990 -0.7271
  582TIP3    H223162   1.124   4.401  12.188  0.4040 -0.0188 -1.3214
  583TIP3   OH223163   0.903   3.781  12.568 -0.2060 -0.1299  0.0718
  583TIP3    H123164   0.866   3.868  12.551 -1.8616 -1.0859 -1.5517
  583TIP3    H223165   0.895   3.770  12.662 -0.5132  1.2381  0.2355
  584TIP3   OH223166   3.411   0.421  14.201  0.2835 -0.2969 -0.8247
  584TIP3    H123167   3.344   0.426  14.132 -1.4431 -1.1512  0.7190
  584TIP3    H223168   3.362   0.404  14.281  2.1105  1.8635  0.8812
  585TIP3   OH223169   6.962   2.682  10.686 -0.3800  0.4717 -0.1006
  585TIP3    H123170   6.944   2.738  10.762 -2.6810 -3.0052  2.2347
  585TIP3    H223171   6.896   2.707  10.621 -0.8827  0.9575  0.5857
  586TIP3   OH223172   6.671   2.243  10.254  0.1227 -0.2405  0.1765
  586TIP3    H123173   6.694   2.205  10.169  1.8996 -1.9125  1.3280
  586TIP3    H223174   6.714   2.329  10.254 -1.3301  0.5371 -1.2363
  587TIP3   OH223175   2.556   4.325  10.966 -0.1980  0.3483  0.1365
  587TIP3    H123176   2.637   4.376  10.972  0.5448 -0.6691 -0.8840
  587TIP3    H223177   2.585   4.236  10.949 -1.5427  0.0094 -0.5016
  588TIP3   OH223178   2.473   3.236  13.187 -0.4811  0.3251 -0.0888
  588TIP3    H123179   2.556   3.194  13.207 -0.3960  1.1981  1.5305
  588TIP3    H223180   2.485   3.275  13.100  0.5289 -0.1856 -0.1826
  589TIP3   OH223181   5.371   4.797  11.428  0.0777  0.2385  0.7485
  589TIP3    H123182   5.294   4.749  11.399  1.8746 -0.9124 -2.7280
  589TIP3    H223183   5.355   4.887  11.399 -0.5251  0.3226  1.3216
  590TIP3   OH223184   1.327   0.839  10.650 -0.1300 -0.6643 -0.1797
  590TIP3    H123185   1.291   0.892  10.721 -0.5064  0.1831 -0.9795
  590TIP3    H223186   1.376   0.770  10.694 -0.8282 -0.4927  0.9123
  591TIP3   OH223187   6.215   3.270  12.820 -0.9738 -0.0582  0.4515
  591TIP3    H123188   6.167   3.287  12.739  0.1732  0.5681 -0.1280
  591TIP3    H223189   6.184   3.184  12.849 -0.1061 -1.1748 -1.6565
  592TIP3   OH223190   2.685   1.127   9.952 -0.3814 -0.1381 -0.1372
  592TIP3    H123191   2.717   1.098  10.038 -1.4228 -0.0871  0.2763
  592TIP3    H223192   2.704   1.054   9.894 -2.2119 -1.3828  0.7237
  593TIP3   OH223193   6.218   1.672  10.926  0.5504  0.0416  0.2608
  593TIP3    H123194   6.154   1.650  10.994  0.6752 -0.8530  0.0989
  593TIP3    H223195   6.165   1.701  10.852  0.3757  0.2141  0.4511
  594TIP3   OH223196   3.440   4.992  10.604  0.8655 -0.3030 -0.4609
  594TIP3    H123197   3.479   5.053  10.666 -0.3741  0.4968 -0.4526
  594TIP3    H223198   3.393   4.929  10.658  2.1387 -1.3010 -0.4675
  595TIP3   OH223199   2.164   4.562  11.668  0.1605 -0.0655 -0.1351
  595TIP3    H123200   2.232   4.623  11.639  0.4696  0.1059  0.9123
  595TIP3    H223201   2.157   4.577  11.762 -1.5236  0.1109 -0.2607
  596TIP3   OH223202   4.266   7.041  12.384  0.2915 -0.0947  0.3553
  596TIP3    H123203   4.259   6.948  12.402  0.7283 -0.5184 -1.4614
  596TIP3    H223204   4.203   7.082  12.444 -2.2736 -1.8240 -0.9678
  597TIP3   OH223205   3.443   6.683   1.244 -0.4784  0.0379  0.5557
  597TIP3    H123206   3.486   6.598   1.250  0.2787  0.4293  0.7692
  597TIP3    H223207   3.507   6.746   1.277 -0.6260  0.8265 -0.5729
  598TIP3   OH223208   1.342   3.648  11.715  0.0782 -0.9234 -0.3885
  598TIP3    H123209   1.352   3.681  11.804  0.6075 -0.1744 -0.7124
  598TIP3    H223210   1.431   3.628  11.687 -0.0074 -0.4921 -0.9880
  599TIP3   OH223211   4.089   4.220  12.063 -0.3885  0.0335  0.1857
  599TIP3    H123212   4.018   4.175  12.108 -0.6507 -0.6045 -0.8596
  599TIP3    H223213   4.112   4.163  11.990 -0.0255  1.0977 -0.5490
  600TIP3   OH223214   1.120   6.499  14.137  0.4687  0.5943 -0.2621
  600TIP3    H123215   1.059   6.429  14.158  1.0716  0.2590  0.4226
  600TIP3    H223216   1.192   6.488  14.199  0.4980  1.9363 -0.0159
  601TIP3   OH223217   5.300   2.641   9.878  0.2396  0.0164 -0.1603
  601TIP3    H123218   5.311   2.728   9.838  0.1169  0.2211  0.2431
  601TIP3    H223219   5.389   2.606   9.882  0.2758  0.0657 -0.4451
  602TIP3   OH223220   1.047   0.213  10.497  0.4011  0.0950  0.5025
  602TIP3    H123221   1.087   0.133  10.464 -1.1047 -0.2019 -0.7441
  602TIP3    H223222   1.107   0.244  10.565  1.0255 -2.0667  1.0128
  603TIP3   OH223223   2.547   6.313  10.997 -0.3441 -0.1445 -0.5504
  603TIP3    H123224   2.607   6.309  10.922 -0.5570 -0.5493 -0.7064
  603TIP3    H223225   2.464   6.280  10.962  0.0282 -2.1237  0.3168
  604TIP3   OH223226   5.918   1.630  14.120 -0.3051 -0.0215  0.0934
  604TIP3    H123227   5.928   1.556  14.060 -0.4044 -1.4061  1.6720
  604TIP3    H223228   5.963   1.601  14.200  1.3019  2.4270  0.1558
  605TIP3   OH223229   3.539   1.449  11.173  0.3653 -0.3373 -0.2597
  605TIP3    H123230   3.589   1.527  11.199  0.2727  0.5704 -2.5970
  605TIP3    H223231   3.452   1.483  11.153 -0.5879 -1.5512  1.5443
  606TIP3   OH223232   5.951   5.760  10.852 -0.4557  0.6550 -0.3381
  606TIP3    H123233   5.969   5.667  10.839 -0.5206  0.7944 -1.5512
  606TIP3    H223234   5.895   5.763  10.929 -1.6046 -0.4551 -1.0848
  607TIP3   OH223235   4.946   0.643   9.346  0.4746  0.0030 -0.6407
  607TIP3    H123236   4.972   0.590   9.271  1.1141  0.0241 -0.4443
  607TIP3    H223237   5.027   0.686   9.374  0.3860 -0.4968  0.4446
  608TIP3   OH223238   3.703   0.329  14.120  0.1555  0.3877  0.2791
  608TIP3    H123239   3.623   0.371  14.149  1.0450  2.0678  0.4118
  608TIP3    H223240   3.764   0.340  14.193  1.4027  1.7831 -0.8966
  609TIP3   OH223241   6.266   0.096  15.377 -0.6198  0.0030 -0.4428
  609TIP3    H123242   6.245   0.177  15.331 -0.2107 -0.6335 -1.7949
  609TIP3    H223243   6.210   0.029  15.337 -0.5649 -0.4970  0.2845
  610TIP3   OH223244   2.133   5.185  14.086 -0.9767  1.0286  0.2199
  610TIP3    H123245   2.065   5.154  14.026 -1.8078  0.4341  1.4226
  610TIP3    H223246   2.094   5.176  14.173  1.1066 -0.6488  1.0727
  611TIP3   OH223247   4.132   4.314  12.982 -0.4410 -0.0735 -0.1315
  611TIP3    H123248   4.191   4.271  13.044 -0.0784  0.8205  0.1599
  611TIP3    H223249   4.061   4.348  13.036 -0.3143  0.3858 -0.2472
  612TIP3   OH223250   3.995   0.708  14.734  0.4875 -0.0418 -0.0668
  612TIP3    H123251   4.038   0.625  14.710 -0.3345  0.1497 -2.3925
  612TIP3    H223252   3.902   0.691  14.721  0.1023  0.5918  1.6572
  613TIP3   OH223253   6.971   2.931  12.874 -0.2676 -0.3835 -0.3121
  613TIP3    H123254   6.898   2.965  12.823 -0.0761  0.2068 -0.2041
  613TIP3    H223255   6.953   2.838  12.883 -0.9563 -0.2600 -0.3693
  614TIP3   OH223256   5.226   2.140  12.150  0.6076  0.2916 -0.8331
  614TIP3    H123257   5.224   2.149  12.246  0.4149  1.1380 -0.9074
  614TIP3    H223258   5.291   2.072  12.134 -0.0200 -0.5244 -0.0579
  615TIP3   OH223259   1.025   0.720  10.157  0.1475  0.0886 -0.6397
  615TIP3    H123260   0.955   0.658  10.138  1.3992 -1.1470 -1.3524
  615TIP3    H223261   1.096   0.695  10.099  2.2904 -0.6195  2.0993
  616TIP3   OH223262   0.495   6.261  11.855 -0.5727 -0.0401  0.6254
  616TIP3    H123263   0.460   6.346  11.880  0.7407  0.0563  2.3359
  616TIP3    H223264   0.587   6.277  11.835 -0.5926 -0.8676 -0.2097
  617TIP3   OH223265   1.424   4.944  12.691 -0.6877  0.4143 -0.1780
  617TIP3    H123266   1.425   4.903  12.605 -0.7383 -1.7423  0.7887
  617TIP3    H223267   1.357   4.897  12.740 -2.1922  3.0207  0.4508
  618TIP3   OH223268   3.223   0.411  13.528  0.6790  0.1388 -0.3960
  618TIP3    H123269   3.172   0.330  13.525 -1.2355  1.2300  0.6712
  618TIP3    H223270   3.257   0.414  13.618 -3.0439  2.5788  1.1474
  619TIP3   OH223271   5.462   4.284  10.935 -0.2700  0.3726 -0.2211
  619TIP3    H123272   5.511   4.202  10.924 -0.2973  0.5280 -1.6818
  619TIP3    H223273   5.529   4.349  10.958  0.0695  0.3694 -1.1738
  620TIP3   OH223274   5.591   4.378  13.700  0.7937 -0.0426 -0.4298
  620TIP3    H123275   5.650   4.332  13.761  1.8899  0.6205 -0.9478
  620TIP3    H223276   5.628   4.466  13.694 -0.3332  0.4218 -0.7015
  621TIP3   OH223277   1.329   0.831   0.475 -0.7130 -0.1198  0.3597
  621TIP3    H123278   1.257   0.767   0.472 -1.5992  0.8838 -0.4814
  621TIP3    H223279   1.403   0.786   0.435 -1.1344 -0.8643  0.4015
  622TIP3   OH223280   0.107   0.953  12.768 -0.4592  0.2902 -0.1398
  622TIP3    H123281   0.049   0.877  12.776  2.1579 -1.7309  1.4285
  622TIP3    H223282   0.075   1.015  12.833  0.2270 -1.6723  2.2507
  623TIP3   OH223283   3.257   2.761   1.420  0.6579 -0.5351  0.5039
  623TIP3    H123284   3.220   2.841   1.456 -1.8584 -1.2620 -0.2053
  623TIP3    H223285   3.252   2.773   1.325  2.2714 -0.7160  0.3708
  624TIP3   OH223286   0.803   5.077   0.038  0.1965 -0.4639  0.5829
  624TIP3    H123287   0.780   5.059   0.129  0.4903  2.4770  1.3641
  624TIP3    H223288   0.757   5.159   0.018  1.3008 -0.2699 -1.4278
  625TIP3   OH223289   5.286   1.133  11.344 -0.2821  0.1795  0.3770
  625TIP3    H123290   5.228   1.061  11.367  1.6360 -2.2074 -1.6624
  625TIP3    H223291   5.372   1.108  11.379  1.6830 -1.4322 -4.6713
  626TIP3   OH223292   4.839   1.297   1.417  0.0484 -0.0609  0.2194
  626TIP3    H123293   4.827   1.221   1.474 -0.1755 -0.1455  0.0610
  626TIP3    H223294   4.780   1.282   1.343 -1.2671  1.0716  0.9853
  627TIP3   OH223295   5.253   4.231   0.067 -0.6292 -0.3350  0.0594
  627TIP3    H123296   5.328   4.267   0.019 -1.1865  0.0692 -0.5269
  627TIP3    H223297   5.198   4.193  -0.001 -2.4041  1.9908  0.0903
  628TIP3   OH223298   2.316   1.127  11.631 -0.7177 -0.3751 -0.0412
  628TIP3    H123299   2.291   1.039  11.658  2.7123 -1.7562 -0.8909
  628TIP3    H223300   2.357   1.165  11.709 -0.6748 -0.1560 -0.1690
  629TIP3   OH223301   3.138   6.401  13.874  0.3724  0.0408  0.0940
  629TIP3    H123302   3.130   6.329  13.937  1.5088 -0.1506  0.0247
  629TIP3    H223303   3.189   6.364  13.802 -0.0014  0.5882 -0.4556
  630TIP3   OH223304   3.828   6.807  12.859  0.1023 -0.5336 -0.4817
  630TIP3    H123305   3.910   6.777  12.896  0.5868  1.0330 -0.1895
  630TIP3    H223306   3.842   6.901  12.842 -1.7365 -0.1376 -0.0684
  631TIP3   OH223307   0.392   2.202   1.181  0.0790  0.9234 -1.0006
  631TIP3    H123308   0.465   2.150   1.215  1.2649  1.6723 -2.2393
  631TIP3    H223309   0.326   2.138   1.154  0.0245  0.2522  0.6584
  632TIP3   OH223310   4.767   1.378  11.947 -0.3627  0.7839  0.1253
  632TIP3    H123311   4.719   1.300  11.974  0.8866 -0.4845 -1.1020
  632TIP3    H223312   4.766   1.374  11.851  2.9905  0.1090  0.0111
  633TIP3   OH223313   1.333   3.319   9.873 -0.3827 -0.2357  0.7378
  633TIP3    H123314   1.341   3.233   9.831  2.1489  1.2466 -2.2373
  633TIP3    H223315   1.418   3.334   9.913 -0.8129  0.8802  1.2691
  634TIP3   OH223316   6.250   6.823  10.691 -0.9494  0.0511 -0.4430
  634TIP3    H123317   6.217   6.808  10.602 -0.5164  0.2302 -0.6338
  634TIP3    H223318   6.340   6.851  10.679 -0.4958 -1.0947  0.1039
  635TIP3   OH223319   5.706   1.687  10.123 -0.0258 -0.0140 -0.0031
  635TIP3    H123320   5.743   1.740  10.052 -0.2669  1.2982  0.8255
  635TIP3    H223321   5.629   1.646  10.085 -1.8638  2.9591  0.2101
  636TIP3   OH223322   3.781   1.095  10.397  0.2671  0.0556 -0.2679
  636TIP3    H123323   3.778   1.190  10.411  3.4923  0.0167  1.9510
  636TIP3    H223324   3.775   1.058  10.485  2.9948 -1.5076 -0.6275
  637TIP3   OH223325   6.605   3.454  11.879  0.3443 -0.2121  0.5546
  637TIP3    H123326   6.513   3.431  11.868 -0.3193  2.1604  0.5783
  637TIP3    H223327   6.607   3.510  11.957  1.7037  0.2238  0.2417
  638TIP3   OH223328   0.033   5.942  10.119 -0.2705  0.0198 -0.5666
  638TIP3    H123329  -0.006   5.889  10.189  0.4347 -0.6135 -0.6423
  638TIP3    H223330   0.125   5.952  10.145 -0.7691  2.8721  0.4481
  639TIP3   OH223331   2.034   4.431   9.559 -0.7496  0.1374 -0.1333
  639TIP3    H123332   1.966   4.462   9.619 -0.2331  1.7607 -0.3437
  639TIP3    H223333   2.093   4.506   9.549 -0.4807 -0.2900 -2.1672
  640TIP3   OH223334   3.200   5.879  11.543  0.3013  0.1466  0.0671
  640TIP3    H123335   3.285   5.874  11.588 -1.0476  1.0732  2.9567
  640TIP3    H223336   3.153   5.801  11.573 -1.0337  1.3553  1.2726
  641TIP3   OH223337   4.111   0.738   9.936  0.5407 -0.5055 -0.0399
  641TIP3    H123338   4.129   0.832   9.941  0.5806 -0.6011  2.4675
  641TIP3    H223339   4.016   0.732   9.925  0.6093 -0.1898 -0.8870
  642TIP3   OH223340   1.575   0.678  10.774  0.0721  0.7349 -0.4789
  642TIP3    H123341   1.568   0.612  10.843 -0.4032  1.4676  0.2008
  642TIP3    H223342   1.591   0.760  10.822 -2.3114  1.6266 -1.0456
  643TIP3   OH223343   6.928   4.018  12.093  0.5069 -0.0209  0.1818
  643TIP3    H123344   6.943   3.984  12.004  0.3678 -1.1625  0.5731
  643TIP3    H223345   6.958   4.108  12.089  1.4574 -0.3465 -0.7624
  644TIP3   OH223346   0.527   4.186  10.280 -0.2897 -0.2624 -0.4886
  644TIP3    H123347   0.498   4.272  10.311 -0.1704  0.0400 -1.2040
  644TIP3    H223348   0.507   4.127  10.353  0.2019  0.4704  0.2593
  645TIP3   OH223349   4.989   4.491  14.744 -0.0742 -0.0650  0.2017
  645TIP3    H123350   5.065   4.549  14.741 -1.4528  1.8112 -0.6046
  645TIP3    H223351   4.926   4.531  14.684 -1.1685 -2.3603 -0.2831
  646TIP3   OH223352   0.149   1.535  10.594  0.0904  0.2287 -0.6494
  646TIP3    H123353   0.108   1.450  10.575  0.8114 -0.5991  1.3109
  646TIP3    H223354   0.084   1.599  10.566 -1.3014 -0.9970 -0.3390
  647TIP3   OH223355   6.996   6.416  10.873 -0.2044  0.1602  0.3389
  647TIP3    H123356   6.984   6.503  10.834  0.4808 -0.3831 -1.1481
  647TIP3    H223357   7.081   6.387  10.841  0.1312 -0.5682  1.8151
  648TIP3   OH223358   5.843   7.140   2.882 -0.0490 -0.2281 -0.3020
  648TIP3    H123359   5.792   7.090   2.945 -1.6910  0.6318 -0.8780
  648TIP3    H223360   5.930   7.145   2.920 -0.3830 -1.7138  0.7479
  649TIP3   OH223361   4.013   6.144  14.731 -0.0811 -0.0829 -0.0525
  649TIP3    H123362   3.939   6.205  14.733  0.2146  0.2709  1.4473
  649TIP3    H223363   3.979   6.064  14.771  0.4378  0.2095  0.9989
  650TIP3   OH223364   3.976   5.369  14.428  0.0136  0.0691 -0.1468
  650TIP3    H123365   3.941   5.292  14.473  1.5139 -2.1331 -2.5020
  650TIP3    H223366   3.911   5.390  14.361  0.2609 -0.0245 -0.4156
  651TIP3   OH223367   4.495   1.210  11.235 -0.0131 -0.8823 -0.0134
  651TIP3    H123368   4.541   1.235  11.315 -0.0591  0.2521 -0.3224
  651TIP3    H223369   4.557   1.154  11.189  0.8176  0.0731 -0.1057
  652TIP3   OH223370   1.614   3.361  12.769 -0.2588  0.2055 -0.6022
  652TIP3    H123371   1.674   3.286  12.764  0.7851  1.0139 -0.4560
  652TIP3    H223372   1.556   3.349  12.694 -0.0193 -0.6704 -0.6678
  653TIP3   OH223373   0.520   0.655  10.777 -0.2669 -0.2869  0.6443
  653TIP3    H123374   0.499   0.630  10.867 -2.9124 -3.1797 -0.6002
  653TIP3    H223375   0.589   0.594  10.750 -0.6720 -0.5520  0.1995
  654TIP3   OH223376   6.388   2.371  13.468 -0.0810 -0.1556 -0.1971
  654TIP3    H123377   6.312   2.427  13.481 -0.0844  0.0492 -1.0234
  654TIP3    H223378   6.414   2.343  13.556 -0.4939  0.5871  0.1637
  655TIP3   OH223379   5.296   2.034   9.482 -0.1423 -0.2825  0.1415
  655TIP3    H123380   5.227   2.066   9.541 -0.7572  0.4054 -0.9148
  655TIP3    H223381   5.355   1.984   9.539 -2.5647 -2.6507  0.7563
  656TIP3   OH223382   2.583   4.550  13.471  0.3533  0.7230 -0.5739
  656TIP3    H123383   2.663   4.531  13.423  0.3567 -0.1183 -0.2465
  656TIP3    H223384   2.612   4.573  13.559  0.2448  0.4996 -0.4782
  657TIP3   OH223385   0.590   3.761  12.406  0.9013  0.1809 -0.4819
  657TIP3    H123386   0.628   3.743  12.320  1.3245  0.9217 -0.4584
  657TIP3    H223387   0.608   3.682  12.457  0.0591 -0.5443 -1.2608
  658TIP3   OH223388   4.909   6.093  10.692  0.0359  0.6392 -0.7534
  658TIP3    H123389   4.923   6.164  10.629  0.0933  0.8560 -0.4963
  658TIP3    H223390   4.959   6.020  10.656  0.4821  0.9128 -0.7045
  659TIP3   OH223391   1.661   6.955   2.124 -0.5143 -0.2438  0.3042
  659TIP3    H123392   1.600   7.015   2.082  0.0970  0.6631  0.6784
  659TIP3    H223393   1.691   7.002   2.202 -0.7791 -1.4359  1.1624
  660TIP3   OH223394   2.125   1.174  12.796  0.4633  0.1684  0.3397
  660TIP3    H123395   2.137   1.080  12.785 -0.6042  0.1460 -0.9527
  660TIP3    H223396   2.071   1.183  12.874  1.6181 -0.1971  1.2030
  661TIP3   OH223397   4.783   4.171   0.130  0.5325  0.1380 -0.0413
  661TIP3    H123398   4.871   4.173   0.167 -0.0042  0.2705  1.2799
  661TIP3    H223399   4.759   4.079   0.128  0.8910  0.0493 -0.9241
  662TIP3   OH223400   5.817   6.468  12.311  0.3958  0.5829  0.3316
  662TIP3    H123401   5.740   6.493  12.261  0.2840 -1.0417 -0.3929
  662TIP3    H223402   5.788   6.392  12.362  1.2684  0.4986  0.7093
  663TIP3   OH223403   1.138   5.020  14.597  0.1952 -0.1162 -0.4903
  663TIP3    H123404   1.208   4.987  14.541  0.6772  0.1175 -0.0268
  663TIP3    H223405   1.137   4.961  14.672  1.4527  1.2215  0.6275
  664TIP3   OH223406   6.954   4.284   0.531 -0.0017  0.2391  0.3561
  664TIP3    H123407   6.917   4.335   0.460 -2.0329 -0.4046  0.8940
  664TIP3    H223408   7.002   4.213   0.487  1.8463  1.8448 -0.3603
  665TIP3   OH223409   7.088   2.856  13.148  0.1670 -0.1036  0.3095
  665TIP3    H123410   7.013   2.876  13.204  0.0619  1.2027 -0.2785
  665TIP3    H223411   7.049   2.818  13.068 -0.3658  4.3337 -1.8281
  666TIP3   OH223412   2.607   2.994  12.828  0.6269 -0.0874  0.2512
  666TIP3    H123413   2.695   2.958  12.828  0.4277 -0.6326  1.8241
  666TIP3    H223414   2.564   2.954  12.903 -1.0205  0.0509 -0.5735
  667TIP3   OH223415   6.904   4.255  14.821  0.0503 -0.2182 -0.0686
  667TIP3    H123416   6.989   4.299  14.829  0.5353 -1.3312  1.5086
  667TIP3    H223417   6.917   4.171  14.864 -1.8078 -0.5156 -0.0061
  668TIP3   OH223418   2.746   6.159   1.943  0.3868 -0.0935  0.8828
  668TIP3    H123419   2.823   6.213   1.928  0.8075 -0.4915  1.5521
  668TIP3    H223420   2.743   6.148   2.038 -1.5592  1.4565  1.0715
  669TIP3   OH223421   6.939   1.664  13.987 -0.9282  0.4927 -0.4134
  669TIP3    H123422   6.863   1.702  14.031 -0.7926  1.0517 -0.6456
  669TIP3    H223423   6.915   1.662  13.895 -0.9603 -0.0649 -0.3966
  670TIP3   OH223424   6.885   6.667  14.275 -0.0088  0.1484  0.2080
  670TIP3    H123425   6.952   6.687  14.340  1.0230  0.1422 -0.8370
  670TIP3    H223426   6.842   6.751  14.259  0.1434  0.2719  0.4357
  671TIP3   OH223427   3.754   3.065   2.878  0.5536  0.4260  0.2679
  671TIP3    H123428   3.764   3.159   2.863 -1.4498  0.2077 -3.5925
  671TIP3    H223429   3.843   3.030   2.871  1.0994  1.8498 -0.2010
  672TIP3   OH223430   2.944   0.953   9.591 -0.3636  0.0627 -0.2607
  672TIP3    H123431   2.917   1.010   9.664 -0.2051  0.3448 -0.4212
  672TIP3    H223432   2.968   1.014   9.521 -2.2416 -0.1929 -1.2020
  673TIP3   OH223433   2.186   3.904   9.777 -0.1844 -0.3732 -0.0866
  673TIP3    H123434   2.181   3.918   9.682 -0.8589 -2.6861 -0.4603
  673TIP3    H223435   2.102   3.935   9.810 -0.3951 -0.5782 -0.4220
  674TIP3   OH223436   6.268   0.901   2.377  0.3708 -0.0471 -0.5366
  674TIP3    H123437   6.223   0.968   2.324  1.6845  1.7869  0.5604
  674TIP3    H223438   6.356   0.936   2.389  0.9901 -1.8373  0.3921
  675TIP3   OH223439   0.468   1.521  10.073  0.2114 -0.6503  0.5333
  675TIP3    H123440   0.485   1.538   9.980 -0.4763 -1.0917  0.3141
  675TIP3    H223441   0.396   1.580  10.096  0.4194 -0.4996  0.8019
  676TIP3   OH223442   2.767   0.955  12.528  0.6485  0.5089  0.1455
  676TIP3    H123443   2.858   0.955  12.498  0.8948 -0.7352  0.8522
  676TIP3    H223444   2.736   0.866  12.511 -0.5524  1.0105 -0.3989
  677TIP3   OH223445   4.590   5.048  13.582 -0.6468  0.2850  0.1250
  677TIP3    H123446   4.521   5.114  13.579 -0.6048  0.3129 -0.3007
  677TIP3    H223447   4.586   5.005  13.496 -0.9451 -0.5400  0.5387
  678TIP3   OH223448   5.942   2.535  14.449  0.2939  0.5730  0.1390
  678TIP3    H123449   6.033   2.562  14.442  0.0387  1.4468 -0.0273
  678TIP3    H223450   5.905   2.594  14.516 -0.8341  2.2049 -1.8140
  679TIP3   OH223451   3.861   6.168  10.023  0.3619  0.2753  0.1081
  679TIP3    H123452   3.893   6.080  10.004  0.9036  0.6508 -0.7587
  679TIP3    H223453   3.844   6.207   9.938  1.3670  1.4628  0.4214
  680TIP3   OH223454   5.171   0.198  11.629 -0.4678 -0.0635  0.2662
  680TIP3    H123455   5.094   0.255  11.630  0.4179  1.2882 -1.9673
  680TIP3    H223456   5.240   0.249  11.670  0.3610  0.6162 -1.8479
  681TIP3   OH223457   0.670   0.887  10.723 -0.5141  0.1825 -0.2974
  681TIP3    H123458   0.625   0.816  10.768  0.9533 -2.1173 -2.2571
  681TIP3    H223459   0.612   0.909  10.649 -1.1037  1.3210  0.4611
  682TIP3   OH223460   6.664   1.124  12.586 -0.1404  0.3299 -0.2467
  682TIP3    H123461   6.688   1.031  12.580  1.5823  0.7869 -1.3631
  682TIP3    H223462   6.570   1.124  12.599 -0.3642 -1.5796 -1.5057
  683TIP3   OH223463   1.884   2.437  10.748 -0.1886  0.4765  0.8863
  683TIP3    H123464   1.961   2.388  10.775 -0.2767 -0.2142 -0.0581
  683TIP3    H223465   1.905   2.469  10.660 -0.3298  1.7239  1.2900
  684TIP3   OH223466   1.684   2.832  12.506 -0.0034 -0.0493 -0.1412
  684TIP3    H123467   1.717   2.754  12.551 -0.9785 -0.9385 -0.9173
  684TIP3    H223468   1.664   2.801  12.417 -0.7953  1.0001 -0.3419
  685TIP3   OH223469   0.887   5.677   1.184  0.0677  0.0183  0.5264
  685TIP3    H123470   0.928   5.757   1.218  0.2902  0.2505 -0.2594
  685TIP3    H223471   0.895   5.685   1.089  1.5256 -1.6957  0.4702
  686TIP3   OH223472   2.172   4.061   2.718  0.2263 -0.2817  0.2894
  686TIP3    H123473   2.239   4.124   2.690  0.3843 -0.3945  0.4111
  686TIP3    H223474   2.104   4.115   2.759 -0.4249 -0.0202 -1.0677
  687TIP3   OH223475   6.694   3.497  13.416  0.1843  0.1121  0.3655
  687TIP3    H123476   6.623   3.463  13.362  0.4940  0.4249 -0.2535
  687TIP3    H223477   6.774   3.476  13.367  0.6786 -1.8076  1.8854
  688TIP3   OH223478   6.683   6.502  13.303  0.5201  0.0845  0.4024
  688TIP3    H123479   6.753   6.514  13.367 -0.6829  0.6160  1.6793
  688TIP3    H223480   6.725   6.516  13.218  1.9167  0.5459  1.1343
  689TIP3   OH223481   0.237   5.807  11.154  0.7366 -0.1203  0.2305
  689TIP3    H123482   0.199   5.881  11.108  1.5260  0.0719 -0.1273
  689TIP3    H223483   0.216   5.731  11.099 -0.1921 -0.1895  0.6684
  690TIP3   OH223484   5.527   1.058  10.535 -0.3253  0.1845  0.7541
  690TIP3    H123485   5.475   0.989  10.494  0.5609 -0.0369 -0.0272
  690TIP3    H223486   5.526   1.130  10.471 -2.5075  1.5595  2.1711
  691TIP3   OH223487   4.400   1.405   0.193 -0.2148  0.3361 -0.2989
  691TIP3    H123488   4.491   1.377   0.200 -0.7238 -1.0272  1.8168
  691TIP3    H223489   4.361   1.343   0.130  0.0939  0.3184 -0.4734
  692TIP3   OH223490   6.727   0.395   3.009  0.0568 -0.1390  0.0092
  692TIP3    H123491   6.797   0.337   3.041  0.3418 -0.2834 -0.8514
  692TIP3    H223492   6.695   0.439   3.088  2.0640  0.9777  0.2884
  693TIP3   OH223493   6.167   0.702   2.163 -0.3570  0.1295 -0.1052
  693TIP3    H123494   6.172   0.756   2.242 -0.4746 -1.8585  1.3555
  693TIP3    H223495   6.253   0.711   2.122 -0.3098  1.2399  0.2158
  694TIP3   OH223496   7.054   5.631  14.925  0.3945  0.0572 -0.0941
  694TIP3    H123497   7.092   5.696  14.984  0.9260  1.0222 -1.4640
  694TIP3    H223498   6.984   5.677  14.880 -1.6386 -1.3381  1.4267
  695TIP3   OH223499   4.629   2.476   3.307  0.0739  0.0506 -0.0169
  695TIP3    H123500   4.647   2.394   3.354  2.6074  0.3520 -0.2925
  695TIP3    H223501   4.692   2.538   3.344 -0.9769  1.5560 -0.6733
  696TIP3   OH223502   0.741   6.508  10.747 -0.9305  0.1429 -0.0611
  696TIP3    H123503   0.757   6.414  10.748 -0.7282  0.1475 -1.3116
  696TIP3    H223504   0.784   6.540  10.827 -0.2440 -0.7153 -0.0663
  697TIP3   OH223505   6.559   0.253   3.301 -0.6122 -0.5851  0.0960
  697TIP3    H123506   6.600   0.340   3.301 -1.2272 -0.2329 -2.3159
  697TIP3    H223507   6.618   0.198   3.249 -1.5158 -0.9095 -0.6231
  698TIP3   OH223508   5.614   2.219  11.507 -0.3278 -0.0781 -0.6465
  698TIP3    H123509   5.524   2.238  11.480 -0.0112  2.9284  0.0947
  698TIP3    H223510   5.668   2.258  11.438  0.3896  1.3520  0.6674
  699TIP3   OH223511   4.443   6.487  11.814  0.4421  0.0051 -0.4020
  699TIP3    H123512   4.534   6.459  11.816 -0.0402 -1.6220 -0.2762
  699TIP3    H223513   4.434   6.533  11.731  1.6209  1.1230  0.0496
  700TIP3   OH223514   4.780   6.380  12.774 -0.2887 -0.0304 -0.1203
  700TIP3    H123515   4.764   6.474  12.784 -1.9862 -0.1665 -1.1723
  700TIP3    H223516   4.837   6.373  12.698 -0.2718  0.1343 -0.1226
  701TIP3   OH223517   5.767   5.458   9.705 -0.2091 -0.2617  0.0585
  701TIP3    H123518   5.718   5.442   9.624  1.0141 -1.6376 -0.4564
  701TIP3    H223519   5.858   5.438   9.682  0.5700  1.8410  1.0946
  702TIP3   OH223520   5.861   2.719  11.766  0.0643  0.3092  0.8380
  702TIP3    H123521   5.939   2.769  11.788  0.1459  0.7162 -0.3192
  702TIP3    H223522   5.893   2.641  11.721 -0.1875  0.5693  0.1901
  703TIP3   OH223523   5.244   3.228  14.713  0.2314 -0.4379  0.3819
  703TIP3    H123524   5.220   3.231  14.805  0.6547 -1.6761  0.5544
  703TIP3    H223525   5.339   3.215  14.713  0.0773 -1.7771 -0.1777
  704TIP3   OH223526   4.686   4.826   4.439 -0.4135 -0.7121  1.1833
  704TIP3    H123527   4.593   4.838   4.458 -0.3570 -1.0722  1.7183
  704TIP3    H223528   4.689   4.747   4.384 -0.4931 -0.2269  0.4754
  705TIP3   OH223529   6.980   0.983  13.454 -0.1166 -0.4545  0.1728
  705TIP3    H123530   6.968   0.999  13.548 -1.3594  0.2999 -0.0897
  705TIP3    H223531   6.940   0.897  13.440 -0.2812 -0.3956  0.2736
  706TIP3   OH223532   4.409   2.922   3.469  0.3249 -0.0474 -0.0880
  706TIP3    H123533   4.330   2.882   3.433  0.6244 -0.2372 -0.5409
  706TIP3    H223534   4.437   2.986   3.403  0.8649 -0.3802 -0.1916
  707TIP3   OH223535   5.791   1.773  10.940  0.3445  0.0425 -0.0170
  707TIP3    H123536   5.774   1.863  10.970 -1.2639 -0.5789  1.0722
  707TIP3    H223537   5.776   1.776  10.845 -1.6297  0.5441  0.2680
  708TIP3   OH223538   2.486   6.586  14.016  0.7912 -0.0706 -0.3611
  708TIP3    H123539   2.513   6.527  14.086  0.5965  1.5878  1.1895
  708TIP3    H223540   2.562   6.643  14.001  1.0448 -0.7667 -1.9549
  709TIP3   OH223541   1.089   0.394  15.301  0.3108  0.3090  0.0312
  709TIP3    H123542   1.095   0.363  15.210  2.0644 -2.3314  0.9272
  709TIP3    H223543   0.996   0.389  15.322  0.1883 -1.9111 -0.7759
  710TIP3   OH223544   4.268   4.053  14.535  0.4210  0.6377 -0.4268
  710TIP3    H123545   4.194   4.073  14.477  0.1792 -0.4070 -0.5090
  710TIP3    H223546   4.286   4.135  14.581 -0.1989  1.1443 -1.0713
  711TIP3   OH223547   5.433   4.690   2.841 -0.1114  0.4782  0.3516
  711TIP3    H123548   5.527   4.703   2.836 -0.1882  0.6464 -1.3470
  711TIP3    H223549   5.422   4.609   2.891  0.9209  0.5903  0.7638
  712TIP3   OH223550   4.519   7.144  14.730 -0.3044 -0.8558  0.1356
  712TIP3    H123551   4.489   7.227  14.768 -0.1245 -0.6995 -0.0632
  712TIP3    H223552   4.531   7.086  14.805  1.3101 -0.1585  0.4423
  713TIP3   OH223553   5.518   2.704   5.461  0.7497  0.1610 -0.2399
  713TIP3    H123554   5.560   2.619   5.477 -1.2151 -0.7195  0.6417
  713TIP3    H223555   5.584   2.755   5.414  1.7703 -2.0728 -1.3918
  714TIP3   OH223556   2.927   3.495  13.774  0.9714  1.1574 -0.1162
  714TIP3    H123557   2.868   3.424  13.798  0.4480  2.0737  1.4913
  714TIP3    H223558   2.942   3.484  13.680 -1.0177  0.3589 -0.3821
  715TIP3   OH223559   0.830   4.357   3.195  0.0923 -0.2027  0.0825
  715TIP3    H123560   0.819   4.285   3.133  2.2050 -0.6063  0.0788
  715TIP3    H223561   0.889   4.322   3.262  0.3627  1.1942  0.6164
  716TIP3   OH223562   0.562   5.611  12.363 -0.4543 -0.4143  0.7399
  716TIP3    H123563   0.594   5.690  12.408  0.1770  0.0868 -0.5384
  716TIP3    H223564   0.480   5.591  12.407 -1.3019  1.7286  0.2871
  717TIP3   OH223565   5.661   2.230  10.583 -0.1563 -0.1759  0.2145
  717TIP3    H123566   5.588   2.270  10.535  0.4520 -1.0522 -1.5213
  717TIP3    H223567   5.623   2.202  10.666 -1.2578  1.3445  0.2718
  718TIP3   OH223568   2.834   3.751   4.924  0.3636  0.3333  0.0954
  718TIP3    H123569   2.871   3.664   4.912  2.7320  1.4702 -1.6944
  718TIP3    H223570   2.845   3.769   5.018  1.1779 -0.7177  0.2227
  719TIP3   OH223571   5.613   6.193  10.943 -0.2046  0.0893 -0.1326
  719TIP3    H123572   5.519   6.176  10.944 -0.2931  0.4327 -1.3013
  719TIP3    H223573   5.651   6.115  10.902  0.1100 -0.3996  1.0579
  720TIP3   OH223574   6.961   5.352   9.424  0.1976 -0.6124  0.1057
  720TIP3    H123575   7.049   5.389   9.421 -0.3684  0.7556 -0.4328
  720TIP3    H223576   6.949   5.328   9.516  0.9780 -0.4241  0.2656
  721TIP3   OH223577   2.336   0.330  10.213 -0.0527  0.3120 -0.5253
  721TIP3    H123578   2.240   0.326  10.208 -0.0336 -1.4459 -0.1464
  721TIP3    H223579   2.360   0.251  10.262  1.3508  2.7092  3.0287
  722TIP3   OH223580   6.709   5.465   1.006 -0.2525 -0.0200 -0.2427
  722TIP3    H123581   6.631   5.437   0.957  0.0405  0.3270 -0.9198
  722TIP3    H223582   6.774   5.397   0.987 -0.8027 -1.0890  1.4786
  723TIP3   OH223583   3.463   7.030  12.371  0.9750  0.0584 -0.3743
  723TIP3    H123584   3.520   7.098  12.336 -0.3419  1.1880 -0.4069
  723TIP3    H223585   3.510   6.948  12.356  2.0969  0.8606 -1.3540
  724TIP3   OH223586   3.970   5.040  11.351  0.3005 -0.1478 -0.4205
  724TIP3    H123587   3.907   5.056  11.421  0.1081  1.9855 -0.9894
  724TIP3    H223588   3.920   4.998  11.282  0.0922 -0.6735  0.0404
  725TIP3   OH223589   2.386   4.483   9.672  0.4183  0.2114 -0.0755
  725TIP3    H123590   2.430   4.432   9.604 -1.7586 -1.8650 -0.0449
  725TIP3    H223591   2.341   4.553   9.625  0.9538  0.2854 -0.4804
  726TIP3   OH223592   0.437   3.586  10.763 -0.4294  0.5561  0.1519
  726TIP3    H123593   0.378   3.530  10.813  0.5911  0.4413  1.2699
  726TIP3    H223594   0.524   3.567  10.799  0.3118  0.6805 -1.4767
  727TIP3   OH223595   4.419   1.745   1.589 -0.6195  0.1959  0.1965
  727TIP3    H123596   4.456   1.779   1.670  0.0442  0.6115 -0.2669
  727TIP3    H223597   4.485   1.765   1.522 -1.2094 -0.0199 -0.4681
  728TIP3   OH223598   4.278   5.600  10.677 -0.4948  0.1319 -0.0653
  728TIP3    H123599   4.194   5.592  10.723  0.3101 -1.1989  1.2715
  728TIP3    H223600   4.260   5.570  10.588 -0.9961 -2.4584  0.8111
  729TIP3   OH223601   2.768   0.432   9.964 -0.3168  0.0415  0.0144
  729TIP3    H123602   2.683   0.425  10.009  1.3334  0.6857  3.5487
  729TIP3    H223603   2.772   0.354   9.909 -1.6389 -2.1536  2.7713
  730TIP3   OH223604   2.122   6.404  11.503  0.4621  0.0889 -0.1029
  730TIP3    H123605   2.195   6.433  11.559 -0.8777  1.1043  1.1898
  730TIP3    H223606   2.093   6.484  11.459 -1.0909  0.1103  0.8849
  731TIP3   OH223607   6.267   1.877  14.528  0.3143  0.2099  0.5253
  731TIP3    H123608   6.359   1.858  14.542  0.6707  2.4079  1.6625
  731TIP3    H223609   6.220   1.815  14.584  1.0282 -1.3480 -0.5518
  732TIP3   OH223610   7.133   5.810  12.176 -0.7076  0.1941  0.1982
  732TIP3    H123611   7.115   5.784  12.267  1.0866 -0.4518  0.4107
  732TIP3    H223612   7.189   5.887  12.184  0.6870 -0.7154 -0.2853
  733TIP3   OH223613   6.107   0.937   9.608 -0.1804  0.5044  0.5382
  733TIP3    H123614   6.162   0.859   9.615  0.6691  1.2047  1.9796
  733TIP3    H223615   6.023   0.904   9.577 -0.0341 -1.0884  1.7391
  734TIP3   OH223616   0.537   6.651   9.497 -0.4474  0.1209  0.2039
  734TIP3    H123617   0.544   6.728   9.440  0.1359  0.2791  0.4816
  734TIP3    H223618   0.543   6.687   9.586 -2.3507 -0.0060  0.4227
  735TIP3   OH223619   4.620   1.676  11.666  0.5886  0.4999 -0.1694
  735TIP3    H123620   4.702   1.639  11.697  0.3370  0.2410  0.1929
  735TIP3    H223621   4.646   1.749  11.610  1.0938 -0.2059 -0.8810
  736TIP3   OH223622   0.050   0.550  12.104 -0.5216 -0.0935 -0.4326
  736TIP3    H123623   0.066   0.480  12.166  2.0717  0.0516 -0.8020
  736TIP3    H223624   0.065   0.510  12.018 -1.3847  0.3507 -0.8035
  737TIP3   OH223625   1.392   2.102   0.935 -0.0403 -0.4637 -0.2355
  737TIP3    H123626   1.307   2.143   0.951 -0.2113 -0.5230 -0.9660
  737TIP3    H223627   1.416   2.063   1.019  0.4938  1.7918  0.7466
  738TIP3   OH223628   4.028   6.573  11.955  0.2358 -0.3179  0.1300
  738TIP3    H123629   4.026   6.653  11.902  2.3261  1.2798  2.2365
  738TIP3    H223630   4.087   6.514  11.908  0.0194  0.0445 -0.6037
  739TIP3   OH223631   5.288   3.897  12.354 -0.3548  0.3496 -0.5117
  739TIP3    H123632   5.243   3.852  12.426  2.9720 -3.8395 -0.6289
  739TIP3    H223633   5.279   3.838  12.279  2.5943  0.7567 -1.3092
  740TIP3   OH223634   1.889   4.361   9.335  0.0839 -0.3097 -0.6911
  740TIP3    H123635   1.967   4.395   9.379  1.2160 -2.5943 -0.7831
  740TIP3    H223636   1.816   4.394   9.387  1.2435 -0.3392  1.0428
  741TIP3   OH223637   2.523   4.634  10.770 -0.3246  0.0048  0.0969
  741TIP3    H123638   2.573   4.554  10.789 -0.3785  0.2308  1.2615
  741TIP3    H223639   2.573   4.704  10.813  0.9793  0.9989 -2.7850
  742TIP3   OH223640   6.140   4.128   2.842 -0.1451 -0.3790  0.0683
  742TIP3    H123641   6.159   4.199   2.781  3.4257  1.3602  2.8153
  742TIP3    H223642   6.194   4.055   2.811  0.0654 -0.1876 -0.0208
  743TIP3   OH223643   5.381   1.963  11.028  0.1225 -0.3912 -0.1148
  743TIP3    H123644   5.352   1.954  10.937 -1.5179 -0.2746  0.3745
  743TIP3    H223645   5.353   2.051  11.053  2.6399  0.5127 -0.1768
  744TIP3   OH223646   6.090   2.976  11.684 -0.2745  0.0581  0.4003
  744TIP3    H123647   6.160   2.940  11.629 -1.8466 -2.3990 -0.1171
  744TIP3    H223648   6.015   2.985  11.625 -0.7029  1.7243  1.1650
  745TIP3   OH223649   4.300   6.708  12.866  0.2089  0.5018  0.1928
  745TIP3    H123650   4.311   6.704  12.961 -1.0232 -1.5981  0.3043
  745TIP3    H223651   4.381   6.748  12.834  2.6478 -2.6976  1.8171
  746TIP3   OH223652   3.228   4.322  14.878 -0.4889 -0.0557  0.5349
  746TIP3    H123653   3.278   4.244  14.857 -0.1562 -0.6842  3.2874
  746TIP3    H223654   3.293   4.387  14.903 -0.8574  0.5355  0.0040
  747TIP3   OH223655   4.191   0.008  12.136 -0.3307  0.1008 -0.1721
  747TIP3    H123656   4.244  -0.032  12.204  0.0677 -0.3245 -0.7239
  747TIP3    H223657   4.102   0.009  12.172  0.0546  0.9251  0.8061
  748TIP3   OH223658   5.370   2.878  10.298  0.5369 -0.3342  0.1994
  748TIP3    H123659   5.306   2.865  10.228 -0.9236 -0.0460  1.4287
  748TIP3    H223660   5.399   2.969  10.287  0.9676 -0.5609 -0.5469
  749TIP3   OH223661   1.755   3.918   1.926  0.5862 -0.2997  0.1788
  749TIP3    H123662   1.806   3.973   1.866 -2.6908  1.0675 -1.6400
  749TIP3    H223663   1.786   3.941   2.013 -0.1053  4.1412 -0.5109
  750TIP3   OH223664   0.028   3.052   0.744  0.1454  0.2278 -0.3706
  750TIP3    H123665  -0.052   3.100   0.765  0.7811  1.6239 -1.0279
  750TIP3    H223666   0.085   3.065   0.820 -0.1690 -0.6290  0.0264
  751TIP3   OH223667   5.438   5.434  11.762  0.4533  0.2209 -0.0346
  751TIP3    H123668   5.491   5.511  11.783 -0.3974  0.8091  0.0108
  751TIP3    H223669   5.468   5.407  11.675  1.1869  0.2273  0.2139
  752TIP3   OH223670   6.110   5.119   0.074  0.9963 -0.4883 -0.1915
  752TIP3    H123671   6.014   5.117   0.069  0.8433 -0.4512  1.9099
  752TIP3    H223672   6.130   5.201   0.118  2.2084  0.9134 -3.1534
  753TIP3   OH223673   6.133   4.360  14.347 -0.1045  0.2540 -0.2717
  753TIP3    H123674   6.116   4.448  14.313  1.1294  0.7084  0.2014
  753TIP3    H223675   6.141   4.305  14.269 -0.2107  0.7023 -0.6019
  754TIP3   OH223676   4.219   1.274  14.598  0.7711  0.5358 -0.1692
  754TIP3    H123677   4.233   1.367  14.615  0.5103  0.5542 -0.0378
  754TIP3    H223678   4.186   1.239  14.681  1.0288  0.2920 -0.1688
  755TIP3   OH223679   4.382   4.244  10.851 -0.5095  0.4550 -0.1269
  755TIP3    H123680   4.441   4.180  10.809 -1.2974  0.7635 -1.7996
  755TIP3    H223681   4.419   4.329  10.828 -0.6435  0.6276  0.2959
  756TIP3   OH223682   3.888   2.266   9.873  0.1181 -0.1653  0.5261
  756TIP3    H123683   3.928   2.291   9.956 -1.1284 -1.5647  1.5991
  756TIP3    H223684   3.849   2.347   9.840  2.0268  0.7701  0.4582
  757TIP3   OH223685   5.057   4.023  15.443 -0.8606  0.2015  0.8965
  757TIP3    H123686   4.974   4.052  15.406 -1.4921  0.2947  2.3618
  757TIP3    H223687   5.040   3.936  15.477 -0.0365 -0.2565  0.2074
  758TIP3   OH223688   5.924   0.245  15.453  0.5049  0.1678  0.2160
  758TIP3    H123689   5.954   0.265  15.364  1.4767 -1.2505  0.1873
  758TIP3    H223690   5.861   0.174  15.441  1.1979 -0.5382  0.7060
  759TIP3   OH223691   5.908   5.265   3.618 -0.4008  0.4569  0.4621
  759TIP3    H123692   5.911   5.199   3.550 -0.7017 -0.0738  0.9579
  759TIP3    H223693   5.913   5.348   3.571  1.7054  0.0756 -0.0663
  760TIP3   OH223694   4.560   1.099   9.742 -0.0967 -0.4444 -0.2484
  760TIP3    H123695   4.475   1.055   9.744 -0.0094 -0.5949  0.9140
  760TIP3    H223696   4.617   1.040   9.694 -0.0627 -1.4701  1.0017
  761TIP3   OH223697   0.227   4.128  13.759 -0.0080 -0.1239 -0.0114
  761TIP3    H123698   0.291   4.152  13.692  0.5971  2.1003  1.2648
  761TIP3    H223699   0.178   4.056  13.720 -0.1747  1.4925 -3.1277
  762TIP3   OH223700   1.310   0.069  10.743  0.1383 -0.1093 -0.4569
  762TIP3    H123701   1.268   0.015  10.676  0.2033 -0.0754 -0.5251
  762TIP3    H223702   1.278   0.157  10.726 -1.4627 -0.3959  0.8147
  763TIP3   OH223703   0.972   1.920   1.399 -0.4514  0.2261 -0.2960
  763TIP3    H123704   1.052   1.970   1.379  0.7542 -1.0828  1.0403
  763TIP3    H223705   1.002   1.847   1.452 -2.3557 -1.1880 -1.0481
  764TIP3   OH223706   2.887   0.477   0.126  0.3447 -0.2139 -0.0191
  764TIP3    H123707   2.798   0.446   0.143  0.5061 -0.1859  0.9566
  764TIP3    H223708   2.890   0.564   0.166  1.1612 -0.7077  1.0312
  765TIP3   OH223709   1.792   6.380   0.075 -0.2965 -0.1328  0.2419
  765TIP3    H123710   1.742   6.313   0.030 -0.7702 -0.3135  1.0267
  765TIP3    H223711   1.883   6.348   0.072 -0.4927 -0.7186  0.4632
  766TIP3   OH223712   2.601   6.950  10.214  0.0333  0.3722 -0.0871
  766TIP3    H123713   2.613   6.906  10.299 -0.8421  1.5691  0.6909
  766TIP3    H223714   2.595   6.878  10.151  1.7527 -0.5231  0.6903
  767TIP3   OH223715   4.524   2.629  13.988 -0.1080 -0.5592 -0.1897
  767TIP3    H123716   4.533   2.681  13.908 -0.7878 -2.2473 -1.4137
  767TIP3    H223717   4.599   2.569  13.987  0.0601 -0.3818  0.6212
  768TIP3   OH223718   5.448   4.311  10.008 -0.3057  0.0415  0.2266
  768TIP3    H123719   5.420   4.241   9.949 -1.3756  1.4993 -1.0804
  768TIP3    H223720   5.540   4.326   9.986 -0.1329 -0.7749  0.3614
  769TIP3   OH223721   3.495   4.714  10.302  0.5965  0.0458  0.2172
  769TIP3    H123722   3.518   4.803  10.329  0.5795 -0.0629  0.6017
  769TIP3    H223723   3.401   4.706  10.321  0.3941  0.2405 -0.6541
  770TIP3   OH223724   3.897   2.310  13.299 -0.1918  0.3428 -0.0178
  770TIP3    H123725   3.978   2.352  13.327  0.1980 -0.3533 -0.0874
  770TIP3    H223726   3.829   2.376  13.315  0.2634  0.6116  0.8553
  771TIP3   OH223727   3.960   1.739  11.029 -0.4435  0.0588 -0.5020
  771TIP3    H123728   3.950   1.824  11.071 -0.1311  0.7028 -1.6669
  771TIP3    H223729   3.895   1.740  10.958  0.8846  0.1728 -1.7741
  772TIP3   OH223730   1.160   0.875  10.356 -0.3377  0.1063  0.3908
  772TIP3    H123731   1.122   0.814  10.293 -1.8767  1.4840 -0.0731
  772TIP3    H223732   1.104   0.869  10.433  2.0074 -2.1998  2.1154
  773TIP3   OH223733   6.404   0.217  10.317 -1.0651  0.0991 -0.3773
  773TIP3    H123734   6.392   0.158  10.392 -0.6059  0.4803 -0.0038
  773TIP3    H223735   6.338   0.187  10.253 -0.8799 -0.7829 -0.1735
  774TIP3   OH223736   4.426   1.229  12.601  0.3402 -0.0644  0.0929
  774TIP3    H123737   4.369   1.186  12.538  2.6754 -1.1759 -1.3900
  774TIP3    H223738   4.397   1.320  12.602  0.7034  0.2028 -3.2858
  775TIP3   OH223739   3.118   5.384   2.776 -0.3400 -0.4879 -0.4263
  775TIP3    H123740   3.162   5.427   2.849  1.4567 -1.0001 -1.1539
  775TIP3    H223741   3.092   5.299   2.811 -0.3915 -0.3381 -0.0943
  776TIP3   OH223742   5.222   3.088  13.660  0.0571 -0.4363 -0.6154
  776TIP3    H123743   5.274   3.092  13.740  0.8263  0.7875 -1.1633
  776TIP3    H223744   5.221   3.177  13.626  1.8144 -1.3190 -3.2752
  777TIP3   OH223745   0.245   3.919   9.471 -0.1109 -0.0212  0.1895
  777TIP3    H123746   0.290   4.000   9.446 -1.7048  0.7260 -0.4231
  777TIP3    H223747   0.217   3.935   9.561 -0.3269  0.0616  0.1072
  778TIP3   OH223748   6.273   1.452  12.501  0.2712 -1.0264  0.1910
  778TIP3    H123749   6.276   1.465  12.406  1.1586  1.0657  0.4499
  778TIP3    H223750   6.235   1.533  12.534  1.9184 -0.8394  1.7511
  779TIP3   OH223751   0.689   2.259  12.153  0.2958 -0.0502  0.5388
  779TIP3    H123752   0.669   2.178  12.200  1.0849 -0.3201  0.4257
  779TIP3    H223753   0.779   2.279  12.177  0.0620  0.8718  0.6664
  780TIP3   OH223754   4.213   2.138   0.774  0.3675  0.2748 -0.7126
  780TIP3    H123755   4.173   2.208   0.722  2.2053  1.2876 -0.8479
  780TIP3    H223756   4.267   2.089   0.712  0.1962 -0.4073 -0.3378
  781TIP3   OH223757   6.978   1.374  10.963  0.2742  0.2090  0.1939
  781TIP3    H123758   6.906   1.394  10.903  0.4544 -0.9994 -0.4513
  781TIP3    H223759   6.939   1.316  11.028  0.8588 -1.2816 -0.7293
  782TIP3   OH223760   2.964   4.082  10.455  0.8890 -0.3672 -0.3029
  782TIP3    H123761   2.921   4.018  10.512  0.1398 -0.3317 -0.8183
  782TIP3    H223762   3.015   4.029  10.394 -0.9097 -0.5854 -1.6955
  783TIP3   OH223763   1.362   0.632   2.274  0.1541  0.2022  0.4831
  783TIP3    H123764   1.286   0.575   2.256  1.3130 -0.8121 -1.6278
  783TIP3    H223765   1.363   0.693   2.201  2.1911 -0.7724 -0.3761
  784TIP3   OH223766   0.412   1.875  11.457  0.0094  0.6911 -0.0433
  784TIP3    H123767   0.381   1.789  11.429 -1.0152  0.3239  2.0435
  784TIP3    H223768   0.508   1.870  11.447  0.0667 -1.0441  0.9359
  785TIP3   OH223769   2.493   0.938  10.193 -0.1124  0.0478 -0.4596
  785TIP3    H123770   2.519   1.023  10.228  1.3960 -0.7288  0.4324
  785TIP3    H223771   2.442   0.898  10.263  0.6800 -0.4732 -0.1754
  786TIP3   OH223772   0.579   5.366  15.169 -0.1625  0.3080  0.3027
  786TIP3    H123773   0.552   5.362  15.078 -0.2083 -1.1042  0.3539
  786TIP3    H223774   0.617   5.453  15.179 -1.2727  0.9340 -0.7322
  787TIP3   OH223775   5.756   2.525  10.265 -0.2419  0.0149  0.1435
  787TIP3    H123776   5.672   2.554  10.302 -0.2617  0.6082 -0.3619
  787TIP3    H223777   5.741   2.433  10.244 -0.1707 -0.4052  1.7782
  788TIP3   OH223778   3.742   1.649  13.139  0.0806  0.2559  0.7029
  788TIP3    H123779   3.660   1.606  13.117 -0.5884  1.7431  0.1644
  788TIP3    H223780   3.751   1.719  13.074  1.6804  0.2425  0.8623
  789TIP3   OH223781   2.790   3.321  12.862  0.2032  0.4987  0.0850
  789TIP3    H123782   2.836   3.344  12.781  0.7009 -0.4664  0.0854
  789TIP3    H223783   2.845   3.255  12.903 -1.2133 -0.7397  0.0566
  790TIP3   OH223784   4.713   2.779  11.057  0.1380 -1.2959 -0.3625
  790TIP3    H123785   4.619   2.799  11.057  0.4801  0.7361  1.3239
  790TIP3    H223786   4.739   2.785  11.149  2.1639 -0.3819 -0.9229
  791TIP3   OH223787   3.483   0.982  11.742  0.1754  0.0646 -0.1603
  791TIP3    H123788   3.495   1.063  11.792 -0.1589  0.6996 -1.0858
  791TIP3    H223789   3.561   0.975  11.688 -0.7564  0.9959 -1.7328
  792TIP3   OH223790   1.127   5.050  11.886 -0.0797 -0.5132 -0.3217
  792TIP3    H123791   1.162   5.138  11.903  2.3030 -1.4778  0.1696
  792TIP3    H223792   1.199   4.991  11.909 -2.3426 -2.7472  1.6081
  793TIP3   OH223793   5.337   6.361   3.065  0.8902 -0.6421 -0.1795
  793TIP3    H123794   5.284   6.370   2.985  0.6188 -2.0694 -0.1812
  793TIP3    H223795   5.272   6.359   3.136  1.0855 -0.1988  0.0172
  794TIP3   OH223796   2.235   3.833   1.781  0.3576 -0.1084 -0.0698
  794TIP3    H123797   2.194   3.858   1.863  0.5952  1.1972 -0.3253
  794TIP3    H223798   2.250   3.916   1.735 -0.5228 -0.8564 -1.7973
  795TIP3   OH223799   3.171   4.754  11.817 -0.2092 -0.0133 -0.0639
  795TIP3    H123800   3.156   4.849  11.815 -0.8961 -0.1129  0.0917
  795TIP3    H223801   3.230   4.738  11.744  2.7465  0.9950  1.9244
  796TIP3   OH223802   6.006   6.368  12.140  0.6146 -0.7244  0.3118
  796TIP3    H123803   5.956   6.413  12.208  0.2263 -0.2029 -0.3088
  796TIP3    H223804   6.098   6.380  12.165  0.4828 -0.2387  0.5625
  797TIP3   OH223805   1.823   1.544  15.431  0.1312  0.3151  0.1120
  797TIP3    H123806   1.754   1.605  15.405 -0.5169 -1.5284 -3.1866
  797TIP3    H223807   1.779   1.481  15.489 -0.6784 -0.0687 -0.8819
  798TIP3   OH223808   0.328   2.661  12.531  0.1716  0.3207  0.6221
  798TIP3    H123809   0.237   2.638  12.548  0.1293 -0.2243 -0.2963
  798TIP3    H223810   0.331   2.756  12.544 -0.5285  0.3426  0.6578
  799TIP3   OH223811   3.600   6.210  10.082  0.3650  0.2869 -0.0239
  799TIP3    H123812   3.685   6.169  10.072 -1.0312 -2.2662 -2.9257
  799TIP3    H223813   3.561   6.165  10.157  0.7767 -0.0266  0.0069
  800TIP3   OH223814   2.386   6.743  11.222  0.1952 -0.2962  0.1075
  800TIP3    H123815   2.439   6.813  11.260 -1.1469  0.8186  0.0044
  800TIP3    H223816   2.312   6.732  11.283 -1.7641  1.2165 -1.8282
  801TIP3   OH223817   3.174   0.807   0.064 -0.1096 -0.7252 -0.2551
  801TIP3    H123818   3.258   0.830   0.024 -0.0043 -1.7988 -0.6937
  801TIP3    H223819   3.108   0.833  -0.001 -0.0226 -1.1125 -0.5077
  802TIP3   OH223820   5.974   3.554  13.225  0.3106  0.3030 -0.1233
  802TIP3    H123821   5.919   3.586  13.297 -1.5157 -3.1167  0.1986
  802TIP3    H223822   6.024   3.483  13.262  3.6778  2.0278 -0.9722
  803TIP3   OH223823   0.071   4.551  11.551 -0.0939 -0.2114 -0.2143
  803TIP3    H123824   0.111   4.631  11.518  1.4201 -1.2301 -0.9674
  803TIP3    H223825   0.104   4.544  11.641  1.5649 -1.0682 -0.8439
  804TIP3   OH223826   2.161   0.955   9.769 -0.2081 -0.0444  0.2850
  804TIP3    H123827   2.238   1.010   9.784 -0.0211 -0.0761 -0.5251
  804TIP3    H223828   2.087   1.015   9.774  0.1096  0.6792 -2.4657
  805TIP3   OH223829   1.498   5.181   1.920 -0.8771  0.0629 -0.4666
  805TIP3    H123830   1.420   5.151   1.873 -0.4807 -0.5266 -0.7590
  805TIP3    H223831   1.497   5.132   2.002 -0.9275  0.2147 -0.3758
  806TIP3   OH223832   2.579   5.925  12.790  1.0478 -0.2024 -0.2821
  806TIP3    H123833   2.651   5.932  12.727  0.5850  0.5289 -0.7516
  806TIP3    H223834   2.546   6.014  12.798  0.5732 -0.4316  0.3835
  807TIP3   OH223835   3.601   0.707   0.772 -0.6771 -0.2836  0.4274
  807TIP3    H123836   3.689   0.697   0.810  0.0901  1.4453 -0.7691
  807TIP3    H223837   3.557   0.769   0.829 -1.8306 -2.4488  2.0458
  808TIP3   OH223838   4.464   6.770   2.636  0.2891  0.3025 -0.4689
  808TIP3    H123839   4.484   6.831   2.707 -1.7599  1.1088 -0.5125
  808TIP3    H223840   4.515   6.802   2.561  1.0303  0.5582  0.1423
  809TIP3   OH223841   3.773   1.252   0.506 -0.4783  0.8773  0.2127
  809TIP3    H123842   3.751   1.172   0.554 -0.4698  0.1992 -0.8675
  809TIP3    H223843   3.790   1.317   0.574 -2.3627  0.4909  1.1264
  810TIP3   OH223844   0.767   1.513  12.190  0.0187 -0.1102  0.3935
  810TIP3    H123845   0.833   1.445  12.200 -0.2463 -0.5810 -0.8154
  810TIP3    H223846   0.806   1.575  12.129 -0.3188  0.0513  0.3362
  811TIP3   OH223847   5.007   2.859   9.850  0.1148 -0.7569  0.2509
  811TIP3    H123848   4.987   2.931   9.791 -2.9073 -1.1054  0.6606
  811TIP3    H223849   5.099   2.870   9.872  0.0854  2.2043 -0.7114
  812TIP3   OH223850   3.605   4.015  12.438  0.0434 -0.2697 -0.4702
  812TIP3    H123851   3.687   4.063  12.447 -0.7200  0.7715  1.4198
  812TIP3    H223852   3.553   4.041  12.514 -1.5140 -1.9541 -0.8840
  813TIP3   OH223853   0.720   5.235  14.712 -0.0791  0.0246  0.8959
  813TIP3    H123854   0.809   5.238  14.747  0.1595  0.3530  0.2784
  813TIP3    H223855   0.731   5.206  14.621 -0.6120 -0.0245  0.8459
  814TIP3   OH223856   1.994   5.351  15.136 -0.7153 -0.7992 -0.4865
  814TIP3    H123857   1.955   5.293  15.201  0.8735 -2.1233 -0.6530
  814TIP3    H223858   2.003   5.435  15.181 -0.1579 -1.5376  0.8388
  815TIP3   OH223859   6.128   4.971   0.607  0.1157  0.6056 -0.1547
  815TIP3    H123860   6.222   4.953   0.610 -0.3070 -1.9197 -0.2847
  815TIP3    H223861   6.087   4.886   0.595 -2.2123  1.6633 -0.3218
  816TIP3   OH223862   0.182   0.111  12.277 -0.0387 -0.4984  0.0672
  816TIP3    H123863   0.136   0.099  12.194 -0.0118  1.2429 -0.2213
  816TIP3    H223864   0.268   0.144  12.252  0.0089 -0.0742  0.7729
  817TIP3   OH223865   6.595   6.743  11.582  0.2770 -0.0080 -0.2268
  817TIP3    H123866   6.525   6.739  11.518 -0.2233 -0.1130  0.3143
  817TIP3    H223867   6.624   6.834  11.580 -1.9835  0.8746  1.7053
  818TIP3   OH223868   4.272   1.453  12.324  0.2810 -0.3600  0.0193
  818TIP3    H123869   4.242   1.502  12.247 -1.7011 -0.8163  0.4522
  818TIP3    H223870   4.335   1.389  12.288  1.0981  0.8930 -0.8657
  819TIP3   OH223871   0.944   5.917  10.550  0.3618 -0.1330  0.6033
  819TIP3    H123872   1.029   5.897  10.589  1.1976  1.2115 -0.4249
  819TIP3    H223873   0.949   6.010  10.528 -1.3039 -0.0760  0.3174
  820TIP3   OH223874   6.227   0.801   0.956 -0.1069  0.1087  0.2546
  820TIP3    H123875   6.257   0.888   0.930  0.2510 -0.4821 -1.4293
  820TIP3    H223876   6.163   0.817   1.025  0.7375  1.6432  0.7266
  821TIP3   OH223877   6.638   4.936  14.137  0.0273 -0.2075 -0.3709
  821TIP3    H123878   6.666   4.950  14.228  0.3245 -2.7325  0.0177
  821TIP3    H223879   6.545   4.915  14.144  0.2000 -1.0909 -0.5173
  822TIP3   OH223880   6.624   4.807   3.292  0.1477 -0.0973  0.0685
  822TIP3    H123881   6.619   4.712   3.276  0.9078 -0.0704 -0.3904
  822TIP3    H223882   6.596   4.846   3.209 -0.7745  0.0948  0.4590
  823TIP3   OH223883   6.759   0.679  12.593  0.2419  0.0936  0.0605
  823TIP3    H123884   6.832   0.643  12.645 -0.7586  1.0540  2.2440
  823TIP3    H223885   6.798   0.751  12.543  0.8023  0.6297  1.2424
  824TIP3   OH223886   6.197   5.249  10.979 -0.0409  0.6016 -0.1389
  824TIP3    H123887   6.265   5.303  10.939  0.7645 -0.5564 -0.3708
  824TIP3    H223888   6.132   5.237  10.910 -0.1873  1.1949 -0.1092
  825TIP3   OH223889   5.401   2.557  11.419 -0.8154  0.2314 -0.2794
  825TIP3    H123890   5.475   2.617  11.421  0.3450 -1.1415  1.5196
  825TIP3    H223891   5.324   2.613  11.430 -0.0212  1.5997 -1.3885
  826TIP3   OH223892   2.338   6.615  12.775  0.0923  0.5022  0.4491
  826TIP3    H123893   2.335   6.705  12.807  0.1009  0.0391  1.8297
  826TIP3    H223894   2.431   6.591  12.776 -0.0505 -0.1107  1.9093
  827TIP3   OH223895   2.874   3.989  12.075  0.1552  0.1622 -0.4777
  827TIP3    H123896   2.792   3.941  12.083  0.0290  0.6591  1.7009
  827TIP3    H223897   2.850   4.081  12.081  0.6167  0.5028 -2.7065
  828TIP3   OH223898   4.793   5.446  11.720  0.3112  0.2214  0.2305
  828TIP3    H123899   4.704   5.414  11.708 -0.2790  1.5392  0.8766
  828TIP3    H223900   4.788   5.539  11.695  1.0270  0.8180  2.1618
  829TIP3   OH223901   0.456   1.781   9.539 -0.1600 -0.1698  1.0839
  829TIP3    H123902   0.395   1.746   9.474  3.2653  0.0138 -2.6236
  829TIP3    H223903   0.422   1.867   9.561 -1.4489 -0.2334 -0.5250
  830TIP3   OH223904   2.132   4.574  11.247 -0.2841  0.3323 -0.3298
  830TIP3    H123905   2.179   4.637  11.301 -1.1056  1.3956 -0.8103
  830TIP3    H223906   2.196   4.506  11.228  0.1164  0.0779  1.7037
  831TIP3   OH223907   5.431   2.489  10.158 -0.2127  0.1372 -0.0999
  831TIP3    H123908   5.503   2.488  10.095 -0.1425  1.2244 -0.0482
  831TIP3    H223909   5.370   2.555  10.125 -0.6481  0.0176  0.4515
  832TIP3   OH223910   1.179   2.419  11.540 -0.4218 -0.0959 -0.0248
  832TIP3    H123911   1.160   2.513  11.534  0.7368  0.1648  0.1708
  832TIP3    H223912   1.261   2.408  11.492 -0.3915 -0.9605  0.2151
  833TIP3   OH223913   3.335   0.704  12.173 -0.1478 -0.0743  0.0223
  833TIP3    H123914   3.417   0.685  12.219  0.7579  1.6903 -0.7954
  833TIP3    H223915   3.271   0.718  12.243  0.5183 -0.2583  0.6821
  834TIP3   OH223916   3.153   6.231  12.627  0.4334 -0.0608  1.0621
  834TIP3    H123917   3.096   6.160  12.598 -1.1977  1.8209 -0.6506
  834TIP3    H223918   3.106   6.270  12.701  0.4014  0.3812  0.8074
  835TIP3   OH223919   2.736   3.423  13.149 -0.4196 -0.6807  0.0967
  835TIP3    H123920   2.791   3.499  13.132 -0.2212 -0.4426  1.6015
  835TIP3    H223921   2.735   3.374  13.067  1.0866 -0.0873 -0.2997
  836TIP3   OH223922   4.926   2.446   9.577 -0.4865  0.3330 -0.0836
  836TIP3    H123923   4.959   2.379   9.517  2.4114  0.4005  1.2436
  836TIP3    H223924   4.975   2.525   9.553 -0.6586  0.8330  1.1569
  837TIP3   OH223925   4.216   0.257  11.967 -0.2735 -0.1517 -0.1949
  837TIP3    H123926   4.177   0.227  11.885  1.0028 -0.1202 -0.8291
  837TIP3    H223927   4.195   0.189  12.031  1.5697 -1.8683 -1.3318
  838TIP3   OH223928   0.647   5.876   1.999  0.4829  0.4374  0.5757
  838TIP3    H123929   0.627   5.947   2.060 -0.6408  0.4901  0.1783
  838TIP3    H223930   0.646   5.918   1.913 -3.4150 -0.5013 -0.0371
  839TIP3   OH223931   0.586   4.438  12.769 -0.0649 -0.7895 -0.2892
  839TIP3    H123932   0.498   4.429  12.806 -0.4083 -0.6359 -1.0561
  839TIP3    H223933   0.577   4.503  12.699  0.6536 -0.7939 -0.3970
  840TIP3   OH223934   3.706   0.900  11.005 -0.1526 -0.1283 -0.1179
  840TIP3    H123935   3.638   0.938  10.949  0.0729  1.5852  0.7019
  840TIP3    H223936   3.686   0.806  11.007 -1.5402  0.1134 -1.1624
  841TIP3   OH223937   6.214   0.759  11.278  0.0441 -0.4374  0.5440
  841TIP3    H123938   6.253   0.821  11.339 -0.6323  0.1335  0.4017
  841TIP3    H223939   6.287   0.733  11.221 -0.0104  1.6215 -0.5490
  842TIP3   OH223940   1.354   2.732  14.447 -0.2572  0.2704 -0.1145
  842TIP3    H123941   1.266   2.762  14.471 -0.6125 -0.8030 -0.0199
  842TIP3    H223942   1.397   2.809  14.410 -1.9983  0.2906 -2.3013
  843TIP3   OH223943   1.689   2.576  12.746 -0.1426  0.0650 -0.0910
  843TIP3    H123944   1.743   2.516  12.797  2.2124  0.6846 -1.7042
  843TIP3    H223945   1.709   2.663  12.782  1.0384  0.4352 -1.5613
  844TIP3   OH223946   0.302   6.885  13.762  0.4843 -0.2722 -0.1608
  844TIP3    H123947   0.242   6.910  13.692  1.5347  0.5914 -0.7880
  844TIP3    H223948   0.318   6.967  13.810 -0.1286 -0.8320  1.0197
  845TIP3   OH223949   1.892   4.885  13.638 -0.1274  0.5161 -0.3082
  845TIP3    H123950   1.845   4.875  13.555  0.2756  0.3971 -0.5233
  845TIP3    H223951   1.823   4.888  13.705 -0.5866  2.6307 -0.8100
  846TIP3   OH223952   3.959   1.940  14.992  0.8230  0.1693 -0.3377
  846TIP3    H123953   4.051   1.969  14.989  0.5583  1.0014 -0.7643
  846TIP3    H223954   3.937   1.922  14.901  1.3660 -2.7600 -0.0066
  847TIP3   OH223955   3.427   5.098  12.732  0.0162  0.0811  0.3057
  847TIP3    H123956   3.504   5.144  12.697  0.6673 -0.4623  0.9947
  847TIP3    H223957   3.402   5.150  12.809 -1.4731  1.3314 -0.9453
  848TIP3   OH223958   1.830   4.105  13.773 -0.1462 -0.8148 -0.1920
  848TIP3    H123959   1.767   4.078  13.706 -0.8091 -0.9618  0.4701
  848TIP3    H223960   1.877   4.178  13.734 -0.2508 -1.1483 -0.9639
  849TIP3   OH223961   1.240   2.587   2.896  0.6629  0.0908 -0.3095
  849TIP3    H123962   1.325   2.591   2.853  1.2912  0.0584  0.9030
  849TIP3    H223963   1.189   2.656   2.853  0.9082 -0.6068 -1.8062
  850TIP3   OH223964   0.300   6.407  10.565 -0.4292  0.8621 -0.2392
  850TIP3    H123965   0.275   6.342  10.499  0.0543  0.7122 -0.2767
  850TIP3    H223966   0.376   6.368  10.609 -1.0020  0.7685  0.6951
  851TIP3   OH223967   1.767   2.293  11.093 -0.0589  0.3649 -0.8247
  851TIP3    H123968   1.711   2.266  11.166  1.0303 -0.7603 -0.3860
  851TIP3    H223969   1.854   2.303  11.131  0.1546  1.7325 -1.5858
  852TIP3   OH223970   6.423   4.418  11.223 -0.6363  0.0650 -0.4561
  852TIP3    H123971   6.370   4.488  11.187  0.3977  1.6866  1.0011
  852TIP3    H223972   6.446   4.364  11.147 -0.4787  1.9820 -1.8573
  853TIP3   OH223973   4.612   0.458  14.936 -0.4909 -0.0040 -0.2320
  853TIP3    H123974   4.700   0.463  14.898 -0.3388  2.3754  0.2510
  853TIP3    H223975   4.617   0.513  15.014 -1.8288 -1.6831  1.1042
  854TIP3   OH223976   5.035   5.847  11.617  0.1030  0.1802  0.2399
  854TIP3    H123977   4.982   5.795  11.678 -0.6187  0.1490 -0.3915
  854TIP3    H223978   5.092   5.784  11.575 -1.0087 -0.1790 -0.7708
  855TIP3   OH223979   2.803   5.994  12.200  0.1008  0.3200  0.1272
  855TIP3    H123980   2.790   6.070  12.142 -0.9302  0.4825  0.5334
  855TIP3    H223981   2.895   5.998  12.225  0.0670  1.4516  0.1354
  856TIP3   OH223982   3.929   1.458  13.241  0.1351  0.5407  0.1400
  856TIP3    H123983   3.863   1.526  13.245  0.0797  0.5680 -0.8805
  856TIP3    H223984   4.009   1.500  13.273  0.2673  1.3211 -1.1245
  857TIP3   OH223985   0.546   2.224   0.948  0.8274 -0.2592  0.3676
  857TIP3    H123986   0.560   2.197   1.039 -0.6429 -1.3654  0.3051
  857TIP3    H223987   0.591   2.157   0.896 -1.2893 -1.6978  0.2543
  858TIP3   OH223988   5.876   4.443  12.478 -0.3188  0.4759  0.2333
  858TIP3    H123989   5.914   4.441  12.391 -1.4094  1.0884 -0.2807
  858TIP3    H223990   5.906   4.363  12.520  2.6442  1.5556  0.3761
  859TIP3   OH223991   6.349   2.080  13.285 -0.9724  0.3891  0.1151
  859TIP3    H123992   6.429   2.080  13.337  0.3138  2.0155 -1.7055
  859TIP3    H223993   6.323   2.172  13.281 -0.7595  0.4143 -2.3992
  860TIP3   OH223994   6.412   2.016  11.509  0.0680 -0.1261 -0.2315
  860TIP3    H123995   6.387   1.960  11.435  0.5273 -2.4741  1.2860
  860TIP3    H223996   6.390   1.964  11.587  2.2106  1.0546  1.2580
  861TIP3   OH223997   4.461   6.859  10.533  0.1260  0.1328 -0.9433
  861TIP3    H123998   4.431   6.824  10.617  0.9843 -1.0547 -1.1005
  861TIP3    H223999   4.388   6.842  10.472 -0.3764  0.7210 -0.5126
  862TIP3   OH224000   2.432   6.926  13.684 -0.6447 -0.3008  0.2002
  862TIP3    H124001   2.382   6.966  13.755 -0.6346 -1.2641  0.7658
  862TIP3    H224002   2.392   6.840  13.671  1.2810 -1.3891  1.1545
  863TIP3   OH224003   2.372   4.448  14.612 -0.1037 -0.1078  0.3942
  863TIP3    H124004   2.371   4.363  14.569  1.7573  0.1315 -0.2147
  863TIP3    H224005   2.346   4.510  14.543  2.0978  0.1859 -0.2296
  864TIP3   OH224006   4.532   0.508  11.699 -1.1823  0.1827 -0.5855
  864TIP3    H124007   4.444   0.481  11.671 -0.4223 -2.6961 -0.4816
  864TIP3    H224008   4.551   0.454  11.775  0.4428  1.2661 -0.1704
  865TIP3   OH224009   0.668   3.106   1.740  0.3021 -0.2249 -0.1295
  865TIP3    H124010   0.726   3.054   1.685  0.1947  1.1148 -1.5534
  865TIP3    H224011   0.581   3.070   1.723  0.4441 -0.8308  0.3804
  866TIP3   OH224012   1.853   0.974  12.790  0.2334  0.3195 -0.8859
  866TIP3    H124013   1.941   0.947  12.764 -0.1874 -0.8574 -1.1738
  866TIP3    H224014   1.856   0.977  12.886  1.1648  2.4553 -0.9230
  867TIP3   OH224015   6.828   3.890  11.521  0.4296 -0.4051 -0.7511
  867TIP3    H124016   6.824   3.986  11.518  0.6187 -0.4038 -1.0437
  867TIP3    H224017   6.756   3.865  11.578  1.8450  0.0213  1.3271
  868TIP3   OH224018   6.403   5.323  13.249 -0.2837  0.4010  0.4778
  868TIP3    H124019   6.391   5.394  13.313  1.3444  0.7077  0.4937
  868TIP3    H224020   6.338   5.340  13.181  0.6131  2.4166  0.0658
  869TIP3   OH224021   3.454   7.015  15.178  0.0739  0.3215 -0.0732
  869TIP3    H124022   3.523   7.073  15.145  1.1463 -0.6502  0.3854
  869TIP3    H224023   3.457   6.938  15.120 -0.9606  0.4629 -0.3406
  870TIP3   OH224024   5.143   4.931  11.663  0.2831  0.4131 -0.2420
  870TIP3    H124025   5.168   5.021  11.639 -2.0128  0.9424 -0.9869
  870TIP3    H224026   5.066   4.914  11.609 -1.2348 -0.8228  2.1670
  871TIP3   OH224027   6.446   4.011  10.191  0.1901 -0.3467  0.1678
  871TIP3    H124028   6.502   3.968  10.126 -0.6909 -0.2390 -0.6782
  871TIP3    H224029   6.508   4.058  10.247  0.9050  1.1554 -1.7637
  872TIP3   OH224030   5.031   3.494   9.562  0.4272 -0.1169 -0.0426
  872TIP3    H124031   5.032   3.471   9.655  0.7332 -0.4527 -0.1299
  872TIP3    H224032   5.077   3.578   9.558 -0.1588  0.2237  0.1917
  873TIP3   OH224033   3.520   1.752  10.666 -0.2594  0.0959  0.3079
  873TIP3    H124034   3.466   1.673  10.668 -0.8310  0.4876  0.7131
  873TIP3    H224035   3.463   1.819  10.629  0.5418  0.1029 -0.9801
  874TIP3   OH224036   5.067   3.328  12.372 -0.2835 -0.1283  0.0536
  874TIP3    H124037   5.128   3.297  12.438 -1.2605  2.6690  2.5358
  874TIP3    H224038   5.121   3.346  12.295  1.7165  0.3765  1.4897
  875TIP3   OH224039   5.938   5.754  10.587 -0.4996  0.1525  0.0799
  875TIP3    H124040   5.853   5.711  10.585  0.3043 -1.6544  1.4882
  875TIP3    H224041   5.945   5.789  10.676  0.1765  0.4048 -0.0622
  876TIP3   OH224042   0.611   0.928  12.936  0.4985 -0.0780 -0.1428
  876TIP3    H124043   0.519   0.952  12.950  0.9511  1.0192  1.1248
  876TIP3    H224044   0.640   0.983  12.864 -0.1885 -1.4269 -1.5048
  877TIP3   OH224045   2.084   4.590   1.376  0.3139 -0.1122  0.1113
  877TIP3    H124046   2.174   4.558   1.366  0.8787  1.2763  0.5398
  877TIP3    H224047   2.071   4.598   1.470  0.3961  1.4190  0.0129
  878TIP3   OH224048   0.681   2.142  11.353 -0.3032  0.1003 -0.2936
  878TIP3    H124049   0.677   2.129  11.447 -1.6007 -1.8888 -0.5603
  878TIP3    H224050   0.600   2.188  11.331  0.2048  0.9652 -0.4099
  879TIP3   OH224051   6.017   6.710  12.311  0.5471  0.5371  0.2740
  879TIP3    H124052   5.952   6.643  12.333  1.5963  0.0479  2.1432
  879TIP3    H224053   5.967   6.790  12.298 -0.3697  0.5980  3.4873
  880TIP3   OH224054   4.950   3.220  14.027 -0.0636 -0.7271  0.5252
  880TIP3    H124055   4.965   3.315  14.032  2.2088 -0.6746 -2.9854
  880TIP3    H224056   4.905   3.208  13.944  2.6081 -2.8001 -0.7973
  881TIP3   OH224057   6.866   6.200  10.961  0.3062 -0.7986  0.1052
  881TIP3    H124058   6.773   6.215  10.979  0.5059 -0.3530  0.8147
  881TIP3    H224059   6.886   6.259  10.889 -0.3412 -2.1038 -1.2011
  882TIP3   OH224060   2.648   5.468  13.339  0.5264  0.3935  0.0067
  882TIP3    H124061   2.661   5.373  13.335  1.5309  0.4692  1.0650
  882TIP3    H224062   2.557   5.480  13.311 -0.4784 -1.1254  2.3365
  883TIP3   OH224063   4.290   2.542  14.111  0.6948  0.3133  0.4438
  883TIP3    H124064   4.352   2.613  14.095 -0.1982  1.1595  0.6566
  883TIP3    H224065   4.208   2.571  14.071  0.9106 -1.6900 -1.6935
  884TIP3   OH224066   0.701   3.927  13.547  0.4129 -0.0640  0.3878
  884TIP3    H124067   0.686   4.014  13.511  2.1272 -0.3710 -1.2538
  884TIP3    H224068   0.796   3.920  13.553  0.3614 -2.1313 -0.3690
  885TIP3   OH224069   0.927   2.248  11.181 -0.5000  0.2375 -0.0982
  885TIP3    H124070   0.861   2.195  11.226 -1.7454  1.5365 -0.3066
  885TIP3    H224071   0.888   2.336  11.176  1.6819  1.3175  0.6632
  886TIP3   OH224072   5.150   3.461  15.480  0.4325 -0.2976 -0.8208
  886TIP3    H124073   5.190   3.497  15.559  1.4141 -0.0316 -1.4274
  886TIP3    H224074   5.085   3.399  15.513  1.3655 -0.7734  0.2028
  887TIP3   OH224075   5.035   5.664  11.082 -0.4860 -0.0729  0.2119
  887TIP3    H124076   5.077   5.596  11.030 -1.0396  0.3662 -0.8445
  887TIP3    H224077   4.941   5.645  11.075 -0.5494 -0.5983  1.9032
  888TIP3   OH224078   3.533   4.638  12.195 -0.0306 -0.1700 -0.3223
  888TIP3    H124079   3.487   4.684  12.124  1.4540  0.6131 -0.8273
  888TIP3    H224080   3.498   4.677  12.275 -1.8923 -1.2222 -0.5798
  889TIP3   OH224081   4.716   1.069  11.160  0.1570  0.0826 -0.2344
  889TIP3    H124082   4.707   0.975  11.144  0.5407 -0.1232  0.7087
  889TIP3    H224083   4.809   1.087  11.146  0.8885 -0.4183  3.0483
  890TIP3   OH224084   6.722   2.844  10.113  0.2833 -0.1260 -0.2122
  890TIP3    H124085   6.713   2.766  10.058  0.2530  0.5586 -1.2022
  890TIP3    H224086   6.816   2.856  10.123  0.2879 -0.2988 -0.0485
  891TIP3   OH224087   0.981   1.837  11.269  0.1164  0.1184  0.2244
  891TIP3    H124088   0.999   1.851  11.362 -0.2452  1.1876  0.1463
  891TIP3    H224089   0.904   1.780  11.268  0.5547 -0.4963  0.5650
  892TIP3   OH224090   7.054   1.764  11.707  0.3182  0.2933 -0.2124
  892TIP3    H124091   7.118   1.750  11.637  0.3182  0.8541 -0.3241
  892TIP3    H224092   6.998   1.834  11.675 -0.5135 -0.3529 -0.2161
  893TIP3   OH224093   0.648   2.792   9.752  0.7790 -0.3160  0.6306
  893TIP3    H124094   0.558   2.763   9.771  1.4938 -2.0001  1.7183
  893TIP3    H224095   0.640   2.846   9.674 -0.9214 -2.3124 -0.7039
  894TIP3   OH224096   4.052   0.202   2.530 -0.0211  0.2543  0.1338
  894TIP3    H124097   4.036   0.212   2.624 -0.3356  1.0481 -0.0033
  894TIP3    H224098   4.041   0.290   2.493  0.8302  0.1007 -0.5408
  895TIP3   OH224099   4.597   6.813  10.306  0.0562  0.3326 -0.5886
  895TIP3    H124100   4.564   6.814  10.396  1.4491  3.1721  0.0250
  895TIP3    H224101   4.535   6.866  10.257  0.2563  0.2705 -0.9114
  896TIP3   OH224102   3.334   0.341  11.787 -0.2362 -0.2525  0.5768
  896TIP3    H124103   3.252   0.390  11.788 -0.6341 -0.9050  1.7212
  896TIP3    H224104   3.401   0.406  11.809 -0.0947  0.7630 -2.3626
  897TIP3   OH224105   1.596   1.949  13.532  0.7047 -0.3669  0.2784
  897TIP3    H124106   1.549   1.982  13.608 -0.7841  1.1273 -1.1839
  897TIP3    H224107   1.647   1.876  13.565 -2.7827 -2.2847  2.0103
  898TIP3   OH224108   4.550   6.639   9.949  0.2723 -0.2457 -0.1698
  898TIP3    H124109   4.572   6.646  10.042  1.8994 -1.1327 -0.4532
  898TIP3    H224110   4.610   6.574   9.914  0.5947  0.9860 -2.1162
  899TIP3   OH224111   5.871   2.875  12.124 -0.2232 -0.5740  0.2599
  899TIP3    H124112   5.805   2.938  12.150 -1.4443 -1.3957 -0.7284
  899TIP3    H224113   5.931   2.924  12.068 -0.6851 -0.0950  0.1820
  900TIP3   OH224114   2.692   6.917  11.122  0.3200 -0.0421  0.0090
  900TIP3    H124115   2.606   6.958  11.121  0.4369  0.3665  2.2350
  900TIP3    H224116   2.734   6.949  11.042 -1.0529  0.9370 -0.3596
  901TIP3   OH224117   0.663   3.508  13.073 -0.0664 -0.0290  0.3262
  901TIP3    H124118   0.675   3.517  13.168 -1.1540  0.3976  0.4348
  901TIP3    H224119   0.568   3.511  13.061  0.0342 -0.7549 -0.7139
  902TIP3   OH224120   4.508   0.391  13.060  0.3055 -0.0707  0.1676
  902TIP3    H124121   4.429   0.393  13.115 -0.7749  0.5606 -1.3547
  902TIP3    H224122   4.506   0.474  13.013  0.6576 -1.0163 -1.5800
  903TIP3   OH224123   5.317   6.220   9.408  0.4093  0.5094 -0.0712
  903TIP3    H124124   5.262   6.159   9.456  0.1533  0.6846 -0.1432
  903TIP3    H224125   5.272   6.304   9.414 -2.0303 -0.1828 -4.2749
  904TIP3   OH224126   1.706   1.345  11.627 -0.1550 -0.0333  0.2063
  904TIP3    H124127   1.645   1.285  11.585  2.2556 -2.5919  0.0502
  904TIP3    H224128   1.771   1.365  11.559  1.6072 -1.0351  1.5001
  905TIP3   OH224129   4.326   5.441  11.723  0.3090  0.1007  0.4348
  905TIP3    H124130   4.251   5.500  11.716  0.9904  1.1460  1.4638
  905TIP3    H224131   4.363   5.439  11.635 -0.0204  0.8252  0.2693
  906TIP3   OH224132   5.681   6.980  15.095  0.2796  0.3282  0.2852
  906TIP3    H124133   5.708   7.000  15.005  1.3298  0.1040  0.5316
  906TIP3    H224134   5.705   7.058  15.145 -0.2212  0.4190  0.3884
  907TIP3   OH224135   4.577   3.419   1.403  0.6678 -0.2242  0.2068
  907TIP3    H124136   4.485   3.439   1.419  0.5366 -0.9225  0.3973
  907TIP3    H224137   4.623   3.501   1.419 -0.0508  0.4698 -1.1554
  908TIP3   OH224138   5.992   5.339  12.897  0.4609 -0.1613 -0.1971
  908TIP3    H124139   5.929   5.270  12.879 -1.4335  1.2844  0.5696
  908TIP3    H224140   6.013   5.375  12.810  0.1740 -0.5944 -0.4500
  909TIP3   OH224141   4.773   5.192  13.777  0.1710  0.1265  0.6354
  909TIP3    H124142   4.732   5.277  13.793 -0.6782 -0.2510  0.4994
  909TIP3    H224143   4.727   5.158  13.700  1.1202 -0.0643  0.1439
  910TIP3   OH224144   6.322   2.625  13.650  0.0496  0.8742  0.5561
  910TIP3    H124145   6.343   2.668  13.733 -1.0006  0.3120  1.1319
  910TIP3    H224146   6.293   2.696  13.593 -1.2378  1.0223  1.3600
  911TIP3   OH224147   7.104   1.747   4.458  0.5794  0.0486 -0.0113
  911TIP3    H124148   7.079   1.705   4.540  1.9015 -0.4747  0.1502
  911TIP3    H224149   7.152   1.826   4.484  1.2972 -0.2921 -0.2464
  912TIP3   OH224150   5.798   1.010  11.660 -0.1943 -0.2603 -0.0038
  912TIP3    H124151   5.816   0.957  11.738  0.4248  0.8339  0.6085
  912TIP3    H224152   5.878   1.005  11.608 -0.2650 -0.2003 -0.1200
  913TIP3   OH224153   0.828   1.747  12.002 -0.1345 -0.0478  0.4531
  913TIP3    H124154   0.874   1.807  12.060  1.0556 -1.1870  0.7567
  913TIP3    H224155   0.888   1.732  11.929 -0.2711 -1.0601  0.5215
  914TIP3   OH224156   4.283   4.158  12.600 -0.1796  0.2611  0.4694
  914TIP3    H124157   4.256   4.107  12.677  0.1711  0.7856  0.9489
  914TIP3    H224158   4.246   4.111  12.526  0.2697 -0.7951  0.8901
  915TIP3   OH224159   5.809   0.886  14.369  0.3122 -0.8909 -0.6554
  915TIP3    H124160   5.886   0.859  14.320 -0.2757  0.5790 -2.5200
  915TIP3    H224161   5.789   0.974  14.336 -0.5566 -0.0812  1.7554
  916TIP3   OH224162   6.872   0.980   2.035  0.8280 -0.2395 -0.0979
  916TIP3    H124163   6.855   1.023   2.119  0.0472  0.7819 -0.7649
  916TIP3    H224164   6.845   1.043   1.969 -0.7834 -1.8607 -1.1121
  917TIP3   OH224165   2.268   5.340  11.705  0.2802  0.5492  0.1625
  917TIP3    H124166   2.315   5.398  11.765 -0.2065  0.0662  1.0389
  917TIP3    H224167   2.176   5.364  11.716  0.0139 -0.7328  0.9631
  918TIP3   OH224168   5.487   2.146  10.291 -0.4777  0.1853 -0.5102
  918TIP3    H124169   5.561   2.169  10.234  2.6110 -3.8938  1.3376
  918TIP3    H224170   5.466   2.227  10.337  1.6330  1.9402 -2.3750
  919TIP3   OH224171   0.441   0.188   4.823 -0.0367  0.2139 -0.0740
  919TIP3    H124172   0.429   0.263   4.881  1.1703 -0.0921  0.6153
  919TIP3    H224173   0.357   0.142   4.826 -0.7531  1.4530 -0.4182
  920TIP3   OH224174   7.024   4.496  13.250  0.7380 -0.0005  0.0180
  920TIP3    H124175   6.965   4.467  13.319  1.3667 -1.7073 -0.1134
  920TIP3    H224176   7.059   4.415  13.213  2.2726  0.9377 -0.6753
  921TIP3   OH224177   7.032   6.681  11.491  0.5297 -0.3292  0.2329
  921TIP3    H124178   7.083   6.750  11.450 -0.0534  0.0454  0.1199
  921TIP3    H224179   7.087   6.649  11.562  1.1042 -0.2480 -0.1722
  922TIP3   OH224180   3.729   6.973  11.758 -0.5052 -0.0263  0.1004
  922TIP3    H124181   3.683   7.019  11.829 -1.2166  0.6782 -0.7869
  922TIP3    H224182   3.774   7.042  11.710 -0.4130 -0.4337 -0.4101
  923TIP3   OH224183   5.683   1.196  10.063 -0.1817  0.5046 -0.0940
  923TIP3    H124184   5.726   1.116  10.034 -0.5446 -0.1289  1.0532
  923TIP3    H224185   5.734   1.226  10.138 -0.0946  1.3128 -0.4634
  924TIP3   OH224186   2.769   6.225  10.414 -0.0751 -0.5414  0.3488
  924TIP3    H124187   2.846   6.279  10.433  0.2027 -1.2728  1.3486
  924TIP3    H224188   2.761   6.228  10.318  0.1467  0.9549  0.3457
  925TIP3   OH224189   3.384   6.696  14.769  0.1662  0.4838  0.3499
  925TIP3    H124190   3.339   6.777  14.792  0.3265  1.3530 -2.0803
  925TIP3    H224191   3.350   6.673  14.682  0.9230 -1.4747  0.5179
  926TIP3   OH224192   3.448   0.039   1.312  0.3091 -0.6015 -0.0462
  926TIP3    H124193   3.529   0.001   1.348 -0.4243 -1.6180  0.5823
  926TIP3    H224194   3.444   0.126   1.351  2.6440  0.7288 -2.4389
  927TIP3   OH224195   4.746   4.088  10.858  0.5278  0.6757  0.1309
  927TIP3    H124196   4.821   4.106  10.802  0.5153 -3.0180 -1.3600
  927TIP3    H224197   4.670   4.095  10.800  0.3578 -1.4795  0.0157
  928TIP3   OH224198   6.875   5.992  10.335  0.2232 -0.0839 -0.7999
  928TIP3    H124199   6.837   5.910  10.304  0.0791 -1.0139  1.6318
  928TIP3    H224200   6.968   5.971  10.348 -0.3421 -1.0533  3.0056
  929TIP3   OH224201   1.817   5.533  10.762  0.0866  0.1350  0.6152
  929TIP3    H124202   1.821   5.438  10.758  0.9005  0.1963 -0.2988
  929TIP3    H224203   1.908   5.562  10.755 -0.2588  1.0184 -0.4770
  930TIP3   OH224204   1.107   4.237  12.701 -0.5051 -0.2162 -1.0168
  930TIP3    H124205   1.202   4.243  12.711 -0.5676  0.4533 -0.7501
  930TIP3    H224206   1.075   4.322  12.731 -1.1990 -0.4847 -0.9846
  931TIP3   OH224207   2.368   6.705  15.236  0.1396 -0.3346 -0.2417
  931TIP3    H124208   2.356   6.766  15.164  0.6406  1.0473  0.8059
  931TIP3    H224209   2.451   6.731  15.276 -0.6418 -0.3646  1.4912
  932TIP3   OH224210   3.892   6.043   9.747  0.2117 -0.1891  0.2449
  932TIP3    H124211   3.930   5.967   9.703  0.6636  0.5849 -0.7517
  932TIP3    H224212   3.799   6.021   9.758  0.5059 -1.2245  0.7687
  933TIP3   OH224213   0.852   3.371  12.085 -0.3779  0.1316 -0.7126
  933TIP3    H124214   0.798   3.292  12.077 -1.0612  0.2317  1.9324
  933TIP3    H224215   0.822   3.427  12.014 -1.8890 -0.9004 -0.9522
  934TIP3   OH224216   0.616   0.094   1.032  0.3148 -0.8651  0.7465
  934TIP3    H124217   0.594   0.023   1.092  1.8071 -0.9141  1.2860
  934TIP3    H224218   0.616   0.173   1.086  0.3712 -0.7079  0.5217
  935TIP3   OH224219   0.822   2.525  11.164 -0.4116 -0.5202  0.2064
  935TIP3    H124220   0.838   2.573  11.245 -0.9404  0.2030 -0.1105
  935TIP3    H224221   0.866   2.576  11.097 -3.7509  1.4759 -0.6787
  936TIP3   OH224222   6.058   6.898   9.958 -0.7307 -0.1804  0.4897
  936TIP3    H124223   6.030   6.964   9.895 -1.8196 -1.3739 -0.3523
  936TIP3    H224224   6.019   6.925  10.041 -1.7824 -0.1282 -0.0038
  937TIP3   OH224225   1.275   5.569   0.030 -0.3750  0.1957 -0.0413
  937TIP3    H124226   1.274   5.512  -0.047 -1.8090  1.6286 -1.1401
  937TIP3    H224227   1.366   5.566   0.060  0.2430 -0.3517 -1.8199
  938TIP3   OH224228   6.708   5.868  15.137  0.0155 -0.1782 -0.3929
  938TIP3    H124229   6.658   5.880  15.218 -0.1063  0.5113 -0.5708
  938TIP3    H224230   6.645   5.880  15.067 -0.3383 -2.7698 -0.6066
  939TIP3   OH224231   0.096   3.376  13.462 -0.2013 -0.1137 -0.7973
  939TIP3    H124232   0.003   3.392  13.478 -0.9097 -1.9549 -2.5528
  939TIP3    H224233   0.107   3.395  13.369  0.1317 -3.7783 -1.6629
  940TIP3   OH224234   0.831   4.623  13.051 -0.3014  0.1652 -0.1798
  940TIP3    H124235   0.742   4.596  13.074 -0.2876 -0.0470 -0.3692
  940TIP3    H224236   0.873   4.543  13.019  0.2025  0.0902  0.6343
  941TIP3   OH224237   2.429   3.536  13.942  0.5316 -0.6106 -0.2460
  941TIP3    H124238   2.392   3.566  13.859  0.8630 -0.3163 -0.2928
  941TIP3    H224239   2.409   3.607  14.004  1.5686 -0.1404 -0.4232
  942TIP3   OH224240   0.514   5.845  11.969  0.2038 -0.3923  0.2478
  942TIP3    H124241   0.589   5.901  11.992  0.3106 -0.6879  0.6249
  942TIP3    H224242   0.539   5.805  11.886  0.2209 -0.0480  0.0868
  943TIP3   OH224243   4.224   3.652   3.256  0.6195 -0.3997  0.0384
  943TIP3    H124244   4.297   3.669   3.196  0.6728 -1.3709 -0.1863
  943TIP3    H224245   4.157   3.611   3.201 -0.7229  1.8207 -0.0902
  944TIP3   OH224246   1.124   5.948   0.518 -0.0152 -0.4275 -0.7531
  944TIP3    H124247   1.131   5.885   0.446 -2.0500 -0.7892 -0.6816
  944TIP3    H224248   1.067   6.017   0.484  0.5567  0.3808 -0.1194
  945TIP3   OH224249   5.425   6.905   1.400 -0.0519  0.2440  0.3072
  945TIP3    H124250   5.504   6.951   1.374  1.8353 -2.7249  0.3542
  945TIP3    H224251   5.392   6.864   1.320  0.9064 -1.9052  0.9381
  946TIP3   OH224252   0.597   4.745  14.608 -0.0235 -0.1420 -0.6213
  946TIP3    H124253   0.689   4.771  14.607 -0.2688  0.9092  0.8618
  946TIP3    H224254   0.549   4.826  14.624 -1.1069 -0.8705  0.0061
  947TIP3   OH224255   4.772   5.057  10.651 -0.4119  0.0487 -0.3142
  947TIP3    H124256   4.829   5.133  10.642  1.2393 -1.1061  0.0526
  947TIP3    H224257   4.728   5.050  10.566 -1.5354  2.0865  0.0249
  948TIP3   OH224258   0.578   3.300  11.160 -0.7561 -0.2451 -0.5098
  948TIP3    H124259   0.626   3.268  11.084  0.2550  0.6939 -0.2954
  948TIP3    H224260   0.552   3.221  11.207  0.8360 -0.8027 -0.4915
  949TIP3   OH224261   1.605   3.771  12.271 -0.1234 -0.7247  0.2989
  949TIP3    H124262   1.624   3.813  12.355 -0.1203 -0.5276  0.1981
  949TIP3    H224263   1.648   3.826  12.206 -2.0511  0.4298 -0.0556
  950TIP3   OH224264   6.204   5.023  10.220 -0.2068 -0.0775  0.6295
  950TIP3    H124265   6.251   4.957  10.168  0.4027 -0.0391  1.1140
  950TIP3    H224266   6.210   5.103  10.169 -2.9153 -0.8490 -1.0797
  951TIP3   OH224267   1.525   6.024   9.702 -0.0847 -0.4912  0.8323
  951TIP3    H124268   1.518   6.089   9.632  2.3145 -1.8961 -0.8883
  951TIP3    H224269   1.580   6.066   9.768 -0.6216  0.1068  0.9020
  952TIP3   OH224270   1.402   2.396   0.711 -0.3822  0.4529  0.1177
  952TIP3    H124271   1.312   2.364   0.721  0.4343 -1.5721  1.8065
  952TIP3    H224272   1.449   2.322   0.671  0.9431  0.6857  1.1824
  953TIP3   OH224273   3.298   1.550  11.224 -0.1289 -0.5746  0.1863
  953TIP3    H124274   3.319   1.566  11.316 -1.3487 -0.8911  0.5349
  953TIP3    H224275   3.265   1.461  11.222 -1.5937 -0.0420 -0.2908
  954TIP3   OH224276   2.864   4.124   3.339 -1.0626 -0.2422  0.6476
  954TIP3    H124277   2.780   4.100   3.377 -1.2786 -0.0309  0.3101
  954TIP3    H224278   2.843   4.195   3.279 -0.7304 -0.5863  0.1194
  955TIP3   OH224279   2.373   2.092  14.427 -0.6011  0.5206 -0.3662
  955TIP3    H124280   2.454   2.110  14.475 -0.4366  1.7754 -1.0450
  955TIP3    H224281   2.401   2.040  14.352 -0.6825 -0.4436  0.2622
  956TIP3   OH224282   6.443   5.847  13.465 -0.1696 -0.2333  0.7602
  956TIP3    H124283   6.366   5.903  13.462  0.2852  0.3654 -0.0818
  956TIP3    H224284   6.408   5.758  13.463 -0.8172  0.0292 -0.8996
  957TIP3   OH224285   4.964   3.469  13.862 -0.3064  0.1587  0.1319
  957TIP3    H124286   5.047   3.493  13.820 -0.0317 -1.7292 -0.5179
  957TIP3    H224287   4.945   3.542  13.922  0.5789  1.7467 -1.4249
  958TIP3   OH224288   0.426   2.996   9.956 -0.4716  0.5864  0.1989
  958TIP3    H124289   0.461   2.945   9.883 -2.3221  0.7808 -0.8824
  958TIP3    H224290   0.399   3.079   9.917 -2.0577  0.4705  0.9656
  959TIP3   OH224291   5.835   0.622  14.674  0.1861  0.3437 -0.0595
  959TIP3    H124292   5.861   0.664  14.756  1.4076  0.4710 -0.4922
  959TIP3    H224293   5.907   0.563  14.653 -0.1083  0.3167 -1.0479
  960TIP3   OH224294   2.098   5.188  11.389 -0.2570  0.2193  0.6365
  960TIP3    H124295   2.193   5.194  11.402 -0.2261  2.4698 -0.2542
  960TIP3    H224296   2.087   5.112  11.332  0.9453 -0.4184  1.2174
  961TIP3   OH224297   3.194   1.867  10.276  0.0450 -0.3415 -0.5114
  961TIP3    H124298   3.223   1.820  10.198 -1.8479 -0.5627 -1.1157
  961TIP3    H224299   3.174   1.955  10.244  1.4626  0.2678  0.1977
  962TIP3   OH224300   5.023   5.773  13.981 -0.9750  0.2476 -0.4944
  962TIP3    H124301   5.044   5.828  14.056  0.4774 -1.3906  0.3616
  962TIP3    H224302   5.095   5.786  13.920 -0.9600 -0.1858 -0.5756
  963TIP3   OH224303   4.380   0.412  11.287  0.2711 -0.2971 -0.2510
  963TIP3    H124304   4.376   0.383  11.378 -1.6529 -1.3173 -0.6133
  963TIP3    H224305   4.398   0.505  11.292 -1.8870  0.1091  1.2927
  964TIP3   OH224306   5.541   2.649  10.402 -0.5614  0.0150 -0.1681
  964TIP3    H124307   5.557   2.670  10.494  0.0455  0.1688 -0.3021
  964TIP3    H224308   5.464   2.700  10.379 -0.9868 -0.3640  0.3728
  965TIP3   OH224309   2.450   3.663  12.601 -0.0226 -0.1388 -0.0705
  965TIP3    H124310   2.465   3.569  12.591 -0.3768 -0.2553  0.4500
  965TIP3    H224311   2.417   3.691  12.515 -0.5747 -0.6250 -0.0237
  966TIP3   OH224312   4.573   4.909  11.208 -0.0241 -0.1320  0.3860
  966TIP3    H124313   4.660   4.939  11.183  0.0301 -1.1388 -0.6851
  966TIP3    H224314   4.517   4.986  11.198  0.3496 -0.0278 -1.0540
  967TIP3   OH224315   6.754   0.737  10.796  0.0934  0.2633  0.2005
  967TIP3    H124316   6.760   0.770  10.706  1.1238 -2.0802 -0.6827
  967TIP3    H224317   6.843   0.709  10.817  0.1404  1.8656  2.4713
  968TIP3   OH224318   1.279   1.792  11.572 -0.2439 -0.2736 -0.3055
  968TIP3    H124319   1.274   1.836  11.656  0.4684  0.4245 -0.6232
  968TIP3    H224320   1.213   1.837  11.518 -0.0772 -0.1256 -0.3871
  969TIP3   OH224321   3.057   0.189  13.462  0.1135  0.1001 -0.0780
  969TIP3    H124322   2.979   0.148  13.424 -0.7515  1.5091  0.1164
  969TIP3    H224323   3.089   0.125  13.525 -0.1258 -1.0409 -1.0761
  970TIP3   OH224324   1.380   2.331  12.470 -0.9015  0.1155  0.0264
  970TIP3    H124325   1.359   2.386  12.546  0.0749  0.0204  0.3798
  970TIP3    H224326   1.371   2.242  12.502 -0.0654  0.0734  0.1663
  971TIP3   OH224327   4.235   5.610   1.461 -0.1168  0.0638  0.2349
  971TIP3    H124328   4.250   5.515   1.462 -0.0772  0.0626 -0.3758
  971TIP3    H224329   4.252   5.637   1.551 -1.5341 -0.7266  0.7672
  972TIP3   OH224330   4.283   4.508  14.066 -0.6747 -0.0094  0.0644
  972TIP3    H124331   4.312   4.504  13.975 -1.1122  0.1999 -0.0875
  972TIP3    H224332   4.253   4.598  14.077  1.0219  0.4944  0.9310
  973TIP3   OH224333   5.597   3.154   3.569  0.0510  0.5504 -0.2944
  973TIP3    H124334   5.580   3.213   3.642  0.6406  0.6633 -0.2472
  973TIP3    H224335   5.600   3.067   3.608 -4.8584 -0.1432 -0.8408
  974TIP3   OH224336   5.553   5.134  11.043  0.4734 -0.2647  0.5087
  974TIP3    H124337   5.594   5.209  11.088 -0.6221 -1.5328  3.9170
  974TIP3    H224338   5.471   5.169  11.008  0.8645  0.5274  0.3431
  975TIP3   OH224339   0.760   1.320  14.427  0.0991  0.3560  0.0835
  975TIP3    H124340   0.827   1.263  14.388  0.4760 -0.3904  1.7446
  975TIP3    H224341   0.808   1.377  14.486 -0.6674  0.0556  1.0277
  976TIP3   OH224342   4.820   1.767   0.419 -0.5709 -0.1247 -0.3532
  976TIP3    H124343   4.868   1.686   0.432 -2.7793 -1.4377  0.0754
  976TIP3    H224344   4.865   1.810   0.346  1.4232 -1.0530  0.2418
  977TIP3   OH224345   0.791   1.590  15.168  0.2078  0.5983  0.3173
  977TIP3    H124346   0.823   1.521  15.110  1.4401  1.3023  0.0968
  977TIP3    H224347   0.743   1.649  15.110 -0.4196  0.1864  0.4147
  978TIP3   OH224348   2.816   5.717  13.224  0.6728  0.1879 -0.1139
  978TIP3    H124349   2.785   5.647  13.280  0.0219  0.4527 -0.1298
  978TIP3    H224350   2.910   5.703  13.217  0.7577  0.1497  1.0321
  979TIP3   OH224351   4.793   1.105  12.933 -0.1714 -0.7417 -0.2346
  979TIP3    H124352   4.739   1.172  12.975 -2.1786 -2.6037  0.3559
  979TIP3    H224353   4.765   1.106  12.842  1.3266  0.5982 -0.7178
  980TIP3   OH224354   2.148   0.567  14.705  0.1294  0.2057 -0.5570
  980TIP3    H124355   2.099   0.552  14.786 -0.5511  1.2749 -0.7414
  980TIP3    H224356   2.106   0.510  14.640 -1.2996  1.5011 -0.8460
  981TIP3   OH224357   6.303   6.584  11.533 -0.5136 -0.4024  0.1797
  981TIP3    H124358   6.262   6.564  11.449  0.2864  1.2137 -0.6463
  981TIP3    H224359   6.334   6.500  11.565 -0.0610 -0.9531 -1.5692
  982TIP3   OH224360   2.431   0.084  10.309  0.1450 -0.1843 -0.4435
  982TIP3    H124361   2.377   0.006  10.323  0.8289 -0.6830 -0.5521
  982TIP3    H224362   2.505   0.074  10.369  0.1949  0.4271 -0.3953
  983TIP3   OH224363   1.168   1.852  11.813 -0.1837  0.5874 -0.3129
  983TIP3    H124364   1.088   1.835  11.763 -1.1173  2.3370  0.4840
  983TIP3    H224365   1.158   1.943  11.843  0.9716  0.0599  1.8565
  984TIP3   OH224366   4.593   1.226  11.514 -0.3390 -0.3917  0.3154
  984TIP3    H124367   4.543   1.153  11.550 -0.2402  0.0583  1.3986
  984TIP3    H224368   4.547   1.304  11.544 -0.6894  0.0100 -1.1823
  985TIP3   OH224369   0.662   1.950  13.027  0.0041 -0.2511  0.2132
  985TIP3    H124370   0.577   1.907  13.041  0.6755 -1.5171  0.5343
  985TIP3    H224371   0.705   1.945  13.112  1.4925 -2.1328 -0.5643
  986TIP3   OH224372   6.102   0.913  10.728  0.5744 -0.1562 -0.0696
  986TIP3    H124373   6.047   0.938  10.802  1.6783  0.4091  0.5845
  986TIP3    H224374   6.089   0.982  10.664  0.9691  0.3000  0.3319
  987TIP3   OH224375   4.495   4.226  13.305  0.3920 -0.8272 -0.2032
  987TIP3    H124376   4.589   4.222  13.319  0.8723  1.5054 -1.9609
  987TIP3    H224377   4.463   4.139  13.326  2.8479 -1.5336  0.9392
  988TIP3   OH224378   6.050   0.090  12.951  0.0911  0.1433  0.0694
  988TIP3    H124379   6.102   0.028  13.003  0.5896 -0.5947 -1.2608
  988TIP3    H224380   6.032   0.162  13.012  1.7618 -0.0726  0.9001
  989TIP3   OH224381   0.046   6.846  11.388  0.3600  0.2969  0.1702
  989TIP3    H124382   0.032   6.783  11.317  1.6648 -1.3603  1.3134
  989TIP3    H224383   0.126   6.893  11.362  0.1139  0.5912 -0.0618
  990TIP3   OH224384   0.791   1.093   2.264 -0.1417 -0.1180 -0.1897
  990TIP3    H124385   0.842   1.070   2.187  0.3000  2.5829 -0.7912
  990TIP3    H224386   0.848   1.151   2.314 -1.8429  1.3235  0.1636
  991TIP3   OH224387   5.719   4.936  10.313  0.5587 -0.1342  0.7993
  991TIP3    H124388   5.799   4.986  10.296  0.1412  0.8197  1.6138
  991TIP3    H224389   5.659   4.999  10.352 -1.1600 -0.4320 -1.1935
  992TIP3   OH224390   1.220   2.965  11.620  0.2874  0.4943  0.0409
  992TIP3    H124391   1.181   2.877  11.624 -0.7953  1.0014  2.2533
  992TIP3    H224392   1.144   3.023  11.614  0.6355  1.4407  3.0180
  993TIP3   OH224393   4.459   5.388   5.129 -0.4313  0.0402 -0.1426
  993TIP3    H124394   4.512   5.425   5.058 -0.8914  0.0302 -0.4938
  993TIP3    H224395   4.515   5.395   5.207  1.1800 -2.4069 -0.9595
  994TIP3   OH224396   0.020   7.155   9.953 -0.5244 -0.6587 -0.4833
  994TIP3    H124397  -0.031   7.236   9.961 -0.9882 -0.8066 -1.6203
  994TIP3    H224398   0.023   7.139   9.858  2.3592 -0.2310 -0.5415
  995TIP3   OH224399   6.217   2.493   2.115  0.7841  0.5327 -0.8195
  995TIP3    H124400   6.194   2.402   2.134  1.5826  0.2554 -1.1418
  995TIP3    H224401   6.285   2.487   2.048  0.3980  1.3874 -1.3089
  996TIP3   OH224402   6.062   0.838  14.276 -0.1011  0.5630 -0.1124
  996TIP3    H124403   6.069   0.748  14.245 -0.9037  0.3753  0.2272
  996TIP3    H224404   6.111   0.890  14.212  0.1184 -0.0809 -0.4666
  997TIP3   OH224405   0.583   2.711  11.775  0.0155 -0.5446 -0.1262
  997TIP3    H124406   0.645   2.783  11.780 -0.9122  0.1884  1.1039
  997TIP3    H224407   0.567   2.700  11.681 -1.6493  2.4616 -0.3061
  998TIP3   OH224408   0.075   6.534  12.367  0.0744 -0.2091 -0.2713
  998TIP3    H124409   0.043   6.452  12.404  1.2435 -1.1765 -1.3335
  998TIP3    H224410   0.167   6.537  12.392 -0.4048  1.8693  1.5805
  999TIP3   OH224411   1.201   0.625   9.941 -0.0155  0.0763  0.8495
  999TIP3    H124412   1.144   0.549   9.929 -0.1058  0.2485  0.1497
  999TIP3    H224413   1.185   0.680   9.864  0.2838  0.6547  1.1885
 1000TIP3   OH224414   6.434   3.878  13.924 -0.8961 -0.4539  0.1058
 1000TIP3    H124415   6.386   3.812  13.974 -1.0155  0.4656  1.2179
 1000TIP3    H224416   6.521   3.838  13.910 -0.1133  0.0550  2.8746
 1001TIP3   OH224417   1.565   2.215  10.717 -0.3338  0.1165 -0.2303
 1001TIP3    H124418   1.495   2.180  10.772 -1.1519 -0.0488 -1.3324
 1001TIP3    H224419   1.577   2.305  10.747 -0.2401 -0.2004  0.7038
 1002TIP3   OH224420   0.625   6.394  12.861  0.2760 -0.4534 -0.7271
 1002TIP3    H124421   0.685   6.461  12.829  1.4708 -0.2492  1.7503
 1002TIP3    H224422   0.538   6.432  12.846  0.9007  1.5182  0.2159
 1003TIP3   OH224423   6.332   6.098  10.900  0.0479  0.3141  0.6892
 1003TIP3    H124424   6.402   6.128  10.841 -0.1747 -0.6015 -0.0733
 1003TIP3    H224425   6.257   6.153  10.877  0.4119  1.0666  1.2699
 1004TIP3   OH224426   6.741   6.147  10.083  0.4623  0.1730 -0.0798
 1004TIP3    H124427   6.816   6.167  10.028  1.1264 -2.8955 -0.4953
 1004TIP3    H224428   6.777   6.145  10.172  1.1691 -2.0003 -0.3408
 1005TIP3   OH224429   3.532   3.937  10.125  1.1375  0.1160  0.1510
 1005TIP3    H124430   3.447   3.975  10.151  0.3891 -2.2631  1.4983
 1005TIP3    H224431   3.595   4.007  10.144 -0.3101  1.2910  0.9412
 1006TIP3   OH224432   1.240   0.136   1.403  0.2287 -0.2454  0.6099
 1006TIP3    H124433   1.244   0.165   1.312  3.2293 -1.2234  0.3354
 1006TIP3    H224434   1.152   0.161   1.432 -0.4088  1.1338 -2.1740
 1007TIP3   OH224435   1.905   0.385  12.074  0.1025  0.2314 -0.0872
 1007TIP3    H124436   1.869   0.334  12.001 -1.6132  1.9753 -0.5452
 1007TIP3    H224437   1.960   0.323  12.121 -0.0770 -1.4131 -1.8931
 1008TIP3   OH224438   6.516   4.491   1.750 -0.2966  0.2004 -0.1713
 1008TIP3    H124439   6.499   4.579   1.717  0.8478  0.2022 -0.7987
 1008TIP3    H224440   6.579   4.504   1.821  1.6921 -0.2579 -1.7560
 1009TIP3   OH224441   3.494   1.254  10.376  0.1214  0.1643 -0.2807
 1009TIP3    H124442   3.412   1.273  10.422  0.0003 -1.2885  0.1389
 1009TIP3    H224443   3.494   1.159  10.365  1.5253  0.1952 -0.7152
 1010TIP3   OH224444   5.508   4.515  13.029 -0.0129 -0.1010 -0.2040
 1010TIP3    H124445   5.494   4.434  12.980 -1.3687  1.2524 -2.1838
 1010TIP3    H224446   5.421   4.543  13.055  0.4654  0.6192  0.6699
 1011TIP3   OH224447   6.367   3.571  12.430 -0.1694  0.1172  0.8943
 1011TIP3    H124448   6.308   3.582  12.505 -0.2556  0.4291  0.7814
 1011TIP3    H224449   6.431   3.506  12.460  0.2758  0.8386  1.5295
 1012TIP3   OH224450   5.791   0.951  10.510  0.3246  0.3143  1.0387
 1012TIP3    H124451   5.704   0.991  10.503  0.6124  0.7855 -0.2298
 1012TIP3    H224452   5.848   1.009  10.459  0.8226 -1.5400 -0.6496
 1013TIP3   OH224453   1.850   5.737  14.974  0.1124  0.1669 -0.6798
 1013TIP3    H124454   1.839   5.780  14.889  0.6431  2.3691  0.2951
 1013TIP3    H224455   1.842   5.808  15.038 -1.1672 -1.5532  1.1938
 1014TIP3   OH224456   3.875   1.530   2.052  0.0471  0.0678 -0.4483
 1014TIP3    H124457   3.928   1.536   1.973 -0.4031 -0.5569 -0.8032
 1014TIP3    H224458   3.938   1.536   2.124  0.6382 -1.0098 -0.8605
 1015TIP3   OH224459   5.111   0.947  11.473  0.2226  0.2256 -0.6322
 1015TIP3    H124460   5.023   0.986  11.468 -0.4845 -1.3675 -1.5386
 1015TIP3    H224461   5.127   0.937  11.567 -1.1454 -0.6288 -0.4548
 1016TIP3   OH224462   4.041   5.741  12.872 -0.6696  0.5071 -0.3102
 1016TIP3    H124463   4.079   5.683  12.938  0.3330  0.2977 -1.0268
 1016TIP3    H224464   4.043   5.689  12.791  1.6654  1.9665 -1.3238
 1017TIP3   OH224465   5.491   2.214   9.367 -0.4057 -0.6535  0.0092
 1017TIP3    H124466   5.409   2.169   9.388 -0.8901 -0.5417 -1.4909
 1017TIP3    H224467   5.464   2.303   9.344  0.2149 -0.4436  0.0735
 1018TIP3   OH224468   1.246   4.095  14.824  0.3535  0.4196 -0.7392
 1018TIP3    H124469   1.273   4.110  14.734 -0.4784 -0.1636 -1.1040
 1018TIP3    H224470   1.249   4.181  14.865  1.2054  0.6085 -1.1912
 1019TIP3   OH224471   0.064   5.900  10.782 -0.2629 -0.8005 -0.1399
 1019TIP3    H124472   0.058   5.901  10.877  0.3019  0.4027 -0.1006
 1019TIP3    H224473   0.134   5.839  10.762 -0.6054 -1.3077  0.1923
 1020TIP3   OH224474   2.532   6.773  13.351  0.0260 -0.4152  0.3982
 1020TIP3    H124475   2.603   6.797  13.409 -0.4540 -2.2781  1.8526
 1020TIP3    H224476   2.575   6.731  13.276  0.6259  1.7967 -0.5811
 1021TIP3   OH224477   3.108   2.230  11.028 -0.3803  0.6659  0.8051
 1021TIP3    H124478   3.027   2.179  11.037 -1.1638  2.1294  2.7504
 1021TIP3    H224479   3.106   2.263  10.938 -0.7629 -1.1593  0.0996
 1022TIP3   OH224480   0.694   5.650  14.363  0.4255 -0.5052 -0.1392
 1022TIP3    H124481   0.735   5.606  14.437  0.0347 -0.7619 -0.0706
 1022TIP3    H224482   0.744   5.731  14.352 -0.8009  0.5999  1.7736
 1023TIP3   OH224483   5.548   3.916   9.897 -0.1759  0.2723  0.1835
 1023TIP3    H124484   5.596   3.860   9.836 -0.1940 -0.8106  1.1163
 1023TIP3    H224485   5.482   3.858   9.935 -0.8648  1.2068  0.4365
 1024TIP3   OH224486   5.713   4.536  10.312  0.0858  0.0923 -0.2084
 1024TIP3    H124487   5.767   4.532  10.390 -0.1409  1.1035  0.0150
 1024TIP3    H224488   5.630   4.497  10.338  0.2884 -0.3310 -0.1925
 1025TIP3   OH224489   4.112   3.776   0.799 -0.7633 -0.0022  0.0390
 1025TIP3    H124490   4.072   3.723   0.730 -0.8584  2.4560 -1.9481
 1025TIP3    H224491   4.066   3.751   0.878 -2.5290 -1.0776 -1.2568
 1026TIP3   OH224492   2.936   1.961   3.419 -0.2046  0.4318 -0.3052
 1026TIP3    H124493   2.932   1.867   3.403  1.0162  0.2260  0.4104
 1026TIP3    H224494   2.962   1.999   3.335 -0.9026  0.1526 -0.6454
 1027TIP3   OH224495   5.800   5.625  11.253  0.4522  0.4746  0.1920
 1027TIP3    H124496   5.892   5.600  11.266  0.5366  0.8585  0.3299
 1027TIP3    H224497   5.774   5.663  11.337  0.6991  2.0259 -0.4022
 1028TIP3   OH224498   6.051   5.882  11.272 -0.0522 -0.1242  0.3594
 1028TIP3    H124499   5.959   5.859  11.282 -0.0182  0.1480  1.4367
 1028TIP3    H224500   6.066   5.880  11.178 -0.9973 -0.7888  0.2060
 1029TIP3   OH224501   6.991   0.278  12.172  0.4653 -0.1181  0.1181
 1029TIP3    H124502   7.034   0.308  12.091  0.8410 -1.5719 -0.2463
 1029TIP3    H224503   6.919   0.223  12.143 -1.0994  1.5055  0.7573
 1030TIP3   OH224504   0.018   1.824  12.598 -0.2693  0.1889  0.4234
 1030TIP3    H124505   0.051   1.756  12.656 -0.1663  0.9472  1.2729
 1030TIP3    H224506   0.021   1.904  12.650  1.9080  1.3486 -1.2982
 1031TIP3   OH224507   0.206   4.295  11.104 -0.4088 -0.2450 -0.0801
 1031TIP3    H124508   0.264   4.231  11.145  0.3492 -0.1280 -0.9339
 1031TIP3    H224509   0.141   4.315  11.171  0.5482 -0.3720  0.9113
 1032TIP3   OH224510   5.049   5.542  12.699  0.6023 -0.3723 -0.5804
 1032TIP3    H124511   5.123   5.481  12.691 -0.3534 -1.4011 -2.4856
 1032TIP3    H224512   5.014   5.549  12.610 -0.7306  1.2108  0.0068
 1033TIP3   OH224513   5.534   1.660   1.257  0.1215  0.1742  0.4711
 1033TIP3    H124514   5.449   1.637   1.294 -0.2542  0.3565 -0.2482
 1033TIP3    H224515   5.558   1.742   1.299  0.5014 -0.4720  1.5402
 1034TIP3   OH224516   0.995   1.686  14.213  0.0239 -0.0557  0.0753
 1034TIP3    H124517   0.937   1.615  14.185 -1.3471  0.4640  1.4571
 1034TIP3    H224518   1.082   1.646  14.217 -0.1299 -0.7740 -2.3868
 1035TIP3   OH224519   5.938   7.035  11.792 -0.2505 -0.2227  0.0717
 1035TIP3    H124520   5.979   6.949  11.794 -2.7939 -1.5723 -0.5000
 1035TIP3    H224521   5.919   7.050  11.699 -1.1621  0.2314  0.3133
 1036TIP3   OH224522   6.241   6.769  12.776 -0.1074 -0.4143  0.1128
 1036TIP3    H124523   6.202   6.778  12.690  1.6217 -0.6785 -0.7452
 1036TIP3    H224524   6.190   6.701  12.819 -0.9082 -0.3665 -0.7447
 1037TIP3   OH224525   0.377   2.322  14.053  0.2055 -0.1632  0.0338
 1037TIP3    H124526   0.377   2.227  14.047  0.6407 -0.1128 -1.0039
 1037TIP3    H224527   0.442   2.350  13.988 -0.2150  0.8554  0.0315
 1038TIP3   OH224528   5.916   0.287  13.754  0.2546  0.0814  0.3298
 1038TIP3    H124529   5.898   0.261  13.664  2.3547 -0.0825 -0.0926
 1038TIP3    H224530   5.898   0.209  13.806 -1.2319  0.2558  0.1330
 1039TIP3   OH224531   6.043   5.395   9.636  0.6378  0.3152  0.1303
 1039TIP3    H124532   6.121   5.422   9.684  0.4981  0.6185  0.1839
 1039TIP3    H224533   6.060   5.422   9.546  0.5197  0.5383  0.1748
 1040TIP3   OH224534   6.254   1.348   0.527  0.3934 -0.0771 -0.1726
 1040TIP3    H124535   6.303   1.424   0.495 -0.3276  0.2648 -0.4765
 1040TIP3    H224536   6.274   1.279   0.464  1.8909 -0.4597  0.6812
 1041TIP3   OH224537   4.210   7.151  10.986  0.8500  0.1520 -0.4813
 1041TIP3    H124538   4.179   7.205  10.913 -0.0173  0.0321 -0.2142
 1041TIP3    H224539   4.188   7.201  11.064 -0.3358 -0.7411 -0.2137
 1042TIP3   OH224540   3.387   6.213  11.987 -0.3702 -0.3116 -0.1344
 1042TIP3    H124541   3.463   6.262  11.954 -1.4973 -1.0143 -4.3245
 1042TIP3    H224542   3.339   6.277  12.040  1.1832  1.2831 -0.5418
 1043TIP3   OH224543   5.660   1.032  11.345 -0.0256  0.3485 -0.3157
 1043TIP3    H124544   5.590   0.991  11.293  0.5020 -1.6283  0.4410
 1043TIP3    H224545   5.737   0.979  11.327  0.8296  1.3320  0.3532
 1044TIP3   OH224546   7.147   0.530  11.814  0.1221  0.1840 -0.1929
 1044TIP3    H124547   7.060   0.495  11.836  1.0804 -1.1631  1.7077
 1044TIP3    H224548   7.185   0.463  11.756  0.0875  0.5605 -0.6611
 1045TIP3   OH224549   3.893   6.890  13.609 -0.4746  0.2575  0.1082
 1045TIP3    H124550   3.956   6.961  13.600  1.5336 -1.2850  1.1379
 1045TIP3    H224551   3.943   6.819  13.650 -2.4166 -1.6855 -0.7038
 1046TIP3   OH224552   3.163   3.049  11.270 -0.3983  0.0149  0.3821
 1046TIP3    H124553   3.114   3.037  11.351 -0.7461  0.0110  0.1723
 1046TIP3    H224554   3.097   3.045  11.201  0.0810 -1.6970 -0.0387
 1047TIP3   OH224555   3.510   5.108  11.619 -0.4267 -0.1392 -0.4168
 1047TIP3    H124556   3.458   5.162  11.560  1.3753  1.4223 -0.6965
 1047TIP3    H224557   3.485   5.018  11.599 -1.8957  0.4767 -1.5496
 1048TIP3   OH224558   0.146   4.091  10.918 -0.1075  0.2784 -0.0628
 1048TIP3    H124559   0.159   4.124  11.008 -0.3243 -2.0838  0.8959
 1048TIP3    H224560   0.062   4.046  10.921 -0.0990  0.1365 -1.4651
 1049TIP3   OH224561   2.289   6.584  10.758 -0.2067  0.3921 -0.2108
 1049TIP3    H124562   2.377   6.582  10.720 -0.4049  0.6625 -0.6843
 1049TIP3    H224563   2.301   6.549  10.847  0.1860 -0.6711 -0.6630
 1050TIP3   OH224564   5.706   0.781  12.354  0.0023 -0.4816 -0.0452
 1050TIP3    H124565   5.794   0.775  12.315 -0.5828 -0.8370 -1.3496
 1050TIP3    H224566   5.722   0.815  12.443  1.4759 -0.7873 -0.1642
 1051TIP3   OH224567   3.021   5.327   9.634 -0.2760  0.0118  0.3064
 1051TIP3    H124568   2.995   5.343   9.543 -0.5536  0.1592  0.4116
 1051TIP3    H224569   3.018   5.413   9.675  0.7235  0.0936  0.2342
 1052TIP3   OH224570   0.805   6.209  10.746 -0.4495  0.1771  0.0621
 1052TIP3    H124571   0.743   6.137  10.760  0.1352 -0.1540  1.0232
 1052TIP3    H224572   0.891   6.168  10.744 -0.2491  0.5906 -1.6637
 1053TIP3   OH224573   5.988   1.205  11.378  0.2374  0.5938  0.0761
 1053TIP3    H124574   6.010   1.192  11.286 -0.1018  0.4801  0.0102
 1053TIP3    H224575   6.024   1.128  11.422 -0.1153  0.3536 -0.0478
 1054TIP3   OH224576   3.693   2.714  12.180  0.1368 -0.8280 -0.2634
 1054TIP3    H124577   3.694   2.693  12.273  1.2108 -0.0140 -0.0814
 1054TIP3    H224578   3.659   2.803  12.175  0.0280 -0.8902 -0.6482
 1055TIP3   OH224579   6.235   4.876   0.087 -0.4413 -0.4010  0.0945
 1055TIP3    H124580   6.288   4.904   0.012 -2.5975  2.7623 -0.4228
 1055TIP3    H224581   6.174   4.948   0.103 -0.3848 -1.0217  4.7183
 1056TIP3   OH224582   6.318   6.571  12.981 -0.2307  0.4960 -0.6018
 1056TIP3    H124583   6.228   6.538  12.991 -0.1347 -0.0000 -1.3710
 1056TIP3    H224584   6.369   6.521  13.045 -0.2882 -0.0728 -0.9953
 1057TIP3   OH224585   4.426   3.126  12.582 -0.1001 -0.4701  0.0412
 1057TIP3    H124586   4.396   3.085  12.501  0.6580 -2.0155  0.4892
 1057TIP3    H224587   4.391   3.215  12.579 -1.6345 -1.0719 -1.1040
 1058TIP3   OH224588   6.306   0.730   3.190 -0.0398  0.1433  0.0823
 1058TIP3    H124589   6.382   0.678   3.216 -0.1911 -0.5049 -0.7103
 1058TIP3    H224590   6.325   0.757   3.100 -0.3354  0.7603  0.2003
 1059TIP3   OH224591   4.439   0.959   2.633 -0.3653 -0.3338  0.3058
 1059TIP3    H124592   4.486   1.037   2.602  1.2623 -1.2482  0.3241
 1059TIP3    H224593   4.457   0.893   2.566 -2.3340 -0.5224 -0.0765
 1060TIP3   OH224594   6.076   1.084  10.526 -0.1142  0.2017  0.0986
 1060TIP3    H124595   6.012   1.077  10.454  0.1936 -1.8347 -0.0277
 1060TIP3    H224596   6.106   1.175  10.522 -1.2185  0.5416 -1.3896
 1061TIP3   OH224597   3.234   5.094  10.263 -0.7521 -0.0166 -0.5267
 1061TIP3    H124598   3.227   5.079  10.357 -1.0263  1.5857 -0.2695
 1061TIP3    H224599   3.152   5.060  10.227 -0.7668 -0.3725 -0.1645
 1062TIP3   OH224600   6.039   0.642  10.742 -0.2636  0.7322 -0.3252
 1062TIP3    H124601   6.063   0.733  10.727 -0.3153  0.4538 -2.2910
 1062TIP3    H224602   5.962   0.646  10.799  1.5038  1.7736  2.1668
 1063TIP3   OH224603   2.385   3.113   0.625  0.1118  0.0968  0.0303
 1063TIP3    H124604   2.335   3.094   0.704  0.5755 -0.7634  0.1292
 1063TIP3    H224605   2.344   3.191   0.589 -0.3784  0.2465  0.8869
 1064TIP3   OH224606   2.975   5.597   9.699 -0.0120  0.1543 -0.3842
 1064TIP3    H124607   2.893   5.646   9.690  0.5498  1.2593  0.2457
 1064TIP3    H224608   3.043   5.663   9.686  0.7771 -0.2999  1.2461
 1065TIP3   OH224609   3.332   7.133  12.606 -0.1226  0.2600  0.4288
 1065TIP3    H124610   3.341   7.078  12.528  2.0778  0.6692  0.3392
 1065TIP3    H224611   3.298   7.074  12.673 -0.9951 -0.3616 -0.5230
 1066TIP3   OH224612   3.570   2.628  11.320 -0.0436 -0.0867  0.0862
 1066TIP3    H124613   3.585   2.536  11.345  2.1917  0.2507  0.2275
 1066TIP3    H224614   3.505   2.660  11.382 -0.2464 -1.3637  0.5605
 1067TIP3   OH224615   4.970   5.701  11.918 -0.4001  0.1383  0.1549
 1067TIP3    H124616   5.032   5.649  11.866 -1.2471  0.6174 -1.3959
 1067TIP3    H224617   4.955   5.780  11.865 -1.2489  0.6867  1.1732
 1068TIP3   OH224618   4.339   7.072   9.999  0.1974 -0.1711 -0.1203
 1068TIP3    H124619   4.248   7.096  10.017 -0.3400 -2.7537  0.9707
 1068TIP3    H224620   4.344   7.068   9.903 -0.8895 -0.1923 -0.1850
 1069TIP3   OH224621   2.098   6.047  13.481  0.0534 -0.1718  1.2167
 1069TIP3    H124622   2.087   6.055  13.387  0.2086 -3.0765  0.8670
 1069TIP3    H224623   2.184   6.085  13.499  0.1243  0.1804  0.1702
 1070TIP3   OH224624   5.432   1.984  12.471  0.5625 -0.0197  0.0010
 1070TIP3    H124625   5.347   1.975  12.428  1.2950 -1.5238 -1.2231
 1070TIP3    H224626   5.446   2.078  12.476 -0.4958  0.2293 -1.1811
 1071TIP3   OH224627   1.035   7.131  14.691 -0.2753  0.1436  0.0601
 1071TIP3    H124628   1.103   7.078  14.649 -0.0074 -0.9677  1.7912
 1071TIP3    H224629   1.027   7.208  14.635 -0.2184 -1.3864 -2.2092
 1072TIP3   OH224630   2.733   6.134  13.640 -0.3470  0.2072  0.6582
 1072TIP3    H124631   2.756   6.075  13.568 -0.8746  1.2439 -0.3865
 1072TIP3    H224632   2.816   6.177  13.661 -0.5005  1.0721 -0.4360
 1073TIP3   OH224633   5.177   6.869  14.415 -0.7223  0.4992 -0.8581
 1073TIP3    H124634   5.094   6.899  14.453 -1.7896 -1.9281 -1.0728
 1073TIP3    H224635   5.211   6.806  14.478  0.6084  0.9336 -1.1239
 1074TIP3   OH224636   6.870   4.798  14.046  0.4099 -0.1717 -0.6223
 1074TIP3    H124637   6.866   4.724  14.107  1.5905 -1.2595 -1.8136
 1074TIP3    H224638   6.788   4.846  14.061  0.4193 -0.6887  1.4235
 1075TIP3   OH224639   3.042   0.125  12.708 -0.2487 -0.4688  0.0183
 1075TIP3    H124640   3.048   0.051  12.768  3.1480 -1.7994 -1.6795
 1075TIP3    H224641   2.954   0.120  12.672 -1.6335 -0.9217  3.1271
 1076TIP3   OH224642   6.347   4.206   9.851 -0.7788  0.1614  0.2025
 1076TIP3    H124643   6.265   4.240   9.887 -1.0591  0.3490 -0.5917
 1076TIP3    H224644   6.343   4.228   9.757 -1.2648 -2.6217 -0.5118
 1077TIP3   OH224645   4.460   3.375  15.228 -0.1286  0.3795 -0.2277
 1077TIP3    H124646   4.485   3.307  15.291  1.5872  1.6593  0.5686
 1077TIP3    H224647   4.538   3.386  15.174 -0.1103  2.1684  0.1132
 1078TIP3   OH224648   4.150   1.047  11.604 -0.5227 -0.4423  0.1913
 1078TIP3    H124649   4.175   1.004  11.686 -0.4758  0.8110  0.8507
 1078TIP3    H224650   4.173   1.139  11.617 -0.3142 -0.2608 -1.3212
 1079TIP3   OH224651   6.973   1.641   9.851  0.2648  0.2433  0.0324
 1079TIP3    H124652   7.027   1.606   9.922  0.3085  1.0853  0.4404
 1079TIP3    H224653   6.904   1.691   9.897  1.5760  2.6832 -0.5013
 1080TIP3   OH224654   2.148   6.420  14.463  0.5096  0.3337  0.6153
 1080TIP3    H124655   2.124   6.439  14.553  1.1792  0.6457  0.7386
 1080TIP3    H224656   2.212   6.349  14.470  0.6718  0.4558  0.3977
 1081TIP3   OH224657   1.001   5.801  14.044 -0.3171 -0.0872  0.6248
 1081TIP3    H124658   1.030   5.739  13.977  0.9221 -0.3941  1.3969
 1081TIP3    H224659   1.006   5.887  14.001  0.6919 -0.2556  0.3719
 1082TIP3   OH224660   5.980   1.674  11.109 -0.3586  0.2897  0.6051
 1082TIP3    H124661   5.960   1.591  11.153  0.8533 -1.7414 -2.3624
 1082TIP3    H224662   5.901   1.694  11.059  0.4535 -1.0061 -1.3215
 1083TIP3   OH224663   4.962   6.387  15.013  0.5788  0.3347 -0.1190
 1083TIP3    H124664   4.891   6.365  14.953  0.1924  1.0596  0.0677
 1083TIP3    H224665   5.009   6.304  15.025 -1.1462 -0.5421  0.9757
 1084TIP3   OH224666   0.438   5.198  11.926  0.2420  0.4013 -0.0523
 1084TIP3    H124667   0.391   5.271  11.967  0.6316  1.3571 -1.2584
 1084TIP3    H224668   0.434   5.128  11.991 -2.2051  0.6795  0.2067
 1085TIP3   OH224669   3.402   3.713  11.914  0.4822  0.5312  0.0094
 1085TIP3    H124670   3.469   3.697  11.848 -0.8617  3.2192 -2.1993
 1085TIP3    H224671   3.371   3.626  11.938  3.7356 -0.7478  0.1767
 1086TIP3   OH224672   0.317   7.155   2.834  0.2336 -0.6779 -0.2858
 1086TIP3    H124673   0.347   7.179   2.746  1.1044 -0.2461  0.1082
 1086TIP3    H224674   0.370   7.210   2.892 -0.5096 -0.7755  0.5002
 1087TIP3   OH224675   5.127   4.120   0.976  0.5103  0.2216  0.5045
 1087TIP3    H124676   5.068   4.114   0.901  0.5282  0.9664  0.4194
 1087TIP3    H224677   5.071   4.144   1.049  0.8282  1.9740  0.2131
 1088TIP3   OH224678   2.806   5.567   0.874 -0.2182 -0.1971  0.1125
 1088TIP3    H124679   2.803   5.649   0.826 -2.7039 -1.2334 -1.7369
 1088TIP3    H224680   2.874   5.516   0.831  0.5653  0.4560  0.5525
 1089TIP3   OH224681   4.370   5.239  10.270  0.4205 -0.2258 -0.1626
 1089TIP3    H124682   4.423   5.164  10.299  0.2149  0.4597  2.2341
 1089TIP3    H224683   4.419   5.277  10.197  2.2416 -0.7702  0.7084
 1090TIP3   OH224684   4.232   3.176  14.131  0.2729 -0.2334 -0.6329
 1090TIP3    H124685   4.224   3.270  14.147  1.5593 -0.1737 -0.2365
 1090TIP3    H224686   4.250   3.170  14.038 -1.3862 -0.2078 -0.9837
 1091TIP3   OH224687   1.066   6.237  13.705 -0.2294 -0.2919  0.2114
 1091TIP3    H124688   1.048   6.175  13.634 -1.7893 -0.7876  1.0080
 1091TIP3    H224689   1.071   6.322  13.661  1.6652 -0.8825 -0.8587
 1092TIP3   OH224690   5.653   6.213  10.551  0.6256 -0.3791 -0.8316
 1092TIP3    H124691   5.627   6.305  10.555  2.9465  0.3564 -1.0045
 1092TIP3    H224692   5.592   6.168  10.610 -1.0113  1.1137 -1.2862
 1093TIP3   OH224693   1.432   4.828  12.123  0.3333  0.7900  0.1871
 1093TIP3    H124694   1.369   4.761  12.150 -0.0969  1.3327  0.5535
 1093TIP3    H224695   1.401   4.857  12.038  0.1903  0.9256  0.2841
 1094TIP3   OH224696   0.858   2.410   0.153  0.1035  0.6622  1.2275
 1094TIP3    H124697   0.856   2.319   0.122  0.7300  1.0411  0.0135
 1094TIP3    H224698   0.766   2.430   0.174 -0.5595  0.6161 -1.2549
 1095TIP3   OH224699   0.128   1.831   1.810 -0.0644  0.9761 -0.3861
 1095TIP3    H124700   0.115   1.815   1.903  0.5071 -0.8142 -0.5752
 1095TIP3    H224701   0.049   1.877   1.782 -0.5752  0.8689  0.8316
 1096TIP3   OH224702   5.298   3.828  11.599 -0.5744 -0.8901 -0.3581
 1096TIP3    H124703   5.345   3.802  11.520 -0.8485  0.0014 -0.8316
 1096TIP3    H224704   5.210   3.851  11.569 -0.0547  1.5797 -0.1790
 1097TIP3   OH224705   0.163   5.335  14.742 -0.4420  0.5601  0.7617
 1097TIP3    H124706   0.152   5.414  14.689 -0.1902  1.6684  2.2935
 1097TIP3    H224707   0.245   5.296  14.711 -1.0391  0.3625 -0.6397
 1098TIP3   OH224708   1.280   2.446   0.277  0.3404  0.0095 -0.8929
 1098TIP3    H124709   1.337   2.488   0.213 -0.0748 -1.2983 -2.1858
 1098TIP3    H224710   1.334   2.376   0.314  0.4309  0.4769 -0.1249
 1099TIP3   OH224711   2.455   1.847  10.250  0.0860  0.1532 -0.3979
 1099TIP3    H124712   2.413   1.855  10.164 -0.6308 -1.0369 -0.1798
 1099TIP3    H224713   2.432   1.759  10.280 -0.3890  0.8439  1.3940
 1100TIP3   OH224714   2.699   0.184  13.110  0.6296  0.0576 -0.1744
 1100TIP3    H124715   2.666   0.167  13.198  1.2865  0.8844  0.2345
 1100TIP3    H224716   2.698   0.098  13.067 -0.8818 -0.1562  0.2116
 1101TIP3   OH224717   2.407   3.988  10.914  0.1006 -0.3037  0.1286
 1101TIP3    H124718   2.486   4.015  10.868 -0.4238  0.6242 -0.2519
 1101TIP3    H224719   2.439   3.959  11.000  0.7689  1.1003  0.3930
 1102TIP3   OH224720   1.859   6.360  11.223 -0.2159 -0.4561 -0.0499
 1102TIP3    H124721   1.796   6.377  11.293  0.0473 -2.3033  0.6809
 1102TIP3    H224722   1.813   6.385  11.142 -0.0775  2.9684  0.7522
 1103TIP3   OH224723   0.178   2.642   1.308  0.4279 -0.4477 -0.0083
 1103TIP3    H124724   0.094   2.614   1.346  1.2132 -2.5207  0.3158
 1103TIP3    H224725   0.191   2.585   1.233  0.1765  1.8563 -1.9340
 1104TIP3   OH224726   5.705   1.912  15.060 -0.2227  0.5862  0.2870
 1104TIP3    H124727   5.727   1.872  15.145  1.2640 -0.1606 -0.4150
 1104TIP3    H224728   5.613   1.887  15.046 -0.2205 -0.0595  1.2477
 1105TIP3   OH224729   3.687   2.764   2.548  0.0649  0.1280  0.4609
 1105TIP3    H124730   3.616   2.746   2.610  0.6828 -1.1293  0.8313
 1105TIP3    H224731   3.745   2.824   2.594 -0.1194  0.1855  0.6205
 1106TIP3   OH224732   1.843   1.835   1.000  0.5286 -0.0476 -0.5344
 1106TIP3    H124733   1.757   1.811   0.965 -1.4314  2.1391  2.2939
 1106TIP3    H224734   1.841   1.806   1.091  2.6879  0.3232 -0.3233
 1107TIP3   OH224735   0.924   6.815   0.463 -0.2815 -0.1758 -0.0598
 1107TIP3    H124736   0.979   6.871   0.408  1.1041 -1.3703  0.0143
 1107TIP3    H224737   0.888   6.873   0.529  0.9887  0.6583 -0.0698
 1108TIP3   OH224738   5.049   3.476  14.394 -0.2942  0.0584 -0.2448
 1108TIP3    H124739   4.965   3.521  14.382  0.2867  0.4681 -3.8231
 1108TIP3    H224740   5.110   3.523  14.337  1.4527 -2.4649 -0.5999
 1109TIP3   OH224741   5.510   1.021  10.810 -0.3749  0.0610 -0.1441
 1109TIP3    H124742   5.444   0.952  10.809  0.3864 -0.6795 -0.6830
 1109TIP3    H224743   5.498   1.065  10.725  0.6060 -0.8547 -0.7783
 1110TIP3   OH224744   6.499   0.193  12.787  0.0296 -0.3650  0.4748
 1110TIP3    H124745   6.540   0.279  12.778 -1.1959  0.2735  0.6272
 1110TIP3    H224746   6.539   0.139  12.719  0.0322  0.6547 -0.3499
 1111TIP3   OH224747   6.873   1.446  12.159  0.3240  0.0944  0.2732
 1111TIP3    H124748   6.922   1.380  12.208  1.8371  0.2028 -1.0006
 1111TIP3    H224749   6.867   1.410  12.071 -1.7992  0.1811  0.3365
 1112TIP3   OH224750   6.258   6.520  11.852  0.3258  0.3052 -0.4578
 1112TIP3    H124751   6.167   6.509  11.878  0.7740 -0.9195  0.7547
 1112TIP3    H224752   6.270   6.460  11.779 -0.0666  1.1946 -1.2713
 1113TIP3   OH224753   6.186   4.522  11.099 -0.3628  0.4468  0.2930
 1113TIP3    H124754   6.149   4.488  11.017  0.4546  0.0161  0.0931
 1113TIP3    H224755   6.174   4.617  11.093  3.4895  0.9795 -2.3305
 1114TIP3   OH224756   6.459   3.142   9.720  0.4995 -0.5789  0.0017
 1114TIP3    H124757   6.432   3.102   9.638  3.8226  0.3653 -1.7023
 1114TIP3    H224758   6.415   3.228   9.720  1.2396 -0.1745 -1.3346
 1115TIP3   OH224759   6.513   0.218  15.466 -0.1397  0.5642 -0.3728
 1115TIP3    H124760   6.440   0.164  15.436 -0.7505 -0.2617  2.3172
 1115TIP3    H224761   6.482   0.308  15.460 -1.5205  0.2153  0.8815
 1116TIP3   OH224762   3.716   0.754  10.398  0.2404  0.0612 -0.7214
 1116TIP3    H124763   3.642   0.706  10.435  0.8576 -0.4421 -0.1170
 1116TIP3    H224764   3.790   0.732  10.455  0.6549  1.3135 -0.7534
 1117TIP3   OH224765   1.597   4.662  11.691 -0.0392 -0.0975 -0.0190
 1117TIP3    H124766   1.522   4.631  11.742 -0.4786  0.2494 -0.4468
 1117TIP3    H224767   1.566   4.741  11.648  0.8471  0.5617  0.4998
 1118TIP3   OH224768   1.124   0.661  15.010 -0.0180 -0.4698 -0.1359
 1118TIP3    H124769   1.205   0.633  14.966 -0.3833  0.2499 -1.3250
 1118TIP3    H224770   1.071   0.581  15.014 -0.0085 -0.5481 -1.1211
 1119TIP3   OH224771   1.617   2.405  14.850  0.1719  0.5817  0.7038
 1119TIP3    H124772   1.684   2.456  14.805  0.8944  1.3621  2.5699
 1119TIP3    H224773   1.548   2.468  14.870 -0.0035  0.3109  0.9581
 1120TIP3   OH224774   1.590   7.073  14.044  0.0614 -0.2770  0.5532
 1120TIP3    H124775   1.519   7.094  13.983 -0.7557 -1.5915  1.0148
 1120TIP3    H224776   1.621   6.986  14.017  0.9793 -0.0535  0.8387
 1121TIP3   OH224777   6.555   4.677  11.150  0.0132 -0.0920 -0.1002
 1121TIP3    H124778   6.623   4.610  11.154 -0.2493 -0.3363  0.3426
 1121TIP3    H224779   6.591   4.744  11.092  0.6461 -0.2011  0.1554
 1122TIP3   OH224780   5.871   0.090  10.348 -0.1193 -0.4760  0.1807
 1122TIP3    H124781   5.877   0.098  10.253 -1.8109 -0.3478  0.0594
 1122TIP3    H224782   5.877   0.180  10.380 -2.4037 -0.1808 -0.0436
 1123TIP3   OH224783   4.470   3.994  11.600  0.4351 -0.3343  0.0601
 1123TIP3    H124784   4.500   4.077  11.565 -1.4375 -0.2347 -1.4554
 1123TIP3    H224785   4.449   4.012  11.692 -1.4321  1.3392 -0.6215
 1124TIP3   OH224786   4.599   3.438  12.064 -0.2109  0.0115  0.5758
 1124TIP3    H124787   4.667   3.487  12.018  1.2582 -1.2021  1.3430
 1124TIP3    H224788   4.627   3.347  12.058 -0.8872 -0.3578  2.3195
 1125TIP3   OH224789   0.938   3.037  10.276 -0.6260 -0.2852  0.3898
 1125TIP3    H124790   0.857   3.069  10.317  1.3538  2.4425  2.6101
 1125TIP3    H224791   0.963   3.107  10.215  0.9204 -0.1897  1.0854
 1126TIP3   OH224792   6.727   0.915  14.376 -0.3811 -0.5492 -0.8349
 1126TIP3    H124793   6.658   0.921  14.441  0.1867  0.1791 -0.2879
 1126TIP3    H224794   6.805   0.952  14.418 -0.4254  1.6635 -2.4881
 1127TIP3   OH224795   6.301   0.096  10.562 -0.5524  0.0916  0.0143
 1127TIP3    H124796   6.334   0.035  10.628 -1.7806 -0.6278 -0.0203
 1127TIP3    H224797   6.206   0.093  10.570 -0.7069  0.5199 -1.3133
 1128TIP3   OH224798   4.569   4.107  12.569 -0.0329  0.1820 -0.9243
 1128TIP3    H124799   4.535   4.080  12.655 -0.0816  2.4418 -0.1702
 1128TIP3    H224800   4.596   4.025  12.528 -0.9758 -1.0863  0.8150
 1129TIP3   OH224801   1.052   0.272  11.438 -0.6334 -0.4513  0.4105
 1129TIP3    H124802   1.045   0.193  11.492 -1.9114 -0.1091  0.7673
 1129TIP3    H224803   1.095   0.336  11.494 -1.2544 -0.3356  0.7578
 1130TIP3   OH224804   0.641   2.035  11.615 -0.3957 -0.1082  0.6557
 1130TIP3    H124805   0.559   2.011  11.658 -0.3941  0.7333  1.1478
 1130TIP3    H224806   0.697   2.066  11.686  0.0491  0.1183  0.2059
 1131TIP3   OH224807   1.716   5.443  13.670  0.0486  0.0382 -0.2062
 1131TIP3    H124808   1.804   5.424  13.702 -0.0440  1.5750  1.0383
 1131TIP3    H224809   1.665   5.462  13.749 -0.9048  1.0854 -1.0413
 1132TIP3   OH224810   0.755   7.127  14.003  0.1245 -0.8229  0.3292
 1132TIP3    H124811   0.829   7.117  14.063  0.0181  1.2803  0.8993
 1132TIP3    H224812   0.779   7.202  13.948 -0.0881 -2.2651 -1.8408
 1133TIP3   OH224813   5.243   0.572  14.878  0.2685  0.1347  0.2203
 1133TIP3    H124814   5.212   0.483  14.893  0.1570  0.2932  0.9525
 1133TIP3    H224815   5.206   0.623  14.950  1.1572  0.5815  0.3740
 1134TIP3   OH224816   6.870   2.804  10.932 -0.3567 -0.5083  0.8869
 1134TIP3    H124817   6.883   2.709  10.930  0.0328 -0.4550 -0.2168
 1134TIP3    H224818   6.853   2.824  11.023 -0.4264 -1.6437  1.1433
 1135TIP3   OH224819   3.233   5.917  12.414  0.2460  0.5128 -0.5532
 1135TIP3    H124820   3.142   5.914  12.385  0.1225  0.9591 -0.2315
 1135TIP3    H224821   3.268   5.997  12.376  1.0489 -0.5475 -2.1745
 1136TIP3   OH224822   3.230   2.958  11.574 -0.5637 -0.1753  0.5536
 1136TIP3    H124823   3.214   2.933  11.665 -0.9790 -0.9866  0.2735
 1136TIP3    H224824   3.143   2.980  11.540 -0.1586  2.3810  0.9538
 1137TIP3   OH224825   2.057   1.766   0.260 -0.1435 -0.4854  0.2540
 1137TIP3    H124826   2.024   1.713   0.332  0.4375  0.6411  1.4022
 1137TIP3    H224827   2.043   1.713   0.182 -1.7864 -1.3016  1.0529
 1138TIP3   OH224828   0.242   5.953   4.955 -0.4551 -0.4977 -0.0379
 1138TIP3    H124829   0.272   6.024   4.899  1.1359 -1.3574 -0.3457
 1138TIP3    H224830   0.268   5.873   4.908  0.6054 -1.2497  1.7140
 1139TIP3   OH224831   1.681   0.240  10.328 -0.1347 -0.4127  0.0563
 1139TIP3    H124832   1.688   0.282  10.243 -0.9830  0.8522  0.5754
 1139TIP3    H224833   1.752   0.277  10.380  0.9300 -1.8347 -0.3278
 1140TIP3   OH224834   4.941   5.597  14.901  0.2142  0.3587  0.2081
 1140TIP3    H124835   4.913   5.687  14.885  2.1783  0.7108 -1.8141
 1140TIP3    H224836   4.901   5.546  14.830 -0.3117 -0.2478  0.9282
 1141TIP3   OH224837   3.153   1.728   3.005  0.5743  0.3929  0.0475
 1141TIP3    H124838   3.072   1.691   2.969  0.4918  1.4688 -0.9324
 1141TIP3    H224839   3.170   1.675   3.083  0.9886 -2.3300 -1.7289
 1142TIP3   OH224840   7.117   5.849  10.369  0.5969 -0.5870 -0.3334
 1142TIP3    H124841   7.206   5.816  10.360  0.9555 -0.0417  0.9669
 1142TIP3    H224842   7.073   5.786  10.425 -0.1465 -1.3556 -1.7233
 1143TIP3   OH224843   2.586   4.946  13.213 -0.2223  0.1422 -0.5200
 1143TIP3    H124844   2.638   4.919  13.289 -3.2856 -2.7192  0.8470
 1143TIP3    H224845   2.627   4.904  13.138  0.2202 -0.9108  0.2937
 1144TIP3   OH224846   6.717   6.482  10.310 -0.3494  0.3915 -0.1037
 1144TIP3    H124847   6.811   6.470  10.297 -0.4248 -0.8202  0.3097
 1144TIP3    H224848   6.683   6.393  10.324 -1.6313  0.7539 -0.7148
 1145TIP3   OH224849   0.703   4.902  10.937 -0.3187  0.2733  0.6095
 1145TIP3    H124850   0.629   4.871  10.989 -1.4132  0.6065 -0.6996
 1145TIP3    H224851   0.679   4.881  10.847  0.9818  0.8003  0.1218
 1146TIP3   OH224852   6.316   3.412  13.024 -0.2812 -0.5170 -0.2016
 1146TIP3    H124853   6.303   3.347  12.954  1.0136 -1.4214  0.3557
 1146TIP3    H224854   6.401   3.451  13.005 -0.0042 -0.6287  0.7370
 1147TIP3   OH224855   0.026   5.819  12.468  0.4157 -0.3528 -0.3254
 1147TIP3    H124856  -0.022   5.774  12.537  2.4426  0.0156  1.4239
 1147TIP3    H224857   0.031   5.910  12.498  2.2833 -0.4086 -0.3574
 1148TIP3   OH224858   1.045   4.307   3.402 -0.3856  0.3363  0.2865
 1148TIP3    H124859   1.010   4.297   3.490  0.4130 -0.3239  0.5454
 1148TIP3    H224860   1.052   4.402   3.389 -0.2714  0.4297  1.0270
 1149TIP3   OH224861   6.225   6.878   9.565  0.7713  0.5898  0.1031
 1149TIP3    H124862   6.170   6.954   9.547  0.9509  0.6287 -0.3039
 1149TIP3    H224863   6.216   6.823   9.487  1.6707  0.8156 -0.1742
 1150TIP3   OH224864   2.553   3.386  12.074  0.0675 -0.6716 -0.3293
 1150TIP3    H124865   2.634   3.385  12.024  1.2147 -1.6129  1.4489
 1150TIP3    H224866   2.569   3.327  12.148 -2.2323 -0.8803  0.0974
 1151TIP3   OH224867   1.977   0.123  12.461  0.3090  0.3186  0.1577
 1151TIP3    H124868   1.967   0.098  12.553  1.8367 -0.1509  0.2286
 1151TIP3    H224869   2.071   0.113  12.444 -0.2747 -2.1240 -2.1762
 1152TIP3   OH224870   4.818   6.120  14.348  0.0594 -0.5552 -0.0187
 1152TIP3    H124871   4.827   6.144  14.256  0.1330  0.2346  0.1935
 1152TIP3    H224872   4.723   6.109  14.360 -0.0722  0.6519  0.1319
 1153TIP3   OH224873   4.237   6.207  15.235 -0.4745  0.5265  0.2773
 1153TIP3    H124874   4.223   6.196  15.141  1.8063 -1.1566  0.0219
 1153TIP3    H224875   4.278   6.293  15.243 -0.8981  0.7794 -0.2511
 1154TIP3   OH224876   6.768   1.628  10.085  0.1039  0.1080  0.4844
 1154TIP3    H124877   6.802   1.717  10.078  1.1574 -0.0738  2.5179
 1154TIP3    H224878   6.674   1.638  10.075  0.2776  1.3222 -0.1960
 1155TIP3   OH224879   6.651   1.938  12.419 -0.1924  0.1820 -0.8119
 1155TIP3    H124880   6.705   2.006  12.459  0.8097 -1.8638  1.6026
 1155TIP3    H224881   6.687   1.927  12.331  1.3708  0.9715 -0.3074
 1156TIP3   OH224882   1.421   0.649  11.426 -0.8975  0.0344 -0.0569
 1156TIP3    H124883   1.475   0.719  11.390 -1.8306  1.4794  1.2690
 1156TIP3    H224884   1.465   0.624  11.507  0.0080 -1.7178 -1.0126
 1157TIP3   OH224885   4.282   1.820  13.145 -0.2135  0.3320 -0.3440
 1157TIP3    H124886   4.258   1.858  13.229 -0.4569  1.2901 -0.8305
 1157TIP3    H224887   4.376   1.800  13.153  0.1513  1.9015 -0.3752
 1158TIP3   OH224888   4.401   2.091  11.195 -0.4961  0.7350 -0.0669
 1158TIP3    H124889   4.420   2.185  11.189  1.7149  0.4380  1.1035
 1158TIP3    H224890   4.486   2.051  11.210 -1.4602 -1.4386 -0.1025
 1159TIP3   OH224891   2.565   3.609  12.216  0.2320  0.2015  0.1908
 1159TIP3    H124892   2.602   3.560  12.290 -1.5834  0.0353  1.0310
 1159TIP3    H224893   2.556   3.544  12.146  0.0035 -0.1173  0.5184
 1160TIP3   OH224894   2.182   1.473  13.925 -0.5593  0.0175 -0.5642
 1160TIP3    H124895   2.191   1.567  13.940  1.7666 -0.4438  1.6029
 1160TIP3    H224896   2.214   1.460  13.835 -0.7264  1.2588 -0.8208
 1161TIP3   OH224897   2.974   3.999   2.411  0.3319  0.6169 -0.9129
 1161TIP3    H124898   2.901   4.038   2.459 -0.9980 -0.3869 -2.0408
 1161TIP3    H224899   2.948   3.908   2.396  1.3162  0.5245 -2.2965
 1162TIP3   OH224900   5.777   0.533   0.356 -0.6528  0.1353 -0.0913
 1162TIP3    H124901   5.862   0.522   0.312 -0.6642 -0.1556 -0.0374
 1162TIP3    H224902   5.770   0.628   0.369  0.2282  0.0734  1.0255
 1163TIP3   OH224903   6.306   5.242  10.053 -0.6717 -0.2722 -0.7908
 1163TIP3    H124904   6.215   5.273  10.054 -0.7630 -0.4538  1.1117
 1163TIP3    H224905   6.330   5.241   9.961 -2.4835  0.1286 -1.3125
 1164TIP3   OH224906   6.407   0.540  11.818 -0.6478 -0.1952  0.7464
 1164TIP3    H124907   6.481   0.507  11.870 -0.4167 -0.9911 -0.0593
 1164TIP3    H224908   6.389   0.470  11.755 -2.4968 -0.2831  1.3233
 1165TIP3   OH224909   0.537   0.666  13.279  0.0115 -0.0829 -0.1040
 1165TIP3    H124910   0.442   0.667  13.291  0.1132  0.2231  0.7113
 1165TIP3    H224911   0.567   0.591  13.332 -0.0129 -1.7810 -2.3476
 1166TIP3   OH224912   3.770   1.311  12.221  0.3874  0.2357  0.1204
 1166TIP3    H124913   3.773   1.381  12.286  2.7705 -1.5092  2.0901
 1166TIP3    H224914   3.834   1.337  12.155  2.4058 -0.6888  1.6295
 1167TIP3   OH224915   1.459   4.935  11.186 -0.2091  0.1878  0.0512
 1167TIP3    H124916   1.424   4.857  11.229  0.6724  0.1209  0.6848
 1167TIP3    H224917   1.552   4.936  11.210 -0.0359  1.0087 -0.5913
 1168TIP3   OH224918   0.436   2.298  11.299  0.0763 -0.2994 -0.0818
 1168TIP3    H124919   0.345   2.323  11.283  0.2367 -0.7847 -1.9574
 1168TIP3    H224920   0.464   2.356  11.370 -1.7845 -0.3942  0.7920
 1169TIP3   OH224921   1.357   4.546  12.611  0.4861 -0.6782  0.1229
 1169TIP3    H124922   1.305   4.496  12.548  0.1861 -1.3838  0.8945
 1169TIP3    H224923   1.377   4.628  12.567  0.5490 -1.2786 -0.9931
 1170TIP3   OH224924   6.127   3.679  11.161 -0.1235 -0.2945 -0.1443
 1170TIP3    H124925   6.113   3.749  11.225  1.8566  0.3361 -0.3081
 1170TIP3    H224926   6.151   3.602  11.214  1.6215  0.2559 -0.0637
 1171TIP3   OH224927   4.856   4.438   4.877 -0.0340 -0.1369  0.0407
 1171TIP3    H124928   4.893   4.468   4.794  0.7209 -1.7038 -0.2165
 1171TIP3    H224929   4.854   4.342   4.870 -2.2342 -0.2246  0.8728
 1172TIP3   OH224930   6.786   5.646   0.582  0.7478 -0.0438  0.2657
 1172TIP3    H124931   6.876   5.633   0.554  0.6094 -2.1447  0.6124
 1172TIP3    H224932   6.792   5.661   0.676  0.7407 -0.2225  0.2952
 1173TIP3   OH224933   6.486   5.595  10.975 -0.2160  0.1137  0.1178
 1173TIP3    H124934   6.413   5.547  10.937  0.6684 -1.0628 -0.1217
 1173TIP3    H224935   6.491   5.676  10.923 -0.8903 -0.1159 -0.3120
 1174TIP3   OH224936   2.895   6.757  13.737  0.1406 -0.0083  0.0940
 1174TIP3    H124937   2.877   6.664  13.752  0.2782  0.2271  1.9689
 1174TIP3    H224938   2.984   6.760  13.704 -0.1414 -0.5807 -0.7471
 1175TIP3   OH224939   5.324   4.997   5.258 -0.5856  0.2564  0.1622
 1175TIP3    H124940   5.366   4.962   5.180 -1.0356  0.0272  0.0209
 1175TIP3    H224941   5.291   5.082   5.231 -2.1948 -0.5051 -0.3909
 1176TIP3   OH224942   4.712   4.746  11.386 -0.1171  0.0738 -1.0700
 1176TIP3    H124943   4.749   4.681  11.326  2.5582  1.0896 -0.6954
 1176TIP3    H224944   4.678   4.815  11.329  1.4683  0.5479 -1.5042
 1177TIP3   OH224945   3.267   2.732  10.611 -0.2007 -0.0995 -0.1972
 1177TIP3    H124946   3.192   2.792  10.604 -0.7611 -0.4261  2.1594
 1177TIP3    H224947   3.290   2.734  10.704  0.3400 -2.8583 -0.2054
 1178TIP3   OH224948   0.273   4.649  12.654  0.0578 -0.6348 -0.1175
 1178TIP3    H124949   0.214   4.574  12.643  0.4580 -1.1891  1.2688
 1178TIP3    H224950   0.344   4.634  12.592 -1.2766  0.1217 -1.9326
 1179TIP3   OH224951   1.057   0.848  12.704 -0.2571 -0.3207 -0.3923
 1179TIP3    H124952   1.108   0.905  12.762  1.2255 -2.3317  0.4006
 1179TIP3    H224953   0.968   0.882  12.709  0.7405  2.6569 -0.9570
 1180TIP3   OH224954   5.608   5.286   0.039  0.5775 -0.3340  0.1296
 1180TIP3    H124955   5.639   5.373   0.064 -1.4802  0.6913 -0.6380
 1180TIP3    H224956   5.515   5.299   0.017  0.6639 -2.3448 -1.8052
 1181TIP3   OH224957   6.218   6.087  12.318  0.2030  0.3012 -0.0298
 1181TIP3    H124958   6.291   6.025  12.328  1.4360  1.7643  0.4021
 1181TIP3    H224959   6.189   6.104  12.408  0.6951  1.2724 -0.0463
 1182TIP3   OH224960   0.263   7.146  11.037  0.0589 -0.1388  0.2703
 1182TIP3    H124961   0.207   7.068  11.040  2.1038 -1.6437  1.7962
 1182TIP3    H224962   0.304   7.142  10.950 -0.6192 -0.1727 -0.0538
 1183TIP3   OH224963   2.685   4.004  10.124 -0.6622 -0.1882 -0.6458
 1183TIP3    H124964   2.600   3.979  10.161  0.3753 -0.5117  1.6940
 1183TIP3    H224965   2.719   3.924  10.085 -0.9544 -0.3275 -0.6183
 1184TIP3   OH224966   3.009   6.104   0.474  0.9069 -0.2104  0.1268
 1184TIP3    H124967   2.945   6.148   0.529  0.2058  0.5366 -1.2151
 1184TIP3    H224968   2.957   6.060   0.407  1.7474  1.4031 -1.7093
 1185TIP3   OH224969   5.227   0.621   0.390 -0.3362 -0.4413  0.0617
 1185TIP3    H124970   5.225   0.616   0.294 -0.9642 -2.5399  0.1398
 1185TIP3    H224971   5.154   0.679   0.413 -0.5732 -0.4271 -0.7074
 1186TIP3   OH224972   5.866   3.672  13.472  0.2367 -0.2557 -0.2271
 1186TIP3    H124973   5.936   3.732  13.448 -1.9394  1.3860 -3.0759
 1186TIP3    H224974   5.827   3.711  13.550  0.3269  0.7887 -0.6818
 1187TIP3   OH224975   6.034   4.235  12.600  0.4042  0.2476  0.1086
 1187TIP3    H124976   6.063   4.282  12.678 -0.5157  0.4192  0.3543
 1187TIP3    H224977   6.006   4.149  12.632 -0.2469  0.4202  0.0175
 1188TIP3   OH224978   2.050   3.079  11.867  0.2029 -0.6522 -0.3758
 1188TIP3    H124979   2.091   3.133  11.934 -0.1383 -1.7432  0.7781
 1188TIP3    H224980   2.012   3.006  11.916  0.3204 -1.7308 -1.8232
 1189TIP3   OH224981   2.280   1.714   5.133 -0.1875 -0.0569  0.6960
 1189TIP3    H124982   2.344   1.698   5.063 -1.1560  0.8214 -0.4247
 1189TIP3    H224983   2.224   1.783   5.099 -0.3381  0.8230  2.5947
 1190TIP3   OH224984   5.847   5.317  10.628  0.3039 -0.3315 -0.3072
 1190TIP3    H124985   5.923   5.293  10.575  0.6163 -0.2112  0.0812
 1190TIP3    H224986   5.782   5.347  10.564  0.5756 -0.4532 -0.6434
 1191TIP3   OH224987   3.147   4.941   2.883  0.3831 -0.4300 -0.4100
 1191TIP3    H124988   3.107   4.928   2.797  1.8169  0.4728 -1.2642
 1191TIP3    H224989   3.082   4.992   2.932 -0.8155 -1.6987 -0.6278
 1192TIP3   OH224990   1.352   0.798   0.126 -0.3285  0.1706 -0.3841
 1192TIP3    H124991   1.291   0.751   0.069  0.7710 -0.5958 -0.9628
 1192TIP3    H224992   1.388   0.730   0.183 -0.8894  0.8144  0.7624
 1193TIP3   OH224993   1.594   1.210  10.083 -0.0547 -0.0373 -0.1561
 1193TIP3    H124994   1.681   1.171  10.081  0.4779  1.0964 -0.3120
 1193TIP3    H224995   1.565   1.210   9.991  0.2321  0.5211 -0.2525
 1194TIP3   OH224996   6.932   0.706  13.734 -0.0780 -0.7931 -0.2889
 1194TIP3    H124997   6.854   0.650  13.730 -1.3834  0.9411 -0.0265
 1194TIP3    H224998   6.950   0.714  13.828 -0.9030  0.5101 -0.2159
 1195TIP3   OH224999   0.256   5.039  12.230 -0.3445 -0.0883  0.2951
 1195TIP3    H125000   0.341   5.084  12.230  0.1351 -0.9627 -0.2469
 1195TIP3    H225001   0.267   4.968  12.293 -0.7335 -0.1159  0.3346
 1196TIP3   OH225002   1.958   4.107  14.754  0.0123 -0.4812 -0.4865
 1196TIP3    H125003   2.033   4.109  14.814  0.7149 -0.4005 -1.3369
 1196TIP3    H225004   1.884   4.080  14.808  0.5189  0.1158  0.5210
 1197TIP3   OH225005   2.464   2.189  12.863 -0.0461 -0.4876  0.0932
 1197TIP3    H125006   2.553   2.167  12.834 -0.3733  0.8585 -2.1563
 1197TIP3    H225007   2.407   2.145  12.800 -0.8041  2.3947 -1.4285
 1198TIP3   OH225008   0.978   1.088  14.719 -0.1708 -0.4824 -0.6185
 1198TIP3    H125009   1.019   1.004  14.699 -1.3545 -2.1978  3.1284
 1198TIP3    H225010   0.887   1.066  14.741 -0.2111  1.4854  1.6441
 1199TIP3   OH225011   4.120   4.427  14.813 -0.2383  0.3259  0.3029
 1199TIP3    H125012   4.058   4.455  14.745  1.8913  2.5453 -0.8822
 1199TIP3    H225013   4.139   4.335  14.791  0.6618  1.0539 -2.4958
 1200TIP3   OH225014   4.961   3.469   0.639  0.0879  0.5648 -0.1456
 1200TIP3    H125015   4.994   3.507   0.721 -1.0283  1.9185 -0.2847
 1200TIP3    H225016   5.035   3.478   0.578  1.1702 -1.0895  0.8539
 1201TIP3   OH225017   6.661   3.606  15.145 -0.1517  0.3503  0.0440
 1201TIP3    H125018   6.636   3.517  15.120  1.1713 -0.3617  1.1050
 1201TIP3    H225019   6.711   3.595  15.226  0.2663  2.0412  0.0542
 1202TIP3   OH225020   1.952   2.657   1.442 -0.0379 -0.3626 -0.3978
 1202TIP3    H125021   1.917   2.747   1.439 -0.1071 -0.3635  0.2598
 1202TIP3    H225022   2.019   2.656   1.375  0.9993  0.6285  0.5667
 1203TIP3   OH225023   0.983   0.261   9.763 -0.3768 -0.0636  0.0125
 1203TIP3    H125024   1.041   0.214   9.703 -0.3835 -0.6580  0.4572
 1203TIP3    H225025   0.942   0.192   9.815 -0.7289  0.4135  0.3766
 1204TIP3   OH225026   1.317   3.603  14.352 -0.5451 -0.0267 -0.1155
 1204TIP3    H125027   1.388   3.544  14.327 -1.3391  0.0269 -2.8627
 1204TIP3    H225028   1.245   3.546  14.377 -0.4835 -0.1460 -0.2124
 1205TIP3   OH225029   0.731   1.492  15.417  0.0310 -0.5161  0.3298
 1205TIP3    H125030   0.671   1.452  15.354 -1.0049 -0.0112  0.9711
 1205TIP3    H225031   0.756   1.575  15.377  0.1705 -0.6517  0.1348
 1206TIP3   OH225032   4.153   6.597  15.440  0.3479  0.1016  0.1426
 1206TIP3    H125033   4.104   6.549  15.507  1.6142 -4.5271 -1.8649
 1206TIP3    H225034   4.244   6.594  15.470  0.6614 -0.2153 -0.8201
 1207TIP3   OH225035   6.953   6.201  11.238  0.2651  0.1662 -0.3927
 1207TIP3    H125036   6.932   6.195  11.145  0.0116 -3.4249 -0.2407
 1207TIP3    H225037   6.872   6.176  11.283  0.2630  2.2228  0.8599
 1208TIP3   OH225038   0.252   4.765   9.842 -0.2953 -0.4523  0.1142
 1208TIP3    H125039   0.288   4.847   9.808 -1.5574 -0.2407 -0.7516
 1208TIP3    H225040   0.175   4.792   9.893 -0.2674 -1.0435  0.4789
 1209TIP3   OH225041   3.371   6.312  12.754  0.3761 -0.7579  0.1361
 1209TIP3    H125042   3.303   6.254  12.720 -1.0245  0.2714  1.0657
 1209TIP3    H225043   3.349   6.398  12.719  1.4278 -0.4653  0.1593
 1210TIP3   OH225044   4.000   2.827  13.533  0.4292 -0.2811  0.9988
 1210TIP3    H125045   3.988   2.918  13.504 -0.5080 -0.4949  0.6487
 1210TIP3    H225046   3.913   2.800  13.562  0.0671 -1.8413 -1.2383
 1211TIP3   OH225047   4.876   6.886  14.997  0.3251  0.1324 -0.0348
 1211TIP3    H125048   4.910   6.949  15.060 -2.0665 -0.0861  1.5712
 1211TIP3    H225049   4.895   6.801  15.036  2.2519 -0.2054 -1.5168
 1212TIP3   OH225050   3.551   1.526   0.578 -0.0925  0.1949 -0.2762
 1212TIP3    H125051   3.559   1.449   0.523 -0.2861 -0.3424  0.4318
 1212TIP3    H225052   3.628   1.579   0.558  0.2607 -0.3836 -0.4499
 1213TIP3   OH225053   1.120   5.144   3.258  0.1949 -0.4538  0.5864
 1213TIP3    H125054   1.072   5.071   3.218  0.5038 -0.1280 -0.4008
 1213TIP3    H225055   1.212   5.127   3.235  0.1926  0.6352 -0.2870
 1214TIP3   OH225056   1.239   5.863  11.390  0.2883 -0.1697 -0.1888
 1214TIP3    H125057   1.287   5.847  11.472  0.9265  1.3893 -0.2319
 1214TIP3    H225058   1.277   5.943  11.355 -2.0465  0.9269 -0.4379
 1215TIP3   OH225059   5.494   6.265  11.733 -0.6189  0.3554 -0.4676
 1215TIP3    H125060   5.475   6.184  11.781  1.4128 -0.3459 -0.7275
 1215TIP3    H225061   5.534   6.323  11.797 -0.9281  0.6882 -0.5703
 1216TIP3   OH225062   5.532   3.990  12.191 -0.3426 -0.3391 -0.3304
 1216TIP3    H125063   5.444   3.968  12.221  0.0486 -1.2956  0.1444
 1216TIP3    H225064   5.580   4.011  12.271  0.7103 -2.9095 -0.1838
 1217TIP3   OH225065   4.727   5.657  11.559  0.3277  0.5049  0.2734
 1217TIP3    H125066   4.655   5.719  11.558  0.2360  0.4019  0.5965
 1217TIP3    H225067   4.790   5.693  11.496 -0.0448  0.5405 -0.0825
 1218TIP3   OH225068   3.783   4.540   4.604  0.0166  0.2014  0.2304
 1218TIP3    H125069   3.799   4.559   4.697 -0.2976 -1.0498  0.5659
 1218TIP3    H225070   3.701   4.490   4.604 -1.5848  2.6268 -1.0099
 1219TIP3   OH225071   2.469   0.900   1.479  0.0396 -0.2551 -0.1747
 1219TIP3    H125072   2.429   0.816   1.456  1.7007 -0.7756 -1.3381
 1219TIP3    H225073   2.427   0.963   1.420 -2.9524  0.2835  2.2716
 1220TIP3   OH225074   7.121   7.162  15.415  0.5207  0.0138  0.5883
 1220TIP3    H125075   7.205   7.197  15.444  0.3625 -0.0424  1.1380
 1220TIP3    H225076   7.134   7.067  15.412  1.5242  0.1405 -2.7340
 1221TIP3   OH225077   0.386   6.433   1.711 -0.0927  0.5558  0.6676
 1221TIP3    H125078   0.319   6.443   1.778  0.1550  0.1916  0.9740
 1221TIP3    H225079   0.461   6.393   1.756 -0.3175 -0.7397 -0.0444
 1222TIP3   OH225080   4.791   1.656  11.924 -0.0044 -0.0678  0.4555
 1222TIP3    H125081   4.844   1.668  11.845  2.4430 -0.4719  1.9136
 1222TIP3    H225082   4.788   1.561  11.936  0.0593  0.0054  1.0964
 1223TIP3   OH225083   1.403   3.908   3.595  0.6800 -0.2546 -0.3451
 1223TIP3    H125084   1.340   3.870   3.533 -0.8727  1.9577 -0.2378
 1223TIP3    H225085   1.354   3.919   3.676  1.8469 -0.4171  0.4074
 1224TIP3   OH225086   7.091   6.982  10.990 -0.0839  0.3210 -0.1019
 1224TIP3    H125087   7.136   6.982  10.905 -0.0608  1.5808 -0.1209
 1224TIP3    H225088   7.003   6.949  10.970  0.0730  0.1530 -0.5322
 1225TIP3   OH225089   0.924   6.747   9.844 -0.0915  0.1908  0.4148
 1225TIP3    H125090   0.955   6.699   9.921  1.6596  0.3677 -0.1610
 1225TIP3    H225091   0.880   6.681   9.790  2.6823 -0.9541 -0.5973
 1226TIP3   OH225092   4.810   2.198  13.911  0.7335 -0.1523 -0.4468
 1226TIP3    H125093   4.798   2.286  13.947 -1.7568 -1.6416  2.8891
 1226TIP3    H225094   4.750   2.194  13.836 -1.2297  0.2310  1.0405
 1227TIP3   OH225095   0.651   0.008  10.666  0.1409  0.0447 -0.2113
 1227TIP3    H125096   0.568  -0.035  10.687  0.0504  0.8768  1.2452
 1227TIP3    H225097   0.628   0.099  10.646  0.6508  0.1506 -0.3575
 1228TIP3   OH225098   3.844   6.192  14.342 -0.4311  0.5854 -0.3156
 1228TIP3    H125099   3.922   6.195  14.397  0.2285 -0.5555 -1.1332
 1228TIP3    H225100   3.844   6.276  14.296 -0.6675  1.3085  0.9667
 1229TIP3   OH225101   6.463   1.527   0.570  0.4964 -0.2495 -0.4420
 1229TIP3    H125102   6.545   1.510   0.525  2.3603 -0.2271  2.6634
 1229TIP3    H225103   6.450   1.452   0.628 -2.1470 -0.6230 -1.3521
 1230TIP3   OH225104   6.694   0.373  10.687  0.0643  0.2433  0.1030
 1230TIP3    H125105   6.700   0.374  10.592  0.9683  2.1499  0.1450
 1230TIP3    H225106   6.760   0.309  10.715  0.9061  0.8249 -0.5062
 1231TIP3   OH225107   3.397   1.724  15.371 -0.0634 -0.1139 -0.4406
 1231TIP3    H125108   3.390   1.813  15.407 -1.3242 -0.4324  0.1534
 1231TIP3    H225109   3.359   1.668  15.438 -2.3785 -0.7464 -2.1590
 1232TIP3   OH225110   4.216   7.144  15.075 -0.1651  0.9096  0.1079
 1232TIP3    H125111   4.298   7.190  15.092  0.6938 -0.5381  0.0360
 1232TIP3    H225112   4.177   7.131  15.161  1.1598 -0.9757  0.4845
 1233TIP3   OH225113   5.394   0.522  10.568 -0.2455  0.2734  0.0148
 1233TIP3    H125114   5.387   0.613  10.597  1.9031 -0.1566  2.1750
 1233TIP3    H225115   5.465   0.522  10.504 -0.5600  0.1769 -0.3374
 1234TIP3   OH225116   3.483   5.189  12.098 -0.0170 -0.1382 -0.2965
 1234TIP3    H125117   3.516   5.227  12.017  1.4967  1.0334  0.8229
 1234TIP3    H225118   3.561   5.169  12.149 -0.8894 -2.1528  0.3429
 1235TIP3   OH225119   5.120   5.246  11.702 -0.1343 -0.5515  0.8857
 1235TIP3    H125120   5.032   5.222  11.672 -0.6693 -1.3334  2.8956
 1235TIP3    H225121   5.107   5.278  11.791  1.4470  0.9180  0.6312
 1236TIP3   OH225122   0.317   6.613  10.116  0.0538  0.2583  0.1505
 1236TIP3    H125123   0.250   6.614  10.185 -0.6788 -0.6003 -0.5256
 1236TIP3    H225124   0.399   6.630  10.162 -0.5821  1.0830  1.0340
 1237TIP3   OH225125   2.055   5.919  12.674 -0.2649 -0.6938  0.2940
 1237TIP3    H125126   2.019   5.897  12.760 -1.6625 -1.4339 -0.4370
 1237TIP3    H225127   1.994   5.983  12.638  0.4173 -0.2464 -0.0771
 1238TIP3   OH225128   6.917   4.028  10.236 -0.0975 -0.4941 -0.0683
 1238TIP3    H125129   6.882   4.010  10.149 -0.8784 -1.1558  0.3813
 1238TIP3    H225130   6.974   3.954  10.255  1.3389  0.4120 -0.6541
 1239TIP3   OH225131   6.314   2.804   0.139  0.1475 -0.1339  0.8138
 1239TIP3    H125132   6.390   2.769   0.185  0.9619  0.4945 -0.0030
 1239TIP3    H225133   6.312   2.756   0.056  0.5712  0.8924  0.1909
 1240TIP3   OH225134   3.899   1.084  11.177  0.5716  0.5977  0.4501
 1240TIP3    H125135   3.844   1.006  11.170  0.2275  0.9192 -0.7679
 1240TIP3    H225136   3.978   1.062  11.128 -0.0674  1.4320 -1.0272
 1241TIP3   OH225137   4.021   1.977  15.265  0.5773  0.3509  0.1570
 1241TIP3    H125138   3.996   2.070  15.259  0.3953  0.2876 -0.1127
 1241TIP3    H225139   4.007   1.944  15.176  0.1863 -0.0518  0.3631
 1242TIP3   OH225140   3.549   5.167  10.787  0.1400 -0.1628  0.4470
 1242TIP3    H125141   3.604   5.178  10.864 -0.1042  0.4099  0.5489
 1242TIP3    H225142   3.534   5.257  10.756 -1.0243 -0.2805  0.6343
 1243TIP3   OH225143   5.439   3.060  10.539 -0.1313  0.2656 -0.0593
 1243TIP3    H125144   5.444   3.119  10.614 -1.8871  1.7053 -1.0187
 1243TIP3    H225145   5.512   3.087  10.483 -0.6240  1.2051 -0.2610
 1244TIP3   OH225146   7.123   4.987  12.805 -0.0067 -0.2617 -0.2460
 1244TIP3    H125147   7.047   4.959  12.856  0.0612  1.0558  0.6079
 1244TIP3    H225148   7.097   4.971  12.714 -0.5447 -1.6178  0.1079
 1245TIP3   OH225149   3.686   5.670   1.453 -0.5113 -0.4706  0.0431
 1245TIP3    H125150   3.675   5.595   1.395  3.2505 -0.0256 -1.4801
 1245TIP3    H225151   3.763   5.649   1.506  0.4421  2.1374 -0.1780
 1246TIP3   OH225152   0.597   2.329  13.354 -0.1068 -0.0203  0.3679
 1246TIP3    H125153   0.545   2.348  13.276  1.9236 -3.3500 -2.0672
 1246TIP3    H225154   0.548   2.261  13.400  0.1164 -0.1727  0.3810
 1247TIP3   OH225155   4.026   2.602  14.593  0.1987  0.2485  0.3960
 1247TIP3    H125156   3.946   2.652  14.579  0.1988  0.6007  1.5505
 1247TIP3    H225157   4.091   2.644  14.536 -0.0458  0.9584  0.6291
 1248TIP3   OH225158   3.498   0.893  14.242  0.3925  0.1203  0.1791
 1248TIP3    H125159   3.436   0.922  14.174  0.3697 -1.4322 -0.5076
 1248TIP3    H225160   3.448   0.895  14.323  0.3364  1.7465  0.1367
 1249TIP3   OH225161   6.327   7.012  10.372  0.1164 -0.5807 -0.6968
 1249TIP3    H125162   6.382   7.065  10.430  0.4229 -0.5444 -1.0167
 1249TIP3    H225163   6.360   7.031  10.284 -2.3835  1.8938 -1.2571
 1250TIP3   OH225164   4.961   3.091   0.245  0.4631 -0.2695  0.2645
 1250TIP3    H125165   4.930   3.010   0.285  0.0557 -0.3358 -0.1857
 1250TIP3    H225166   4.918   3.160   0.295  1.0133 -0.3175  0.8177
 1251TIP3   OH225167   3.012   3.652  10.438  0.4775  0.0410 -0.5987
 1251TIP3    H125168   3.081   3.700  10.484  3.1795 -1.0900 -3.2044
 1251TIP3    H225169   2.957   3.720  10.399 -0.7414  0.9813  2.4573
 1252TIP3   OH225170   2.751   3.474   9.913  0.3019  0.1518 -0.1738
 1252TIP3    H125171   2.709   3.479   9.827 -0.1569  0.8050  0.0809
 1252TIP3    H225172   2.685   3.433   9.969  0.7486 -0.6482 -0.2142
 1253TIP3   OH225173   5.980   6.759  11.813 -0.2373 -0.3709 -0.2725
 1253TIP3    H125174   6.038   6.797  11.879 -1.1719  1.4381 -0.4261
 1253TIP3    H225175   5.895   6.751  11.857 -0.5760 -0.2594 -0.8909
 1254TIP3   OH225176   3.031   6.993  10.827 -0.6182 -0.3346  0.1934
 1254TIP3    H125177   2.974   6.932  10.780 -0.4963 -0.6897  0.4979
 1254TIP3    H225178   2.982   7.016  10.906 -1.6110  1.6601 -0.9156
 1255TIP3   OH225179   5.984   0.742  15.250  0.3613  0.1022  0.1958
 1255TIP3    H125180   6.071   0.725  15.213 -1.0043 -3.4009 -1.8576
 1255TIP3    H225181   5.974   0.680  15.322 -0.4414  0.4795  0.4309
 1256TIP3   OH225182   2.755   1.034  12.813 -0.2826 -0.0990  0.0673
 1256TIP3    H125183   2.732   1.034  12.720 -1.6338 -1.7462  0.3415
 1256TIP3    H225184   2.767   0.942  12.835 -2.0727  0.0292  1.9570
 1257TIP3   OH225185   4.310   6.966  11.906 -0.2369  0.2079 -0.4689
 1257TIP3    H125186   4.289   7.037  11.967  0.4692  1.2810 -1.4336
 1257TIP3    H225187   4.400   6.941  11.929 -0.0657  0.4346 -0.8697
 1258TIP3   OH225188   5.075   0.715  14.027  0.0817  0.9673 -0.3022
 1258TIP3    H125189   5.117   0.707  14.112  0.8997 -0.1089 -0.7843
 1258TIP3    H225190   5.025   0.796  14.032  0.8998  1.4183  0.8674
 1259TIP3   OH225191   3.608   0.650   9.888 -0.3188 -0.0985  0.1006
 1259TIP3    H125192   3.586   0.718   9.824 -1.3113 -1.1910 -0.7629
 1259TIP3    H225193   3.590   0.567   9.842 -2.5228 -0.9232  2.2483
 1260TIP3   OH225194   4.658   5.616  14.084  0.6550  0.3138  0.2979
 1260TIP3    H125195   4.689   5.654  14.001  2.7892 -2.1174 -0.1499
 1260TIP3    H225196   4.584   5.561  14.058  1.0427 -0.1017  0.0585
 1261TIP3   OH225197   0.276   4.405   9.536  0.1857 -0.2915 -0.3517
 1261TIP3    H125198   0.228   4.484   9.564  0.1377 -0.6139  0.5074
 1261TIP3    H225199   0.348   4.398   9.598  0.7640 -0.3872 -1.0228
 1262TIP3   OH225200   4.095   1.207  13.118  0.0159 -0.0512 -0.1124
 1262TIP3    H125201   4.026   1.256  13.162  0.0891 -0.2717  0.2522
 1262TIP3    H225202   4.171   1.266  13.118  0.1169 -0.1763  0.3660
 1263TIP3   OH225203   6.613   0.158  12.355  0.7318  0.3632 -0.0572
 1263TIP3    H125204   6.672   0.214  12.404 -1.6289  2.5108  0.5969
 1263TIP3    H225205   6.579   0.095  12.419 -0.0099  1.1743  0.3755
 1264TIP3   OH225206   0.269   3.466   9.690  0.5399 -0.0180  0.3159
 1264TIP3    H125207   0.270   3.534   9.622  2.3122 -0.2229  0.0837
 1264TIP3    H225208   0.217   3.395   9.651 -0.7732  0.9102  0.3003
 1265TIP3   OH225209   5.299   2.297  13.429 -0.1177  0.1196  0.4018
 1265TIP3    H125210   5.269   2.229  13.489 -0.6045  0.2571  0.3178
 1265TIP3    H225211   5.313   2.373  13.485 -1.4249  0.5115  0.2313
 1266TIP3   OH225212   0.948   1.083   9.851  0.0421 -0.4243  0.3606
 1266TIP3    H125213   0.986   1.118   9.931  0.8525 -0.6946  0.1028
 1266TIP3    H225214   1.009   1.108   9.782  0.5806 -2.2175  0.1503
 1267TIP3   OH225215   5.664   5.156  12.245 -0.0912  0.0819  0.0541
 1267TIP3    H125216   5.682   5.086  12.182  0.6139 -0.3850  0.7576
 1267TIP3    H225217   5.614   5.114  12.314  0.8273  0.1192  0.7648
 1268TIP3   OH225218   6.392   0.582  10.363  0.5908  0.5285 -0.2347
 1268TIP3    H125219   6.486   0.595  10.349  0.9339 -1.7956 -0.5182
 1268TIP3    H225220   6.353   0.592  10.276  0.6412  0.9166 -0.2155
 1269TIP3   OH225221   3.357   2.462  13.697 -0.1297 -0.2532 -0.2539
 1269TIP3    H125222   3.444   2.425  13.689  0.9256  1.3076  2.6887
 1269TIP3    H225223   3.357   2.536  13.637  1.1506  0.6257  0.7854
 1270TIP3   OH225224   1.508   4.728   0.155  0.6281  0.7754  0.2511
 1270TIP3    H125225   1.515   4.823   0.158 -1.5883  1.0559 -1.2419
 1270TIP3    H225226   1.430   4.708   0.207  2.1367 -0.4659  2.1869
 1271TIP3   OH225227   5.652   6.983  11.394 -0.2588  0.2065 -0.1702
 1271TIP3    H125228   5.563   7.014  11.410  0.0293  0.8507  0.2244
 1271TIP3    H225229   5.660   6.904  11.447 -0.6003  0.1343 -0.2214
 1272TIP3   OH225230   1.306   5.560   1.283  0.2227 -0.0594 -0.2385
 1272TIP3    H125231   1.217   5.535   1.306  0.2927 -0.6398 -0.5702
 1272TIP3    H225232   1.357   5.480   1.297  0.2963 -0.4076 -2.2149
 1273TIP3   OH225233   5.029   3.772   0.830  0.0295 -0.2267 -0.2389
 1273TIP3    H125234   5.060   3.760   0.741 -1.9324 -1.1799 -0.8531
 1273TIP3    H225235   4.987   3.858   0.830 -0.5251 -0.4896 -0.4359
 1274TIP3   OH225236   4.800   6.650  11.907  0.3926 -0.0616 -0.1546
 1274TIP3    H125237   4.815   6.649  11.812 -1.1477 -0.3739 -0.4260
 1274TIP3    H225238   4.875   6.698  11.942  0.2268  1.4685 -1.7019
 1275TIP3   OH225239   6.534   6.581   0.951  0.0567  0.2879  0.6550
 1275TIP3    H125240   6.561   6.665   0.914 -2.1213  1.8014  2.3323
 1275TIP3    H225241   6.521   6.598   1.044 -1.9216 -1.5043  0.7759
 1276TIP3   OH225242   5.721   0.460  12.405  0.2710 -0.0767  0.0942
 1276TIP3    H125243   5.678   0.505  12.331  1.4978 -0.9135 -1.1816
 1276TIP3    H225244   5.803   0.507  12.416  1.0769 -1.2965 -0.5363
 1277TIP3   OH225245   1.592   3.861   2.346  0.4941 -0.0541  0.0048
 1277TIP3    H125246   1.611   3.800   2.417 -1.6431 -0.5317  0.2468
 1277TIP3    H225247   1.526   3.920   2.382 -1.7166 -1.1576 -1.8985
 1278TIP3   OH225248   4.603   5.692  11.884  0.4144 -0.6666  0.2315
 1278TIP3    H125249   4.629   5.601  11.876  0.2642 -0.7197  0.3405
 1278TIP3    H225250   4.610   5.711  11.978  1.9769 -0.1088  0.0261
 1279TIP3   OH225251   4.132   4.610  11.691  0.5559 -0.4066 -0.4029
 1279TIP3    H125252   4.066   4.541  11.686  1.0195 -0.8349 -0.7104
 1279TIP3    H225253   4.130   4.652  11.605  0.1992  0.0367 -0.1807
 1280TIP3   OH225254   2.137   2.150  11.909  0.0001 -0.3598  0.7945
 1280TIP3    H125255   2.115   2.159  11.817 -1.8492 -0.0909  1.2365
 1280TIP3    H225256   2.177   2.234  11.933 -2.0365  0.6292  0.8758
 1281TIP3   OH225257   4.562   2.413  15.458 -0.4451  0.0949 -0.2157
 1281TIP3    H125258   4.542   2.321  15.443  1.2502 -0.2947 -0.1901
 1281TIP3    H225259   4.502   2.439  15.528 -1.4746 -0.7586 -0.7423
 1282TIP3   OH225260   3.186   2.182   3.168 -0.5979  0.2829 -0.1056
 1282TIP3    H125261   3.098   2.147   3.156 -1.0332  1.2845  0.1407
 1282TIP3    H225262   3.176   2.254   3.229  0.6075 -0.4487  1.0015
 1283TIP3   OH225263   7.091   0.141  12.395 -0.3237  0.2093 -0.1649
 1283TIP3    H125264   7.062   0.216  12.342 -1.2137  0.5782  0.8236
 1283TIP3    H225265   7.186   0.136  12.379 -0.0414  2.2446  0.6038
 1284TIP3   OH225266   5.985   1.046   9.938 -0.5319  0.1025  0.1074
 1284TIP3    H125267   5.913   1.047   9.876  0.5313 -0.2789 -1.1997
 1284TIP3    H225268   6.060   1.016   9.886 -0.1772 -3.2214  2.1995
 1285TIP3   OH225269   5.301   2.098   4.654  0.9190  0.9591  0.2034
 1285TIP3    H125270   5.259   2.071   4.736 -0.2520 -0.9779 -0.9600
 1285TIP3    H225271   5.242   2.163   4.617  0.7162  0.7879  0.2256
 1286TIP3   OH225272   4.377   6.305  11.162 -0.0899 -0.0691 -0.6647
 1286TIP3    H125273   4.384   6.373  11.095 -1.3147 -0.2289 -0.9844
 1286TIP3    H225274   4.434   6.235  11.131 -0.2108  0.0893 -1.2674
 1287TIP3   OH225275   0.946   2.273   9.706  0.1879  0.5468  0.0326
 1287TIP3    H125276   0.923   2.214   9.634  0.5056 -0.2264  0.5551
 1287TIP3    H225277   0.989   2.217   9.771  2.4902  1.7262 -0.3697
 1288TIP3   OH225278   2.890   3.781   2.631  0.1718 -0.0192 -0.2907
 1288TIP3    H125279   2.839   3.797   2.551 -0.7825 -2.6032 -0.2815
 1288TIP3    H225280   2.827   3.792   2.702  0.2088 -0.8564 -0.1207
 1289TIP3   OH225281   1.667   0.459  13.902 -0.5986 -0.0283  0.4077
 1289TIP3    H125282   1.701   0.547  13.890 -0.9759 -0.2702 -3.5707
 1289TIP3    H225283   1.576   0.471  13.929  0.1876  0.6427  3.0945
 1290TIP3   OH225284   4.972   0.979  14.074  0.0263  0.1828 -0.2071
 1290TIP3    H125285   4.947   1.014  14.159 -0.4185  2.3377 -1.1300
 1290TIP3    H225286   4.915   1.026  14.012  1.5307 -0.0133 -1.8199
 1291TIP3   OH225287   2.975   6.944   4.828  0.3755 -0.4814  0.4978
 1291TIP3    H125288   2.989   7.025   4.779  0.3964 -0.5350  0.4126
 1291TIP3    H225289   3.061   6.924   4.865  0.1561  0.0167  1.2789
 1292TIP3   OH225290   6.762   1.875   2.751  0.0135 -0.0694 -0.0892
 1292TIP3    H125291   6.740   1.941   2.817  0.9113 -0.5745  0.7473
 1292TIP3    H225292   6.844   1.837   2.782 -0.8637 -2.1162 -0.1235
 1293TIP3   OH225293   0.033   5.141  11.277 -0.4170  0.0708  0.3324
 1293TIP3    H125294   0.096   5.111  11.343  0.1703  2.2927  0.8638
 1293TIP3    H225295   0.061   5.230  11.257 -3.7144  1.4068  1.0527
 1294TIP3   OH225296   2.446   2.186  10.955 -0.9316  0.1310 -0.1076
 1294TIP3    H125297   2.427   2.264  10.903 -0.0100  0.4345 -0.0061
 1294TIP3    H225298   2.424   2.113  10.897 -1.8284  0.4533 -0.1958
 1295TIP3   OH225299   4.485   3.902   0.911  0.9342  0.1690 -0.1802
 1295TIP3    H125300   4.554   3.836   0.916  0.3628 -0.5021 -0.9145
 1295TIP3    H225301   4.444   3.888   0.825  0.5920  1.2731 -0.2213
 1296TIP3   OH225302   2.380   5.209  11.491  0.6236 -0.0193  0.3794
 1296TIP3    H125303   2.341   5.265  11.558 -2.1336 -0.2021 -0.9223
 1296TIP3    H225304   2.414   5.134  11.538 -2.4161 -0.7936  1.5735
 1297TIP3   OH225305   7.041   5.583  11.203 -0.4692 -0.0019  0.0283
 1297TIP3    H125306   7.044   5.615  11.113  0.0054  0.3654  0.1672
 1297TIP3    H225307   6.984   5.506  11.200  1.4184 -1.4360 -1.0364
 1298TIP3   OH225308   3.601   6.058  15.209 -0.2755 -0.0246 -0.3161
 1298TIP3    H125309   3.617   6.101  15.293  0.7770  0.2712 -0.6657
 1298TIP3    H225310   3.685   6.021  15.184 -0.2869  0.8683 -1.7910
 1299TIP3   OH225311   7.052   3.108  10.748  0.6529 -0.1258 -0.1510
 1299TIP3    H125312   6.989   3.098  10.819  0.5947  1.8560  0.1302
 1299TIP3    H225313   7.000   3.096  10.668 -0.5183  2.8638  0.0111
 1300TIP3   OH225314   4.483   5.267   2.250 -0.4669 -0.2078 -0.2628
 1300TIP3    H125315   4.551   5.292   2.313 -0.0942 -2.3603  0.3060
 1300TIP3    H225316   4.532   5.236   2.174 -0.8839  0.7871 -0.9443
 1301TIP3   OH225317   3.840   6.436  13.807 -0.4307  0.2599  0.3288
 1301TIP3    H125318   3.771   6.370  13.799 -1.1633  1.2206 -2.2020
 1301TIP3    H225319   3.847   6.452  13.901 -1.8218 -1.7356  0.8402
 1302TIP3   OH225320   0.280   3.223  11.862  0.5018  0.2148 -0.1513
 1302TIP3    H125321   0.277   3.130  11.838  1.2881  0.3417 -0.7787
 1302TIP3    H225322   0.193   3.241  11.898  0.6397 -1.0099  0.8898
 1303TIP3   OH225323   5.985   6.536   0.206  0.0828  0.1540 -0.3589
 1303TIP3    H125324   6.034   6.617   0.225 -2.0509  0.9036  2.5633
 1303TIP3    H225325   5.900   6.566   0.174  0.0399 -1.0312 -1.4319
 1304TIP3   OH225326   6.624   0.964   4.314 -0.5709  0.4495 -0.8253
 1304TIP3    H125327   6.699   0.928   4.361 -1.5477 -1.5068 -0.6757
 1304TIP3    H225328   6.587   0.890   4.267 -2.1161  1.4787 -1.3103
 1305TIP3   OH225329   0.833   0.176   9.108  0.1215 -0.3171  0.4336
 1305TIP3    H125330   0.886   0.096   9.100 -0.1369 -0.7720  2.6500
 1305TIP3    H225331   0.897   0.243   9.132 -0.1061 -0.6638  2.1467
 1306TIP3   OH225332   4.350   4.886  12.231  0.2178 -0.1445 -0.0449
 1306TIP3    H125333   4.352   4.973  12.271 -0.2714 -0.2553  0.2187
 1306TIP3    H225334   4.415   4.836  12.279 -0.9305 -0.5144  1.1642
 1307TIP3   OH225335   3.316   1.316  12.777  0.1310 -0.2632 -0.0039
 1307TIP3    H125336   3.382   1.340  12.712 -0.4470 -1.5126 -1.0924
 1307TIP3    H225337   3.233   1.318  12.729 -0.5329  0.4646  1.1353
 1308TIP3   OH225338   1.567   3.202  13.323 -0.1072 -0.3378  0.2565
 1308TIP3    H125339   1.631   3.241  13.383  0.5612 -0.2240 -0.5125
 1308TIP3    H225340   1.619   3.175  13.247 -0.6547 -2.1303  0.4780
 1309TIP3   OH225341   0.209   3.809  12.559  0.3117 -0.2990  0.3426
 1309TIP3    H125342   0.195   3.903  12.542  1.3590 -0.0500  0.7899
 1309TIP3    H225343   0.208   3.769  12.473 -0.6385  0.0386  0.1769
 1310TIP3   OH225344   6.039   1.834  11.329  0.5949 -0.0789  0.5104
 1310TIP3    H125345   6.029   1.767  11.262  0.7020  0.5247 -0.1270
 1310TIP3    H225346   5.950   1.867  11.343  0.7767  0.9148 -0.5358
 1311TIP3   OH225347   1.149   6.572   8.682 -0.1855  0.0926 -0.2388
 1311TIP3    H125348   1.172   6.481   8.700 -0.6413 -0.1971 -1.0490
 1311TIP3    H225349   1.110   6.603   8.763 -0.5727 -0.6211 -0.1407
 1312TIP3   OH225350   3.658   4.007  15.120 -0.0005  0.3583 -1.2364
 1312TIP3    H125351   3.627   4.026  15.208 -2.8052  0.8601 -2.2399
 1312TIP3    H225352   3.695   4.090  15.089 -1.4572  0.9788 -1.4160
 1313TIP3   OH225353   2.123   1.808  12.657 -0.3399  0.6883 -0.2958
 1313TIP3    H125354   2.038   1.808  12.701 -0.7769 -1.6020 -1.0036
 1313TIP3    H225355   2.185   1.782  12.726 -0.2387  1.9880  0.1271
 1314TIP3   OH225356   3.334   4.124  10.692  0.1005 -0.0380  0.3322
 1314TIP3    H125357   3.328   4.132  10.596 -1.4180 -0.5362  0.3625
 1314TIP3    H225358   3.412   4.174  10.715  0.5632 -0.0060 -1.1803
 1315TIP3   OH225359   5.036   3.644  11.461 -0.5055  0.1059  0.2743
 1315TIP3    H125360   4.982   3.676  11.389 -1.6275 -1.1949  0.4786
 1315TIP3    H225361   4.984   3.573  11.499  1.2784 -1.0858  0.6062
 1316TIP3   OH225362   2.750   3.437  12.381 -0.3435  0.0060  0.1110
 1316TIP3    H125363   2.843   3.445  12.358 -0.3974  1.6208  0.3314
 1316TIP3    H225364   2.725   3.351  12.349  1.6517 -1.2199  1.5763
 1317TIP3   OH225365   6.338   2.352   3.136  0.2916 -0.1490  0.5982
 1317TIP3    H125366   6.325   2.430   3.082 -3.4910 -0.0756  1.3243
 1317TIP3    H225367   6.431   2.354   3.160  1.1291  2.1328 -2.3070
 1318TIP3   OH225368   3.489   4.171   1.066  0.2983  0.1800  0.4145
 1318TIP3    H125369   3.517   4.245   1.012 -2.0157  0.1851 -0.9289
 1318TIP3    H225370   3.397   4.159   1.043  0.6377 -3.2650  0.4124
 1319TIP3   OH225371   1.004   5.559  12.299  0.6110 -0.2164  0.0749
 1319TIP3    H125372   0.992   5.467  12.322 -2.4494  0.1960  0.5384
 1319TIP3    H225373   0.954   5.607  12.365 -0.0525  1.5973 -1.6473
 1320TIP3   OH225374   1.923   5.405   4.766  0.0273  0.0599  0.2108
 1320TIP3    H125375   1.885   5.330   4.720  0.8122  0.9180 -1.9618
 1320TIP3    H225376   2.008   5.374   4.795  0.7285  0.3214 -1.4671
 1321TIP3   OH225377   1.629   3.864  10.176  0.2827 -0.3697 -0.5343
 1321TIP3    H125378   1.646   3.871  10.082  0.4540  0.2040 -0.4670
 1321TIP3    H225379   1.539   3.830  10.181  0.4030 -0.7623 -0.8990
 1322TIP3   OH225380   7.044   0.740  14.289  0.3686 -0.1370  0.2474
 1322TIP3    H125381   7.022   0.653  14.320 -2.0139 -0.2669 -1.5340
 1322TIP3    H225382   6.977   0.797  14.327  0.4545  0.5012 -0.5148
 1323TIP3   OH225383   0.601   7.101  12.228 -0.5614 -0.3139  0.2318
 1323TIP3    H125384   0.643   7.016  12.239 -1.3932 -0.6939  0.5708
 1323TIP3    H225385   0.667   7.165  12.256  0.8538 -0.6810 -2.0460
 1324TIP3   OH225386   5.143   0.112  11.128  0.2064 -0.3328 -0.4150
 1324TIP3    H125387   5.197   0.153  11.195 -0.4479 -0.8134  0.4324
 1324TIP3    H225388   5.187   0.029  11.110 -0.5919 -1.0512  0.7956
 1325TIP3   OH225389   1.882   1.574  10.878 -0.4588 -0.1658 -0.0949
 1325TIP3    H125390   1.854   1.664  10.863 -0.5902 -0.0661  0.7309
 1325TIP3    H225391   1.905   1.542  10.791 -0.0853  0.7704 -0.3570
 1326TIP3   OH225392   3.357   0.546  15.445 -0.2532  0.0867  0.1385
 1326TIP3    H125393   3.306   0.610  15.496 -1.2204 -0.4870 -0.0760
 1326TIP3    H225394   3.343   0.463  15.490  0.4587 -0.0971  0.0335
 1327TIP3   OH225395   2.495   5.674  12.946  0.1743  0.0679 -0.1893
 1327TIP3    H125396   2.435   5.614  12.902  2.4635 -0.5752 -2.6894
 1327TIP3    H225397   2.478   5.759  12.906 -1.2114  0.6203  1.4423
 1328TIP3   OH225398   0.113   3.436  12.459  0.2294 -0.3806 -0.1019
 1328TIP3    H125399   0.062   3.453  12.538 -2.1607  0.5395 -1.7252
 1328TIP3    H225400   0.141   3.345  12.468  2.7926  0.5372  3.1801
 1329TIP3   OH225401   7.015   4.788  12.546  0.1504  0.2501 -0.0027
 1329TIP3    H125402   7.065   4.868  12.532 -1.5138  0.9707 -2.5979
 1329TIP3    H225403   6.937   4.798  12.491 -1.8138 -1.7221  2.1654
 1330TIP3   OH225404   6.172   1.933  11.034  0.0399  0.1907  0.2820
 1330TIP3    H125405   6.082   1.906  11.053  0.2359  1.8696  4.6625
 1330TIP3    H225406   6.210   1.857  10.989 -3.6053 -0.3311 -2.3328
 1331TIP3   OH225407   1.341   6.910   9.358 -0.1934 -0.3565 -0.4456
 1331TIP3    H125408   1.412   6.906   9.294 -0.6496 -0.8966 -0.9241
 1331TIP3    H225409   1.306   6.999   9.349  2.1732  0.9768  1.7467
 1332TIP3   OH225410   5.652   3.859  10.138 -0.0640 -0.0712  0.1634
 1332TIP3    H125411   5.631   3.912  10.061  1.2261 -1.2019 -1.0093
 1332TIP3    H225412   5.660   3.770  10.104 -0.3518 -0.7422  1.7823
 1333TIP3   OH225413   6.740   6.977   9.968  0.0405 -0.0186 -0.2236
 1333TIP3    H125414   6.768   6.896   9.926 -2.1670 -1.0233  0.0690
 1333TIP3    H225415   6.664   7.005   9.917  0.3161  1.4626  0.1487
 1334TIP3   OH225416   0.140   2.770  11.062  0.1331 -0.1327  0.4768
 1334TIP3    H125417   0.155   2.815  10.979 -1.4523  3.6085  1.9889
 1334TIP3    H225418   0.064   2.714  11.045  0.9853 -0.8699 -1.0409
 1335TIP3   OH225419   2.591   3.608   0.499  0.3630 -0.3824 -0.1868
 1335TIP3    H125420   2.570   3.529   0.449  0.0682 -1.4720  1.5721
 1335TIP3    H225421   2.682   3.627   0.477  1.4373 -2.9893  1.5407
 1336TIP3   OH225422   6.597   4.510  12.128 -0.6442 -0.0564  0.5871
 1336TIP3    H125423   6.538   4.511  12.053 -1.5226  1.9128  1.2300
 1336TIP3    H225424   6.557   4.448  12.189 -0.9269 -0.2808  0.1822
 1337TIP3   OH225425   2.769   6.135  11.851 -0.0121 -0.3809 -0.0021
 1337TIP3    H125426   2.785   6.220  11.810  1.4626 -1.0071 -0.7875
 1337TIP3    H225427   2.855   6.093  11.855 -1.1098 -3.4805 -3.3115
 1338TIP3   OH225428   2.946   3.781  11.496  0.0602 -0.3326  0.9330
 1338TIP3    H125429   3.016   3.846  11.488 -0.5522  0.2706  0.3837
 1338TIP3    H225430   2.984   3.701  11.460  0.3670  0.0783  0.3084
 1339TIP3   OH225431   4.014   2.756  10.870  0.7285 -0.0501  0.7342
 1339TIP3    H125432   3.935   2.794  10.831  1.2137 -0.7557 -1.0244
 1339TIP3    H225433   4.064   2.832  10.902  1.1262  0.7678 -1.6474
 1340TIP3   OH225434   6.403   1.423  10.081 -0.3299  0.2427 -0.0228
 1340TIP3    H125435   6.475   1.365  10.056 -0.6103  0.1136 -0.5252
 1340TIP3    H225436   6.443   1.510  10.086 -0.1553  0.1811 -0.3630
 1341TIP3   OH225437   4.411   1.853  10.323 -0.0120 -0.0672 -0.2013
 1341TIP3    H125438   4.483   1.876  10.263 -0.7434  1.7992 -0.4359
 1341TIP3    H225439   4.441   1.885  10.408 -0.2842  0.1383 -0.1815
 1342TIP3   OH225440   5.692   5.016   0.927  0.3436 -0.4583  0.6718
 1342TIP3    H125441   5.775   5.045   0.891  0.3967 -0.6937  0.6034
 1342TIP3    H225442   5.681   4.927   0.894 -0.5665  0.0253 -0.3975
 1343TIP3   OH225443   1.958   1.384  11.357  0.5837  0.5504 -0.0300
 1343TIP3    H125444   2.007   1.458  11.321  0.9758 -0.4967 -1.7074
 1343TIP3    H225445   1.867   1.402  11.332  0.4965  1.0614  0.6251
 1344TIP3   OH225446   0.267   6.405  11.208  0.2244  0.4005 -0.1170
 1344TIP3    H125447   0.254   6.354  11.128  0.0123  0.8654 -0.3823
 1344TIP3    H225448   0.362   6.412  11.216  0.2376  1.0713 -0.7946
 1345TIP3   OH225449   6.505   1.306  11.891  0.1085  0.0054  0.6446
 1345TIP3    H125450   6.462   1.227  11.924  2.2601 -2.1073 -1.1863
 1345TIP3    H225451   6.510   1.292  11.796  2.9672  0.9758  0.5441
 1346TIP3   OH225452   6.176   3.733  14.742 -0.3430  0.2847  0.1780
 1346TIP3    H125453   6.172   3.769  14.654  1.2143  1.4861  0.5386
 1346TIP3    H225454   6.107   3.779  14.790 -2.1286 -1.3810 -0.7038
 1347TIP3   OH225455   2.551   6.197   0.072  0.2163 -0.3672 -0.5965
 1347TIP3    H125456   2.558   6.281   0.118 -0.6898 -0.4923 -0.2246
 1347TIP3    H225457   2.570   6.132   0.139  0.0298 -0.4989 -0.6716
 1348TIP3   OH225458   3.166   0.003  10.360 -0.1353 -0.2710  0.4154
 1348TIP3    H125459   3.216   0.034  10.284  0.4008 -1.4689  0.2644
 1348TIP3    H225460   3.077   0.035  10.344  0.3469  1.0735  0.2170
 1349TIP3   OH225461   1.461   5.186   0.766 -0.1112 -0.0109 -0.1398
 1349TIP3    H125462   1.405   5.133   0.710  0.5993  0.2290 -1.1084
 1349TIP3    H225463   1.546   5.141   0.764  0.1163  0.3986  0.1455
 1350TIP3   OH225464   1.967   6.968  10.814  0.7624 -0.1808  0.5069
 1350TIP3    H125465   1.951   7.009  10.729 -1.7965  1.4838  1.6813
 1350TIP3    H225466   2.036   6.904  10.797 -0.5897 -0.9063 -3.0980
 1351TIP3   OH225467   6.372   4.525  11.468  0.1246 -0.7244 -0.0506
 1351TIP3    H125468   6.394   4.483  11.385 -1.5877  0.8032 -1.3480
 1351TIP3    H225469   6.278   4.537  11.466  0.2424  0.8735  1.3763
 1352TIP3   OH225470   2.131   6.616   2.001 -0.1356 -0.3678  0.2004
 1352TIP3    H125471   2.118   6.690   2.060 -1.5039 -1.4090  1.2714
 1352TIP3    H225472   2.043   6.592   1.973  0.3769 -0.9509 -0.9522
 1353TIP3   OH225473   0.721   1.367  12.993  0.6417 -0.1602 -0.4262
 1353TIP3    H125474   0.679   1.361  13.079  1.7221  2.8455  0.4184
 1353TIP3    H225475   0.790   1.301  12.996 -1.4576 -2.5414 -0.4272
 1354TIP3   OH225476   2.775   5.725  10.769 -0.3939  0.5490 -0.8020
 1354TIP3    H125477   2.835   5.794  10.739  0.4197  0.1048 -0.2482
 1354TIP3    H225478   2.812   5.644  10.732 -1.3523  0.3987 -1.4670
 1355TIP3   OH225479   1.532   5.306   0.290 -0.3315 -0.0250  0.0458
 1355TIP3    H125480   1.471   5.271   0.225  0.2401  1.9991 -1.6854
 1355TIP3    H225481   1.476   5.338   0.360 -1.1903  0.5292 -0.8718
 1356TIP3   OH225482   7.027   0.056  11.179  0.2463  0.2193 -0.2616
 1356TIP3    H125483   6.968  -0.002  11.227  1.5586 -0.1285  0.9759
 1356TIP3    H225484   7.032   0.017  11.091 -0.1703 -0.6051  0.0717
 1357TIP3   OH225485   2.172   4.059  11.499  0.0178  0.1871 -0.1760
 1357TIP3    H125486   2.156   4.011  11.580  1.5956  1.4063  0.9213
 1357TIP3    H225487   2.253   4.021  11.464  0.9378  1.5459  0.3780
 1358TIP3   OH225488   0.997   3.751  10.964  0.6035 -0.5412 -0.3101
 1358TIP3    H125489   0.928   3.806  10.927  0.5260 -1.3288 -1.3664
 1358TIP3    H225490   0.967   3.733  11.053  0.2978  0.5474 -0.1758
 1359TIP3   OH225491   0.293   3.721  11.837 -0.4519  0.1331 -0.0681
 1359TIP3    H125492   0.338   3.716  11.921 -0.2589  2.0876 -0.0068
 1359TIP3    H225493   0.208   3.760  11.858 -1.5342 -1.8852 -0.4301
 1360TIP3   OH225494   0.103   5.122  15.144 -0.5542  0.3172  0.0321
 1360TIP3    H125495   0.149   5.078  15.073 -0.3450 -3.4709  2.3021
 1360TIP3    H225496   0.170   5.142  15.209 -1.4502 -2.0897  1.8436
 1361TIP3   OH225497   6.600   3.103  14.761 -0.2349  0.3003 -0.3736
 1361TIP3    H125498   6.541   3.101  14.837  1.2582  1.1049  0.8491
 1361TIP3    H225499   6.685   3.076  14.796  0.9134  2.4542 -1.3134
 1362TIP3   OH225500   6.821   0.160   0.848  0.4785  0.4355  0.4014
 1362TIP3    H125501   6.839   0.117   0.931  1.7673 -1.0952 -0.6078
 1362TIP3    H225502   6.895   0.136   0.792  0.6892  3.0652 -0.6057
 1363TIP3   OH225503   0.302   5.858  12.713 -0.5620  0.2676 -0.0383
 1363TIP3    H125504   0.325   5.816  12.630  1.1436  0.2143  0.4135
 1363TIP3    H225505   0.385   5.864  12.760 -1.0948  2.4087  0.7176
 1364TIP3   OH225506   5.977   3.644  12.458  0.0113  0.0378  0.2901
 1364TIP3    H125507   5.912   3.696  12.411  0.1905 -0.2804 -0.3260
 1364TIP3    H225508   5.943   3.554  12.453 -0.4907  0.1395  1.6741
 1365TIP3   OH225509   3.299   4.419  13.151 -0.3719 -0.6707 -0.4676
 1365TIP3    H125510   3.288   4.325  13.165 -2.0185 -0.5978 -1.0319
 1365TIP3    H225511   3.341   4.426  13.065 -0.8934 -0.8906 -0.7466
 1366TIP3   OH225512   3.733   6.408  11.368  0.1841  0.1258  0.3036
 1366TIP3    H125513   3.695   6.394  11.281  0.0984 -0.0473  0.3687
 1366TIP3    H225514   3.698   6.492  11.397 -1.5359 -0.8010  1.0859
 1367TIP3   OH225515   4.102   5.701  14.282  0.1014 -0.2339  0.0954
 1367TIP3    H125516   4.111   5.632  14.216  0.0665  0.6878 -0.9004
 1367TIP3    H225517   4.110   5.782  14.233 -1.8808  0.5156  0.9093
 1368TIP3   OH225518   6.425   5.096  10.760 -0.4720  0.4329  0.2625
 1368TIP3    H125519   6.401   5.168  10.703  0.7197 -0.6374 -1.6688
 1368TIP3    H225520   6.519   5.086  10.749 -0.8729 -2.8120 -1.3191
 1369TIP3   OH225521   0.807   0.274   9.541  0.4232 -0.1868  0.0181
 1369TIP3    H125522   0.774   0.348   9.592 -0.2558 -0.3838 -0.1265
 1369TIP3    H225523   0.890   0.250   9.584 -0.4860 -0.8260  1.5057
 1370TIP3   OH225524   6.262   2.768  12.530 -0.2306 -0.8691 -0.3066
 1370TIP3    H125525   6.225   2.708  12.595 -1.2534 -0.7337 -0.7346
 1370TIP3    H225526   6.263   2.718  12.449  2.1816 -1.4438  0.0262
 1371TIP3   OH225527   2.307   6.211  10.912  0.2482 -0.3383  0.2387
 1371TIP3    H125528   2.251   6.286  10.933  0.7062  0.0721  0.0115
 1371TIP3    H225529   2.271   6.177  10.830  0.8631  0.4729 -0.3846
 1372TIP3   OH225530   5.521   6.994  10.700 -0.0144  0.1306 -0.3244
 1372TIP3    H125531   5.568   6.918  10.735  0.1313 -0.5152 -1.8381
 1372TIP3    H225532   5.588   7.043  10.651 -0.3974  0.5463 -0.4360
 1373TIP3   OH225533   5.732   0.614  11.824  0.1334 -0.5741 -0.6842
 1373TIP3    H125534   5.687   0.678  11.880  0.8452  0.8895 -1.7237
 1373TIP3    H225535   5.819   0.607  11.863 -0.4304 -2.2188  0.3979
 1374TIP3   OH225536   4.482   1.899  10.603  0.0412  0.0760 -0.2160
 1374TIP3    H125537   4.510   1.911  10.694  2.4133 -0.0875 -0.8699
 1374TIP3    H225538   4.419   1.827  10.607 -1.1986  1.1714  1.4697
 1375TIP3   OH225539   4.507   4.255  14.419 -0.3826 -0.5251  0.1233
 1375TIP3    H125540   4.418   4.284  14.437 -1.1238 -1.8570 -1.2092
 1375TIP3    H225541   4.540   4.222  14.503 -1.4705 -0.8582  0.4267
 1376TIP3   OH225542   2.358   5.050  14.120 -0.0868  0.2215  0.0316
 1376TIP3    H125543   2.411   5.120  14.159  0.4598 -0.5887  0.7867
 1376TIP3    H225544   2.268   5.082  14.126 -0.0998 -0.0822  2.5243
 1377TIP3   OH225545   5.011   2.394   5.457  0.3266  0.2239  0.1576
 1377TIP3    H125546   5.101   2.428   5.459 -0.0287  1.3393 -1.3292
 1377TIP3    H225547   4.999   2.354   5.543  1.8129  1.1973  0.8670
 1378TIP3   OH225548   1.974   2.431   4.480  0.0191 -0.2505  0.1107
 1378TIP3    H125549   1.945   2.371   4.411  0.2254 -0.6929  0.4082
 1378TIP3    H225550   1.907   2.424   4.548  0.0039 -0.0858  0.1135
 1379TIP3   OH225551   6.880   1.409  10.249  0.1142 -0.1951  0.1880
 1379TIP3    H125552   6.845   1.444  10.167 -1.3753  1.2209  1.3532
 1379TIP3    H225553   6.922   1.326  10.225 -2.1158 -0.8688 -1.6772
 1380TIP3   OH225554   2.967   6.551   9.845 -0.4947 -0.3705  0.6060
 1380TIP3    H125555   2.918   6.485   9.796 -1.4337 -0.3135  1.4390
 1380TIP3    H225556   3.058   6.523   9.837 -0.6352 -0.4848 -0.9649
 1381TIP3   OH225557   5.278   4.383  14.890 -0.0037 -0.6898 -0.1546
 1381TIP3    H125558   5.196   4.432  14.883  0.5381  0.1594 -0.8319
 1381TIP3    H225559   5.269   4.333  14.971 -1.0522 -0.3508 -0.0455
 1382TIP3   OH225560   0.458   1.108  11.176  0.2759  0.6433 -0.1492
 1382TIP3    H125561   0.550   1.085  11.166 -0.0033 -0.7197  0.0733
 1382TIP3    H225562   0.425   1.044  11.239 -0.6969  1.4714  0.2023
 1383TIP3   OH225563   1.201   3.105  12.507 -0.4699 -0.0838  0.0495
 1383TIP3    H125564   1.132   3.072  12.564  0.3981 -0.3441  0.9808
 1383TIP3    H225565   1.281   3.101  12.561  0.4207 -0.5485 -1.2541
 1384TIP3   OH225566   3.314   7.043   0.736 -0.0313 -0.0092 -0.5312
 1384TIP3    H125567   3.316   7.135   0.764  1.4368 -0.3333  0.6002
 1384TIP3    H225568   3.282   7.045   0.646 -1.5504  1.4492 -0.0122
 1385TIP3   OH225569   0.330   5.013   1.817  0.3247  0.2963 -0.0190
 1385TIP3    H125570   0.369   4.928   1.798  0.2865  0.3982 -0.5643
 1385TIP3    H225571   0.285   5.038   1.736 -2.5805 -0.7273  1.1356
 1386TIP3   OH225572   6.138   4.324  13.381 -0.1441  0.3061 -0.4968
 1386TIP3    H125573   6.052   4.337  13.341 -0.3211  0.0806 -0.2018
 1386TIP3    H225574   6.179   4.410  13.378 -0.1793  0.3056 -1.0927
 1387TIP3   OH225575   0.979   5.037  10.326  0.4041  0.6857  0.5071
 1387TIP3    H125576   0.989   5.004  10.237  3.0181  1.0741  0.5718
 1387TIP3    H225577   0.974   4.958  10.380  0.0844  0.4426  0.1275
 1388TIP3   OH225578   1.678   6.243   9.861 -0.2916  0.5940  0.5000
 1388TIP3    H125579   1.722   6.328   9.875  3.5099 -1.2695  1.3131
 1388TIP3    H225580   1.641   6.222   9.947 -0.9355  1.2416  0.3913
 1389TIP3   OH225581   0.713   6.458   2.562 -0.5851 -0.2541 -0.2541
 1389TIP3    H125582   0.806   6.440   2.548 -0.5040 -1.3430  1.4305
 1389TIP3    H225583   0.700   6.450   2.656 -1.8801  2.5811 -0.0824
 1390TIP3   OH225584   4.532   2.391  11.424  0.0862  0.3415 -0.2688
 1390TIP3    H125585   4.466   2.359  11.485  0.3788 -0.8207 -0.5390
 1390TIP3    H225586   4.498   2.369  11.337  0.4001  0.5638 -0.4530
 1391TIP3   OH225587   3.018   4.249  11.229 -0.4455  0.1185  0.1174
 1391TIP3    H125588   2.987   4.334  11.260 -0.3301  1.4597 -3.1123
 1391TIP3    H225589   2.938   4.201  11.207 -0.4736 -0.2330  0.9502
 1392TIP3   OH225590   2.950   5.040  12.002  0.2151  0.1316 -0.2180
 1392TIP3    H125591   2.912   4.963  12.043 -0.8703  0.6784 -0.1271
 1392TIP3    H225592   3.038   5.047  12.037 -0.2416 -0.1532  1.0140
 1393TIP3   OH225593   2.530   6.480  12.046 -0.3472  0.2692 -0.5915
 1393TIP3    H125594   2.530   6.441  12.133 -0.3305 -1.2624 -1.2329
 1393TIP3    H225595   2.453   6.536  12.044 -0.6218 -0.0606  0.2453
 1394TIP3   OH225596   4.069   3.823  11.584  0.2200  0.1141 -0.5530
 1394TIP3    H125597   4.039   3.764  11.515 -1.8868  0.9058 -0.3750
 1394TIP3    H225598   4.128   3.883  11.540 -0.7520  0.3334 -1.6020
 1395TIP3   OH225599   6.086   6.380   0.008  0.3309 -0.1571  0.2285
 1395TIP3    H125600   6.154   6.420  -0.047 -0.6023  0.4600 -0.5166
 1395TIP3    H225601   6.061   6.450   0.068 -1.2100  0.3789 -0.9857
 1396TIP3   OH225602   1.985   2.523  11.822  0.4680  0.7239 -0.3243
 1396TIP3    H125603   1.979   2.525  11.917  2.0944 -1.6147 -0.0852
 1396TIP3    H225604   2.046   2.593  11.799  3.0526 -1.0068  0.7863
 1397TIP3   OH225605   0.191   1.822  10.800  0.0709  0.1794  0.6660
 1397TIP3    H125606   0.181   1.762  10.726 -2.2673 -0.0749  1.1222
 1397TIP3    H225607   0.183   1.766  10.877 -4.9346  1.1336  1.1959
 1398TIP3   OH225608   0.081   6.876   5.356  0.7235 -0.0742  0.2655
 1398TIP3    H125609   0.099   6.943   5.422  0.4234 -0.7328  1.0352
 1398TIP3    H225610  -0.004   6.840   5.380  0.5149 -0.1912 -0.6075
 1399TIP3   OH225611   3.522   4.488  10.086  0.0659  0.4530  0.0740
 1399TIP3    H125612   3.460   4.486  10.160 -0.2117 -3.6661 -0.0440
 1399TIP3    H225613   3.466   4.504  10.010 -0.5014 -0.4187  0.2788
 1400TIP3   OH225614   0.870   6.430  10.480 -0.5424 -0.3996  0.2059
 1400TIP3    H125615   0.959   6.438  10.445 -1.2962  0.2303 -1.6655
 1400TIP3    H225616   0.876   6.467  10.569  0.7322  1.0823 -0.4472
 1401TIP3   OH225617   1.823   6.391   9.617  0.2886  0.7650 -0.2405
 1401TIP3    H125618   1.733   6.396   9.650  0.1428 -2.3047  0.1266
 1401TIP3    H225619   1.818   6.432   9.530 -1.7038 -0.1250 -0.6086
 1402TIP3   OH225620   6.172   1.885  13.457 -0.2426 -0.9601 -0.5428
 1402TIP3    H125621   6.252   1.931  13.431  0.1211  0.3188  2.4262
 1402TIP3    H225622   6.164   1.903  13.551 -4.0527 -1.0046 -0.7239
 1403TIP3   OH225623   2.546   2.579  11.078 -0.1258 -0.0040  0.5165
 1403TIP3    H125624   2.624   2.618  11.038  0.5585 -1.2906  0.5160
 1403TIP3    H225625   2.496   2.653  11.112  1.2885  0.8430  0.8426
 1404TIP3   OH225626   1.570   0.935  12.137  0.2263  0.8185  0.1052
 1404TIP3    H125627   1.526   0.934  12.051 -0.9522 -2.7205  0.5915
 1404TIP3    H225628   1.511   0.987  12.192 -0.4320  0.8641 -0.6121
 1405TIP3   OH225629   4.094   6.065   1.356 -0.1495  0.5302  0.2457
 1405TIP3    H125630   4.053   6.082   1.440 -2.1572  0.0342 -0.5783
 1405TIP3    H225631   4.115   5.972   1.357 -1.9464  0.0796 -0.4818
 1406TIP3   OH225632   1.625   1.682  14.448 -0.1635  0.0901 -0.4269
 1406TIP3    H125633   1.657   1.596  14.421 -0.3773  0.0699 -0.6257
 1406TIP3    H225634   1.627   1.734  14.367 -0.9569 -0.0150 -0.5247
 1407TIP3   OH225635   0.925   5.642  10.046 -0.5842  0.3216 -0.3148
 1407TIP3    H125636   0.929   5.553  10.079 -0.4707  0.0414 -1.0615
 1407TIP3    H225637   1.006   5.653   9.996  1.1837  2.0184  2.6115
 1408TIP3   OH225638   5.705   3.618  10.024  0.0538  0.4090 -0.1442
 1408TIP3    H125639   5.732   3.582   9.940 -0.5046  0.6098 -0.4157
 1408TIP3    H225640   5.639   3.557  10.057 -1.3580  1.4573 -0.8958
 1409TIP3   OH225641   2.590   6.374  14.708  0.0853  0.9344 -0.6486
 1409TIP3    H125642   2.570   6.428  14.785  0.7681  0.8769 -0.4192
 1409TIP3    H225643   2.683   6.354  14.717  0.1110  0.7179 -1.3672
 1410TIP3   OH225644   3.063   3.352  14.803 -0.1028 -0.4879 -0.3392
 1410TIP3    H125645   3.006   3.424  14.833 -1.1824 -1.4037 -0.1100
 1410TIP3    H225646   3.015   3.314  14.729  0.8066 -0.5251 -0.9133
 1411TIP3   OH225647   5.746   6.948   9.644 -0.7882 -0.0946  0.5646
 1411TIP3    H125648   5.761   7.001   9.566  1.5275  0.5703  1.3633
 1411TIP3    H225649   5.830   6.904   9.659 -0.1677  1.9046  4.1399
 1412TIP3   OH225650   0.403   1.200   9.788  0.3756  0.4365  0.1098
 1412TIP3    H125651   0.334   1.134   9.783  0.3030  0.5793 -2.2447
 1412TIP3    H225652   0.373   1.271   9.730  2.0011  0.9630 -0.1569
 1413TIP3   OH225653   7.136   6.541  15.050 -0.5358 -0.1046  0.1360
 1413TIP3    H125654   7.094   6.621  15.082 -1.4895  0.4421 -2.2563
 1413TIP3    H225655   7.228   6.565  15.039 -0.4022  0.0066  1.3318
 1414TIP3   OH225656   3.861   3.386  12.847  0.2457 -0.4766  0.3552
 1414TIP3    H125657   3.794   3.320  12.866  0.0573 -0.0273  1.3144
 1414TIP3    H225658   3.827   3.435  12.772 -0.3388 -0.4837  0.6145
 1415TIP3   OH225659   2.068   2.311  12.905  0.4381 -0.4324  0.2184
 1415TIP3    H125660   2.092   2.222  12.879  0.4273 -0.3447 -0.0926
 1415TIP3    H225661   1.981   2.325  12.867 -0.0362 -0.6768  1.1719
 1416TIP3   OH225662   5.980   6.005  11.876 -0.7120  0.0193 -0.3849
 1416TIP3    H125663   6.048   6.069  11.854  0.5039 -0.9882  0.3081
 1416TIP3    H225664   5.978   6.004  11.971 -3.1020  1.4069 -0.3268
 1417TIP3   OH225665   4.882   5.495  12.147  0.4292  0.5774  0.7476
 1417TIP3    H125666   4.948   5.534  12.089  0.9172 -0.1022  0.8336
 1417TIP3    H225667   4.862   5.564  12.209  1.9540  0.4365  1.4500
 1418TIP3   OH225668   1.219   3.944   9.852  0.0624  0.0981 -0.4389
 1418TIP3    H125669   1.132   3.922   9.818 -0.7965  3.0657 -0.3863
 1418TIP3    H225670   1.278   3.883   9.808 -1.3830  1.4493 -4.7205
 1419TIP3   OH225671   6.571   4.772   0.452 -0.0627  0.2734 -0.1811
 1419TIP3    H125672   6.594   4.689   0.495 -0.5722  0.2011 -0.0386
 1419TIP3    H225673   6.477   4.782   0.469 -0.6389 -0.5218 -2.5900
 1420TIP3   OH225674   6.448   6.375  11.304 -0.1715  0.3779 -0.2605
 1420TIP3    H125675   6.425   6.371  11.211 -1.1776 -0.1576 -0.0062
 1420TIP3    H225676   6.437   6.285  11.334  1.9503  0.1457 -0.0122
 1421TIP3   OH225677   2.062   6.569  13.229 -0.0523 -0.6306  0.2225
 1421TIP3    H125678   2.011   6.647  13.251  0.3590  0.0608 -1.1390
 1421TIP3    H225679   2.153   6.596  13.243  0.0303 -1.3543  1.1520
 1422TIP3   OH225680   0.456   4.519  12.509 -0.5392  0.4203 -0.4872
 1422TIP3    H125681   0.404   4.520  12.429  0.1943  1.0988 -0.9688
 1422TIP3    H225682   0.545   4.542  12.480  0.0835 -0.9043  0.2785
 1423TIP3   OH225683   5.734   3.712  11.438 -0.4437  0.5071 -0.8552
 1423TIP3    H125684   5.768   3.687  11.352 -1.5452  0.2496 -1.2309
 1423TIP3    H225685   5.811   3.715  11.494  0.1719 -0.2889 -1.6268
 1424TIP3   OH225686   3.651   0.459   4.162  0.5266  0.1434  0.2705
 1424TIP3    H125687   3.558   0.439   4.165  0.5982 -0.0674  1.4134
 1424TIP3    H225688   3.693   0.375   4.143  0.5803 -0.1055  1.4136
 1425TIP3   OH225689   2.860   0.437   0.455 -0.0649  0.1603 -0.7046
 1425TIP3    H125690   2.788   0.375   0.445  0.0876  0.2026 -2.4582
 1425TIP3    H225691   2.935   0.383   0.479 -0.6621  0.1254  1.1888
 1426TIP3   OH225692   5.823   3.392  12.465  0.1527  0.0724 -0.1848
 1426TIP3    H125693   5.807   3.408  12.558  0.1209  0.0823 -0.1917
 1426TIP3    H225694   5.746   3.343  12.436  2.1354 -4.1092  0.8498
 1427TIP3   OH225695   6.452   0.409  15.197 -0.1357 -0.1646  0.5414
 1427TIP3    H125696   6.378   0.386  15.253 -0.4186 -0.1059  0.1963
 1427TIP3    H225697   6.427   0.379  15.110 -0.4218  1.2155  0.1215
 1428TIP3   OH225698   2.141   5.371  10.830  0.3638  0.2438 -0.1367
 1428TIP3    H125699   2.206   5.301  10.831  0.0033 -0.1007  1.4171
 1428TIP3    H225700   2.062   5.331  10.866 -0.4473  0.9201 -1.1102
 1429TIP3   OH225701   0.847   5.089  12.646  0.0648 -0.3283  0.1929
 1429TIP3    H125702   0.908   5.027  12.606  0.8687  0.4898  0.1361
 1429TIP3    H225703   0.902   5.153  12.691 -0.6271  1.4360 -1.3194
 1430TIP3   OH225704   2.825   3.422   1.830  0.4382 -0.3780  0.8596
 1430TIP3    H125705   2.750   3.392   1.779  1.3199 -0.3631 -0.4940
 1430TIP3    H225706   2.804   3.512   1.854  0.4233 -0.0482 -0.3470
 1431TIP3   OH225707   0.563   0.823   1.410 -0.7104  0.6518  0.4811
 1431TIP3    H125708   0.495   0.766   1.443 -1.7978  0.5872 -1.7127
 1431TIP3    H225709   0.592   0.783   1.328  0.7652  1.5846  0.4856
 1432TIP3   OH225710   4.160   2.961  11.754 -0.5385  0.0521 -0.2778
 1432TIP3    H125711   4.156   3.055  11.735 -0.7606  0.6564  2.3716
 1432TIP3    H225712   4.249   2.936  11.730  0.7456  1.8034  2.1871
 1433TIP3   OH225713   6.014   5.537   9.360 -0.3730  0.5103  0.1316
 1433TIP3    H125714   6.105   5.518   9.337 -0.5605 -2.1389  1.1803
 1433TIP3    H225715   6.011   5.632   9.371  2.0196  0.7775 -0.8381
 1434TIP3   OH225716   5.380   0.441  11.828 -0.6468 -0.1057 -0.1609
 1434TIP3    H125717   5.405   0.472  11.915  1.8823 -0.7414 -0.6030
 1434TIP3    H225718   5.379   0.346  11.836  0.1832 -0.1917 -0.9453
 1435TIP3   OH225719   2.610   3.215   0.762  0.1131  0.3384  0.4626
 1435TIP3    H125720   2.581   3.214   0.671  1.8190 -1.8902 -0.1490
 1435TIP3    H225721   2.535   3.185   0.812 -0.0852 -0.9555 -0.5466
 1436TIP3   OH225722   2.455   4.908  10.125 -0.1191 -0.2446 -0.5793
 1436TIP3    H125723   2.477   4.816  10.112  0.0894 -0.3190  0.2526
 1436TIP3    H225724   2.434   4.914  10.218  1.4590  0.8663 -0.2527
 1437TIP3   OH225725   5.912   1.556  13.265  0.4057  0.5232 -0.0988
 1437TIP3    H125726   6.003   1.552  13.291  0.7200  0.7078 -1.1020
 1437TIP3    H225727   5.911   1.619  13.192 -0.4519  0.2467 -0.3395
 1438TIP3   OH225728   2.176   4.170   3.555 -0.3043  0.5519  0.3349
 1438TIP3    H125729   2.146   4.191   3.643  0.6520  0.1338  0.7832
 1438TIP3    H225730   2.166   4.075   3.548 -1.6442  0.7335 -0.5183
 1439TIP3   OH225731   6.222   0.388   9.846 -0.3113  0.0391  0.6372
 1439TIP3    H125732   6.296   0.432   9.804 -2.5687  1.0699 -2.6232
 1439TIP3    H225733   6.145   0.424   9.803 -2.6006 -3.5928  1.2714
 1440TIP3   OH225734   1.346   6.004  11.627 -0.5250  0.0209  0.4910
 1440TIP3    H125735   1.367   6.060  11.701  0.8021  0.4028 -0.1448
 1440TIP3    H225736   1.259   6.033  11.598 -0.4491  0.8012  1.0317
 1441TIP3   OH225737   4.442   6.797  11.500  0.0554  0.4441 -0.0439
 1441TIP3    H125738   4.521   6.834  11.459 -0.0862  0.5411 -0.2296
 1441TIP3    H225739   4.466   6.707  11.520  0.3626  0.5968  0.2982
 1442TIP3   OH225740   6.609   5.891  11.595 -0.1646  0.3087 -0.2059
 1442TIP3    H125741   6.615   5.843  11.678  0.9945 -0.7366 -0.8711
 1442TIP3    H225742   6.677   5.853  11.540 -1.3900  0.4838 -1.9075
 1443TIP3   OH225743   1.122   3.607  10.765  0.6052  0.4286  0.4189
 1443TIP3    H125744   1.083   3.649  10.842  2.0374  0.4682  1.1658
 1443TIP3    H225745   1.051   3.557  10.727 -0.3651  1.1021  1.2755
 1444TIP3   OH225746   5.863   6.320  10.150 -0.4988 -0.1918  0.0707
 1444TIP3    H125747   5.813   6.277  10.219  1.2079 -0.6384  1.0835
 1444TIP3    H225748   5.951   6.332  10.188 -0.3955  2.5167 -0.8267
 1445TIP3   OH225749   6.165   5.947  11.028  0.5160 -0.0448  0.6471
 1445TIP3    H125750   6.201   6.014  10.970  0.5268  0.1756  0.9067
 1445TIP3    H225751   6.154   5.870  10.972  2.7292 -0.5892  0.8746
 1446TIP3   OH225752   4.753   4.595  14.026  0.3587  0.2020 -0.4815
 1446TIP3    H125753   4.798   4.555  13.952 -2.1649 -4.1310  0.0014
 1446TIP3    H225754   4.661   4.594  14.003 -0.2071  2.8353  1.1117
 1447TIP3   OH225755   5.092   1.259  11.573 -0.1042 -0.2967 -0.5114
 1447TIP3    H125756   5.174   1.210  11.563 -1.4201 -2.4093 -1.7423
 1447TIP3    H225757   5.057   1.230  11.657 -0.2108 -0.4040 -0.5926
 1448TIP3   OH225758   3.968   5.130  12.147 -0.7669  0.1221 -0.1852
 1448TIP3    H125759   4.062   5.145  12.140 -0.5806  0.1789  1.9912
 1448TIP3    H225760   3.958   5.035  12.134 -0.4921  0.1814 -0.9091
 1449TIP3   OH225761   6.753   1.993  12.164  0.0309 -0.1831  0.0803
 1449TIP3    H125762   6.758   1.931  12.092  1.0129 -0.6503  0.5283
 1449TIP3    H225763   6.752   2.079  12.122  0.5670 -0.4537 -0.5023
 1450TIP3   OH225764   1.942   2.294   0.226 -0.5718  0.1963  0.2086
 1450TIP3    H125765   1.859   2.249   0.210 -0.1354 -0.3015 -0.7113
 1450TIP3    H225766   1.977   2.252   0.304  0.6852 -2.4066 -1.6082
 1451TIP3   OH225767   4.319   2.665  13.147 -0.3637 -0.3135 -0.4234
 1451TIP3    H125768   4.364   2.582  13.164  1.3319  0.9703  1.8674
 1451TIP3    H225769   4.292   2.696  13.234 -0.6006  1.7415 -1.1667
 1452TIP3   OH225770   4.626   4.309  15.121 -0.8833 -0.3212  0.0195
 1452TIP3    H125771   4.684   4.350  15.056 -0.4690  0.8390  1.0861
 1452TIP3    H225772   4.551   4.368  15.125 -2.0619 -1.6709 -1.1529
 1453TIP3   OH225773   4.944   5.573  13.232 -0.0707  0.3492 -0.3022
 1453TIP3    H125774   4.862   5.621  13.219 -0.6460 -0.6213 -0.4237
 1453TIP3    H225775   4.934   5.532  13.317  0.3953  0.4186 -0.2148
 1454TIP3   OH225776   6.914   5.341  11.080 -0.3592  0.2187 -0.5174
 1454TIP3    H125777   6.912   5.284  11.156 -0.0598  0.4066 -0.3662
 1454TIP3    H225778   6.825   5.340  11.046 -0.0900 -1.3459 -1.2637
 1455TIP3   OH225779   4.249   1.180   2.315 -0.0772  0.4429  0.4314
 1455TIP3    H125780   4.187   1.108   2.311 -1.4397  1.5680 -3.5152
 1455TIP3    H225781   4.326   1.147   2.269 -0.5752  1.3008 -1.0771
 1456TIP3   OH225782   5.970   6.584   2.519  0.5178  0.6564  0.1537
 1456TIP3    H125783   5.900   6.610   2.579 -0.5246  0.4428 -0.9231
 1456TIP3    H225784   5.964   6.489   2.514  1.8221  0.5010  1.1270
 1457TIP3   OH225785   6.864   4.402  14.107  0.5845  0.1274  0.7191
 1457TIP3    H125786   6.852   4.347  14.184  0.1321 -0.2046  0.4179
 1457TIP3    H225787   6.801   4.473  14.117 -1.4938 -1.3868 -0.6519
 1458TIP3   OH225788   4.848   5.139  14.216  0.3718 -0.2094 -0.5097
 1458TIP3    H125789   4.913   5.182  14.272  0.4269 -0.0847 -0.6711
 1458TIP3    H225790   4.892   5.127  14.132 -0.3214  1.3191 -1.1287
 1459TIP3   OH225791   3.152   2.559  13.885 -0.6241 -0.6457  0.3249
 1459TIP3    H125792   3.192   2.477  13.858  1.1114 -0.3799  1.8376
 1459TIP3    H225793   3.100   2.537  13.962  0.4077 -0.2821  1.1663
 1460TIP3   OH225794   6.284   6.047  14.895 -0.2255 -0.0808 -0.8104
 1460TIP3    H125795   6.312   6.123  14.844  0.3548 -0.2359 -0.7321
 1460TIP3    H225796   6.190   6.059  14.906 -0.2363  0.3242 -1.3002
 1461TIP3   OH225797   5.312   2.456  11.711 -0.9228  0.3956  0.0918
 1461TIP3    H125798   5.326   2.457  11.617  0.6427  1.3194  0.2921
 1461TIP3    H225799   5.349   2.373  11.741 -1.6725 -0.0256 -0.1123
 1462TIP3   OH225800   0.264   5.186   9.830 -0.2375 -0.4839 -0.6121
 1462TIP3    H125801   0.332   5.195   9.763 -0.9730  0.4583 -1.2559
 1462TIP3    H225802   0.207   5.116   9.798 -0.1374 -0.5930 -0.5559
 1463TIP3   OH225803   3.103   3.309  13.549  0.2608 -0.3168 -0.3511
 1463TIP3    H125804   3.103   3.349  13.462 -1.2017 -0.0077 -0.2360
 1463TIP3    H225805   3.181   3.343  13.592  0.1923  0.7128 -1.0283
 1464TIP3   OH225806   1.113   3.667   4.712  0.0399 -0.4009  0.8194
 1464TIP3    H125807   1.051   3.694   4.644  0.9656 -0.2824 -0.0004
 1464TIP3    H225808   1.169   3.603   4.669  2.0096  1.2386  0.7803
 1465TIP3   OH225809   5.034   7.116  11.574  0.5060  0.2963 -0.4260
 1465TIP3    H125810   5.072   7.195  11.612  0.0685  1.0508 -1.4738
 1465TIP3    H225811   4.950   7.106  11.618  1.0276 -0.2061  0.4638
 1466TIP3   OH225812   5.530   6.862  13.272  0.6092  0.2514  0.2207
 1466TIP3    H125813   5.577   6.815  13.203 -3.1894 -2.6446 -0.7072
 1466TIP3    H225814   5.571   6.832  13.353  2.6649  0.7563 -0.5538
 1467TIP3   OH225815   2.347   5.259  12.444  0.1419  0.1999 -0.1437
 1467TIP3    H125816   2.290   5.328  12.410  1.1147  1.8068  1.3184
 1467TIP3    H225817   2.429   5.305  12.467  0.6068 -1.3205  1.4341
 1468TIP3   OH225818   5.340   3.658  10.288 -0.1217  0.2614 -0.1906
 1468TIP3    H125819   5.250   3.638  10.264 -0.0602 -0.5795  0.2341
 1468TIP3    H225820   5.382   3.685  10.206  0.0510 -2.3740 -1.0710
 1469TIP3   OH225821   3.901   1.549   9.863  0.5555  0.2212  0.7530
 1469TIP3    H125822   3.833   1.482   9.869 -0.1418  0.8996  0.5737
 1469TIP3    H225823   3.895   1.596   9.946 -0.0544  1.0826  0.2335
 1470TIP3   OH225824   0.646   5.616  14.680 -0.8641  0.3844  0.6228
 1470TIP3    H125825   0.732   5.600  14.719 -0.5717 -0.5083 -0.3327
 1470TIP3    H225826   0.585   5.572  14.740 -0.4791 -0.4312  0.4418
 1471TIP3   OH225827   4.389   5.326  14.330 -0.1999  0.0781  0.2889
 1471TIP3    H125828   4.377   5.383  14.253 -0.2071 -0.4625 -0.1154
 1471TIP3    H225829   4.306   5.331  14.377 -0.8403 -0.9823 -0.6899
 1472TIP3   OH225830   2.062   3.916  12.058 -0.0688  0.4568 -0.4123
 1472TIP3    H125831   1.993   3.862  12.020 -1.2124  0.9939  0.8492
 1472TIP3    H225832   2.141   3.862  12.048 -0.9314 -0.8671 -0.4305
 1473TIP3   OH225833   6.513   0.867  11.706  0.1641  0.2648 -0.0236
 1473TIP3    H125834   6.520   0.773  11.686 -0.6747  0.7107 -3.0270
 1473TIP3    H225835   6.595   0.904  11.673  0.6642  0.5616  1.5152
 1474TIP3   OH225836   1.358   0.156  11.042 -0.1184 -0.3469  0.9065
 1474TIP3    H125837   1.418   0.082  11.052  0.8003  0.5634  2.9687
 1474TIP3    H225838   1.281   0.131  11.093 -0.4255 -0.4837  0.3732
 1475TIP3   OH225839   2.555   5.956   0.605  0.3353 -0.3512  0.0342
 1475TIP3    H125840   2.554   6.037   0.656 -0.2793 -1.2291  1.5284
 1475TIP3    H225841   2.533   5.888   0.670  0.1144 -1.6103 -1.3154
 1476TIP3   OH225842   2.692   0.710  12.451  0.4681  0.8625  0.5340
 1476TIP3    H125843   2.601   0.703  12.422  0.6543  0.6849 -0.0427
 1476TIP3    H225844   2.708   0.629  12.500  0.2608  0.9730  0.7765
 1477TIP3   OH225845   5.381   3.291  13.397  0.0723 -0.1107 -0.2470
 1477TIP3    H125846   5.344   3.214  13.355 -1.5120 -0.4733  1.6713
 1477TIP3    H225847   5.470   3.264  13.423 -0.4787 -1.3373  0.4422
 1478TIP3   OH225848   7.054   1.529  14.891 -0.1952  0.0666  0.4479
 1478TIP3    H125849   7.009   1.535  14.975 -1.1048  1.4769 -0.0979
 1478TIP3    H225850   7.144   1.506  14.913 -0.6078 -0.3764  1.7381
 1479TIP3   OH225851   3.259   5.194   2.595  0.7708  0.5501  0.3112
 1479TIP3    H125852   3.349   5.185   2.562  0.6998  1.5191 -0.1786
 1479TIP3    H225853   3.265   5.259   2.665  0.6924 -0.5166  1.3471
 1480TIP3   OH225854   0.540   4.314  15.287  0.6701 -0.0480  0.2830
 1480TIP3    H125855   0.582   4.387  15.332  0.9888 -0.6579  0.9995
 1480TIP3    H225856   0.575   4.236  15.331 -1.6140 -0.5829  1.2916
 1481TIP3   OH225857   6.177   2.128  11.737  0.7464 -0.1289 -0.1180
 1481TIP3    H125858   6.116   2.059  11.712 -0.3482  0.5973  0.4725
 1481TIP3    H225859   6.254   2.081  11.768  0.8534 -1.0644 -1.6777
 1482TIP3   OH225860   1.254   0.880  13.604 -0.2751 -0.2786  0.0501
 1482TIP3    H125861   1.336   0.860  13.558 -0.8054 -3.2289  0.2131
 1482TIP3    H225862   1.189   0.888  13.534 -0.9194 -3.9456  0.0678
 1483TIP3   OH225863   2.575   3.020   0.434 -0.3120  0.0994 -0.4363
 1483TIP3    H125864   2.518   2.948   0.408 -0.0798 -0.7553  1.2377
 1483TIP3    H225865   2.529   3.061   0.508  1.3307 -0.8548  1.2119
 1484TIP3   OH225866   0.400   2.041  14.052 -0.0274  0.0663 -0.3114
 1484TIP3    H125867   0.398   2.020  13.959 -1.3454  0.5751 -0.4252
 1484TIP3    H225868   0.327   1.991  14.090  1.3937 -1.3039  0.7428
 1485TIP3   OH225869   1.348   6.254  11.742 -0.6541 -0.5176 -0.4816
 1485TIP3    H125870   1.256   6.269  11.762 -0.6820 -0.8059 -0.3807
 1485TIP3    H225871   1.372   6.325  11.682 -0.5722  0.3548  0.5572
 1486TIP3   OH225872   5.764   3.525  14.746  0.3167 -0.2698 -0.1957
 1486TIP3    H125873   5.809   3.506  14.828 -0.7939 -2.8274 -0.0809
 1486TIP3    H225874   5.789   3.453  14.687 -0.6201  0.3120 -1.3646
 1487TIP3   OH225875   6.221   1.090   9.792  0.3044  0.1388  0.6734
 1487TIP3    H125876   6.309   1.119   9.767  0.3278  0.5386  1.2051
 1487TIP3    H225877   6.195   1.029   9.722 -0.0776  2.0500 -0.9627
 1488TIP3   OH225878   2.019   0.274  12.944 -0.7141 -0.3855 -0.8310
 1488TIP3    H125879   2.096   0.327  12.967 -2.2244  0.7790  1.9557
 1488TIP3    H225880   2.034   0.190  12.986 -0.8901 -0.2002 -0.3919
 1489TIP3   OH225881   0.604   5.355  10.337  0.0203 -0.3775 -0.1861
 1489TIP3    H125882   0.667   5.297  10.296 -1.3996 -0.9019 -1.7529
 1489TIP3    H225883   0.519   5.313  10.323 -0.9744  1.6411 -0.6739
 1490TIP3   OH225884   3.444   0.217  11.513  0.0318  0.4346  0.3326
 1490TIP3    H125885   3.367   0.246  11.561  0.7881  1.2924  1.0469
 1490TIP3    H225886   3.454   0.281  11.443 -0.6932 -0.4562 -0.6334
 1491TIP3   OH225887   3.875   2.669  13.137  0.5310  0.4275 -0.0857
 1491TIP3    H125888   3.849   2.666  13.045  0.7776  1.9298 -0.2296
 1491TIP3    H225889   3.957   2.619  13.141  0.3832  0.1323 -0.6202
 1492TIP3   OH225890   5.768   0.538  12.148 -0.5936  0.3433  0.0090
 1492TIP3    H125891   5.817   0.603  12.198 -0.4137 -0.3890  0.8022
 1492TIP3    H225892   5.834   0.493  12.096 -0.4109 -0.5533  0.9775
 1493TIP3   OH225893   0.451   1.365  11.360  0.2504 -0.7181  0.6799
 1493TIP3    H125894   0.396   1.309  11.414 -0.1268 -0.3645  0.6735
 1493TIP3    H225895   0.440   1.332  11.271  0.1871 -0.7575  0.7026
 1494TIP3   OH225896   4.083   2.714  11.603 -0.2946 -0.1331  0.3671
 1494TIP3    H125897   4.143   2.646  11.573 -1.9601 -1.7212  0.4766
 1494TIP3    H225898   4.004   2.701  11.549 -1.9412 -0.5853  2.7272
 1495TIP3   OH225899   0.214   1.469  13.535 -0.2598 -0.2192 -0.0393
 1495TIP3    H125900   0.244   1.551  13.495  0.5875 -1.0433 -1.1698
 1495TIP3    H225901   0.278   1.452  13.604  0.1352 -0.3950 -0.4352
 1496TIP3   OH225902   2.213   2.692   3.160  0.4630 -0.6486 -0.6318
 1496TIP3    H125903   2.297   2.738   3.165 -0.1825  0.6066 -0.9068
 1496TIP3    H225904   2.204   2.669   3.068  0.4290 -0.6404 -0.6304
 1497TIP3   OH225905   6.641   2.747  12.581 -0.0586  0.5373 -0.0931
 1497TIP3    H125906   6.625   2.809  12.509  1.2699  0.8940 -0.1039
 1497TIP3    H225907   6.558   2.744  12.628 -1.2794 -0.4340 -2.1748
 1498TIP3   OH225908   4.513   0.865  14.460  0.3142  0.2736  0.3990
 1498TIP3    H125909   4.550   0.837  14.377 -1.9709 -1.7482 -0.0399
 1498TIP3    H225910   4.575   0.833  14.526  1.6237  1.0023 -0.4324
 1499TIP3   OH225911   3.716   3.949  13.318  0.6241 -0.0217  0.4935
 1499TIP3    H125912   3.660   4.018  13.354 -0.1760 -0.1670 -0.4225
 1499TIP3    H225913   3.658   3.900  13.259  1.4494 -0.8372  0.3484
 1500TIP3   OH225914   3.484   6.067  10.933 -0.0837  0.1048  0.1676
 1500TIP3    H125915   3.436   6.149  10.943 -3.6784 -1.8390  0.2616
 1500TIP3    H225916   3.512   6.067  10.842 -0.3714  1.2343  0.0585
 1501TIP3   OH225917   3.725   5.749  11.166 -0.1556 -0.6348 -0.3785
 1501TIP3    H125918   3.643   5.778  11.126  1.7330  3.1176 -2.1101
 1501TIP3    H225919   3.712   5.762  11.260 -1.3058  0.6847 -0.6858
 1502TIP3   OH225920   1.196   7.049  10.070 -0.5850 -0.4425 -0.1899
 1502TIP3    H125921   1.227   7.138  10.086  1.5139 -1.0543 -0.4917
 1502TIP3    H225922   1.127   7.059  10.004  0.7972  0.8637 -1.5378
 1503TIP3   OH225923   0.639   1.996  11.137 -0.2445  0.0452 -0.2227
 1503TIP3    H125924   0.588   2.062  11.090 -0.3912  0.0906  0.0034
 1503TIP3    H225925   0.655   2.034  11.223  0.7655  0.3280 -0.5171
 1504TIP3   OH225926   2.474   7.115  11.132  0.4487  0.1334 -0.0364
 1504TIP3    H125927   2.498   7.173  11.060 -0.5878 -0.1098 -0.6018
 1504TIP3    H225928   2.521   7.150  11.208 -1.5579  2.8650  0.0703
 1505TIP3   OH225929   0.099   2.105  11.326 -0.4059 -0.2129  0.5746
 1505TIP3    H125930   0.047   2.055  11.263 -1.2563  0.1853  0.9460
 1505TIP3    H225931   0.154   2.162  11.272 -1.3155  0.3149  0.1830
 1506TIP3   OH225932   4.190   0.351   9.815 -0.2825 -0.0348 -0.6843
 1506TIP3    H125933   4.159   0.273   9.770  0.2900 -0.6269 -0.0734
 1506TIP3    H225934   4.170   0.423   9.755 -0.2213 -0.7171 -1.5350
 1507TIP3   OH225935   0.853   0.240   4.589 -0.6052  0.3675 -0.4727
 1507TIP3    H125936   0.783   0.201   4.641  1.8307 -1.8428  1.4868
 1507TIP3    H225937   0.857   0.187   4.510 -0.4569 -0.2296 -0.0719
 1508TIP3   OH225938   0.171   3.445  10.867  0.5301 -0.2953  0.0997
 1508TIP3    H125939   0.105   3.431  10.934  0.7473 -0.7883  0.2168
 1508TIP3    H225940   0.184   3.540  10.865  0.8073 -0.3015  1.0323
 1509TIP3   OH225941   2.947   5.119  12.716 -0.4422 -0.3373 -0.0575
 1509TIP3    H125942   2.994   5.192  12.755 -0.6865 -0.3480  0.2573
 1509TIP3    H225943   2.855   5.134  12.738 -0.4055 -1.1712  0.7093
 1510TIP3   OH225944   0.676   4.299  10.615 -0.3839 -0.5957 -0.2818
 1510TIP3    H125945   0.759   4.336  10.587 -1.0572  0.9528 -0.3162
 1510TIP3    H225946   0.613   4.371  10.608 -1.6233 -1.5717  0.2744
 1511TIP3   OH225947   6.594   1.743  12.638 -0.4811  0.7645 -0.0017
 1511TIP3    H125948   6.556   1.777  12.719  1.1072 -0.4725  1.3327
 1511TIP3    H225949   6.632   1.819  12.595  0.6630  1.1319  1.5840
 1512TIP3   OH225950   0.154   7.162  14.742  0.3972  0.3286 -0.3666
 1512TIP3    H125951   0.150   7.224  14.668 -0.1080  2.7428  1.5297
 1512TIP3    H225952   0.090   7.095  14.720 -1.6357  2.3354 -1.0703
 1513TIP3   OH225953   2.997   2.299   9.472 -0.2570 -0.2340 -0.3782
 1513TIP3    H125954   3.018   2.375   9.418 -0.5619  0.2520  0.1676
 1513TIP3    H225955   2.934   2.333   9.536 -0.9331 -1.1101 -0.5642
 1514TIP3   OH225956   2.587   4.103  11.943 -0.8984  0.5463  0.1575
 1514TIP3    H125957   2.674   4.071  11.921 -0.0399  2.5283  0.5197
 1514TIP3    H225958   2.558   4.046  12.015  0.3442  0.2583  0.4428
 1515TIP3   OH225959   4.916   4.060  13.139 -0.3665  0.4166  0.4885
 1515TIP3    H125960   4.996   4.099  13.176  0.9520 -0.5844 -1.1489
 1515TIP3    H225961   4.919   3.969  13.169 -1.2462  0.5276  0.9313
 1516TIP3   OH225962   4.107   2.747  14.939 -0.7526 -0.3919 -0.3371
 1516TIP3    H125963   4.173   2.686  14.908 -1.2047  0.3678 -3.0240
 1516TIP3    H225964   4.024   2.708  14.913 -1.2325 -0.1740  0.8271
 1517TIP3   OH225965   0.910   0.377  14.253  0.0440 -0.4717  0.0119
 1517TIP3    H125966   0.901   0.304  14.314 -1.0100 -1.0582 -0.8215
 1517TIP3    H225967   0.820   0.405  14.235  0.4212  0.9477  0.2083
 1518TIP3   OH225968   3.724   2.185  14.241 -0.7465 -0.3662 -0.2810
 1518TIP3    H125969   3.818   2.176  14.250 -0.7929 -0.8764 -0.2735
 1518TIP3    H225970   3.691   2.186  14.331 -0.8357 -1.1963 -0.3026
 1519TIP3   OH225971   5.821   6.707  12.040  0.5542 -0.0817 -0.0991
 1519TIP3    H125972   5.785   6.634  12.091  2.6692 -2.1261 -1.3252
 1519TIP3    H225973   5.897   6.736  12.091  0.5646  0.3025 -0.3320
 1520TIP3   OH225974   1.915   1.410  13.820  0.4522 -0.1907 -0.5462
 1520TIP3    H125975   1.908   1.344  13.888 -1.8690  0.8955  0.3869
 1520TIP3    H225976   2.002   1.449  13.832  0.9475 -1.5223  0.3255
 1521TIP3   OH225977   3.220   4.650  12.904 -0.1390  0.3073  0.2170
 1521TIP3    H125978   3.296   4.650  12.962  0.4819 -0.3708 -0.5765
 1521TIP3    H225979   3.180   4.564  12.915 -0.7987  0.6478  0.6071
 1522TIP3   OH225980   4.093   1.621  14.928  0.5405  0.3970  0.0427
 1522TIP3    H125981   4.128   1.708  14.911  0.8573  0.4069  0.7027
 1522TIP3    H225982   4.028   1.635  14.997 -0.0619  0.2370 -0.4835
 1523TIP3   OH225983   2.479   5.640   0.397 -0.0827  0.0303 -0.3315
 1523TIP3    H125984   2.564   5.681   0.408 -1.0942  2.4426 -0.8690
 1523TIP3    H225985   2.446   5.674   0.313 -1.5900 -0.7864 -0.1214
 1524TIP3   OH225986   5.955   0.244  11.480  0.1970  0.0725 -0.4786
 1524TIP3    H125987   5.928   0.154  11.501  0.1190  0.3208  0.5219
 1524TIP3    H225988   5.960   0.245  11.385  0.9082 -1.2000 -0.4786
 1525TIP3   OH225989   2.383   5.471  12.246  0.0282  0.1694  0.0386
 1525TIP3    H125990   2.326   5.492  12.320  1.7648  1.5548  1.0615
 1525TIP3    H225991   2.435   5.397  12.277  1.3561  1.2880  0.6121
 1526TIP3   OH225992   3.719   6.093  11.079 -0.3915 -0.0168 -0.4889
 1526TIP3    H125993   3.688   6.181  11.102 -1.0314 -0.4753  0.4957
 1526TIP3    H225994   3.645   6.053  11.032 -0.5897 -0.4494  0.1745
 1527TIP3   OH225995   3.867   2.418  11.314  0.2576 -0.2098  0.0042
 1527TIP3    H125996   3.857   2.508  11.345  1.1820  0.2581 -1.0018
 1527TIP3    H225997   3.847   2.422  11.221 -0.5959 -1.2338  0.1141
 1528TIP3   OH225998   0.415   0.155  12.995  0.4143 -0.5369 -0.2267
 1528TIP3    H125999   0.406   0.250  12.983 -2.3702 -0.9928 -3.3753
 1528TIP3    H226000   0.472   0.127  12.923  2.0133 -1.2173  1.2526
 1529TIP3   OH226001   4.966   5.779  10.692  0.5858  0.5730  0.0669
 1529TIP3    H126002   4.949   5.816  10.605 -1.0120 -0.4981 -0.1079
 1529TIP3    H226003   4.899   5.712  10.704  1.8226 -0.4842  1.4454
 1530TIP3   OH226004   2.235   1.029  10.497 -0.3327 -0.0383  0.1873
 1530TIP3    H126005   2.184   0.993  10.570 -2.3652  1.7604 -0.2423
 1530TIP3    H226006   2.186   1.002  10.418  0.3084  0.3067 -0.3386
 1531TIP3   OH226007   0.472   1.590   9.819  0.0603 -0.7515  0.7209
 1531TIP3    H126008   0.470   1.551   9.732 -2.7915  0.5290  0.0885
 1531TIP3    H226009   0.480   1.684   9.802 -3.2449 -0.1960  1.5792
 1532TIP3   OH226010   5.361   1.495  10.456 -0.0863 -0.2911  0.4810
 1532TIP3    H126011   5.393   1.584  10.466  0.5054 -0.5775  1.1760
 1532TIP3    H226012   5.288   1.489  10.518 -1.7008  0.4133 -1.2138
 1533TIP3   OH226013   2.262   5.790  10.921 -0.2889 -0.7768 -0.7678
 1533TIP3    H126014   2.184   5.812  10.971 -0.9637 -1.8172 -1.3340
 1533TIP3    H226015   2.335   5.814  10.979 -0.9920  0.8986 -0.5363
 1534TIP3   OH226016   0.158   3.200  13.915  0.5339  0.6013 -0.5591
 1534TIP3    H126017   0.122   3.212  13.827 -0.6123  1.0578 -0.0474
 1534TIP3    H226018   0.133   3.111  13.940 -1.2691  1.2752  0.2165
 1535TIP3   OH226019   5.713   5.557  12.867 -0.1624  0.6704 -0.7027
 1535TIP3    H126020   5.683   5.489  12.806 -0.1808  0.8274 -0.8685
 1535TIP3    H226021   5.776   5.608  12.817  1.6554 -0.6374  0.1082
 1536TIP3   OH226022   0.158   0.445  12.605 -0.7693  0.3679 -0.3898
 1536TIP3    H126023   0.086   0.391  12.638  0.4844 -1.9523 -1.2137
 1536TIP3    H226024   0.222   0.446  12.675 -0.6071  0.4573 -0.5386
 1537TIP3   OH226025   6.569   6.953   9.649 -0.2840  0.3972  0.4162
 1537TIP3    H126026   6.655   6.913   9.638  0.0053  0.9146  0.6984
 1537TIP3    H226027   6.527   6.945   9.564 -0.4611 -0.9909  0.6167
 1538TIP3   OH226028   2.545   1.156  10.954 -0.3908  0.1680 -0.0143
 1538TIP3    H126029   2.602   1.232  10.944  0.2524 -0.3128 -0.1454
 1538TIP3    H226030   2.483   1.163  10.881  0.7613 -0.3341 -1.1043
 1539TIP3   OH226031   3.799   4.144  10.509 -0.1730 -0.0846 -0.3102
 1539TIP3    H126032   3.828   4.083  10.577  1.0486 -1.1148 -1.7025
 1539TIP3    H226033   3.856   4.126  10.435 -0.9391  1.5808 -1.3517
 1540TIP3   OH226034   1.489   4.369  14.937 -0.3050  0.1661  0.4929
 1540TIP3    H126035   1.507   4.354  14.844 -1.9357 -0.8704  0.3094
 1540TIP3    H226036   1.575   4.386  14.975  0.4175  0.4562 -1.1642
 1541TIP3   OH226037   5.495   0.645  15.464  0.0980  0.6734 -0.7897
 1541TIP3    H126038   5.569   0.586  15.475 -0.0098  0.8670  1.4325
 1541TIP3    H226039   5.448   0.612  15.387  0.8705 -1.1999 -0.5008
 1542TIP3   OH226040   5.418   5.419  10.528 -0.2313  0.1804  0.2885
 1542TIP3    H126041   5.352   5.381  10.471  1.6399 -0.7455 -1.3833
 1542TIP3    H226042   5.430   5.508  10.493  1.1506 -0.4943 -1.0799
 1543TIP3   OH226043   3.922   4.400  13.141 -0.0795  0.3671  0.0202
 1543TIP3    H126044   3.880   4.475  13.100  0.2048 -0.0576 -1.0841
 1543TIP3    H226045   3.849   4.343  13.167 -0.2871  0.9442  0.7298
 1544TIP3   OH226046   2.482   0.297  12.726  0.0789 -0.3286  0.1622
 1544TIP3    H126047   2.513   0.366  12.784  0.3170  0.1765 -0.5602
 1544TIP3    H226048   2.533   0.220  12.750 -1.5945 -0.8451  2.3912
 1545TIP3   OH226049   1.367   2.406   4.463  0.2910 -0.0762  0.2783
 1545TIP3    H126050   1.428   2.470   4.427  1.3821 -0.1749  1.8404
 1545TIP3    H226051   1.283   2.427   4.423  0.7461  1.9206  0.2618
 1546TIP3   OH226052   4.246   4.432  12.193  0.3640  0.1769  0.1517
 1546TIP3    H126053   4.326   4.481  12.176  0.4859 -0.1717 -0.3063
 1546TIP3    H226054   4.246   4.363  12.126  0.6672 -1.0077  1.3301
 1547TIP3   OH226055   4.015   5.686  13.966  0.3557  0.2998 -0.1678
 1547TIP3    H126056   4.085   5.708  13.905 -0.4593  0.5351 -1.0443
 1547TIP3    H226057   4.027   5.746  14.039  1.1334  0.2528 -0.2472
 1548TIP3   OH226058   5.117   4.858  10.824  0.1415 -0.5045  0.1346
 1548TIP3    H126059   5.038   4.912  10.832 -0.1372 -0.9036  0.1153
 1548TIP3    H226060   5.146   4.871  10.733 -1.3350 -2.2935 -0.6530
 1549TIP3   OH226061   3.133   5.197   9.840  0.4150  0.5704  0.5589
 1549TIP3    H126062   3.127   5.113   9.796 -0.0109  0.7352  0.2991
 1549TIP3    H226063   3.089   5.259   9.782 -1.8971  0.4475  2.0481
 1550TIP3   OH226064   4.851   1.624  10.972  0.0402  0.4490  0.4854
 1550TIP3    H126065   4.846   1.709  11.016 -0.7490  0.0909  1.1036
 1550TIP3    H226066   4.945   1.608  10.962  0.2112  1.0524  1.0202
 1551TIP3   OH226067   2.635   4.804  10.495  0.4382 -0.1570 -0.0749
 1551TIP3    H126068   2.581   4.876  10.527  0.9387  0.0505  0.3243
 1551TIP3    H226069   2.600   4.726  10.540 -0.0733 -0.1593 -0.4733
 1552TIP3   OH226070   0.584   6.749  12.261  0.3924 -0.3852  0.1177
 1552TIP3    H126071   0.517   6.784  12.320 -0.3609 -1.3754 -0.1239
 1552TIP3    H226072   0.632   6.686  12.313  0.2967 -0.6199 -0.0768
 1553TIP3   OH226073   0.302   6.233  12.364  0.7889  0.1230 -0.2575
 1553TIP3    H126074   0.235   6.254  12.430  0.4016  1.6469 -1.0877
 1553TIP3    H226075   0.254   6.231  12.281  1.8219  1.6597 -0.9300
 1554TIP3   OH226076   2.990   2.324  13.673  0.1709 -0.8642 -0.3831
 1554TIP3    H126077   2.991   2.388  13.602  0.9568 -0.1522  0.2572
 1554TIP3    H226078   2.948   2.369  13.745  0.0771 -1.3221 -0.1476
 1555TIP3   OH226079   0.084   3.847  12.014  0.5073 -0.2773 -0.0556
 1555TIP3    H126080   0.040   3.809  12.090  0.5190  1.0672  0.6535
 1555TIP3    H226081   0.014   3.860  11.949  0.3502 -0.6306  0.0392
 1556TIP3   OH226082   4.465   4.555  12.048  0.6944  0.6018 -0.0326
 1556TIP3    H126083   4.442   4.494  11.978 -0.2234 -0.2294  0.9540
 1556TIP3    H226084   4.435   4.640  12.016 -0.7077  0.0675 -0.2190
 1557TIP3   OH226085   4.822   2.611  15.219  0.1127  0.3151 -0.5600
 1557TIP3    H126086   4.754   2.585  15.156 -0.9493  2.4811 -0.3706
 1557TIP3    H226087   4.880   2.535  15.223 -0.3616 -0.3260 -3.3576
 1558TIP3   OH226088   2.113   6.198  12.866 -0.3565 -0.4677  0.1577
 1558TIP3    H126089   2.076   6.240  12.943  0.0116 -0.2899  0.2407
 1558TIP3    H226090   2.202   6.233  12.861 -0.4504 -0.3152 -0.4713
 1559TIP3   OH226091   0.188   1.133   1.072  0.2430  0.5791  0.1675
 1559TIP3    H126092   0.214   1.173   1.155  2.0766 -0.4243  0.1256
 1559TIP3    H226093   0.111   1.184   1.044  0.2731  1.6619  1.8935
 1560TIP3   OH226094   3.124   2.177  12.189 -0.3485  0.2705 -0.6724
 1560TIP3    H126095   3.210   2.143  12.166 -0.8492 -1.5174 -0.0268
 1560TIP3    H226096   3.073   2.100  12.214 -1.9553  1.3568 -0.4422
 1561TIP3   OH226097   3.573   1.449  13.928  0.1987 -0.3029  0.0818
 1561TIP3    H126098   3.503   1.514  13.920  0.6427  0.3652  1.4470
 1561TIP3    H226099   3.638   1.475  13.863 -0.8477 -1.0374 -1.3445
 1562TIP3   OH226100   6.962   2.982  10.513 -0.3316  0.0359  0.2996
 1562TIP3    H126101   6.914   3.041  10.454 -0.4499 -1.3691 -1.0699
 1562TIP3    H226102   6.899   2.913  10.534  0.2471 -0.3725  0.7094
 1563TIP3   OH226103   3.459   2.528  10.906  0.2839 -0.4780  0.7305
 1563TIP3    H126104   3.450   2.433  10.902  0.3349 -0.4928  1.0023
 1563TIP3    H226105   3.401   2.555  10.977 -0.7849 -0.1721 -0.2198
 1564TIP3   OH226106   6.730   3.334   9.665  0.8007  0.5443 -0.2887
 1564TIP3    H126107   6.640   3.303   9.659  1.1890 -0.6587 -0.1336
 1564TIP3    H226108   6.783   3.255   9.665  1.9201  1.2486 -1.2836
 1565TIP3   OH226109   0.357   6.138   0.373  0.0171  0.4595 -0.0656
 1565TIP3    H126110   0.291   6.098   0.429  1.0931 -3.7539 -1.3685
 1565TIP3    H226111   0.429   6.160   0.432 -0.5177  0.0792  0.7385
 1566TIP3   OH226112   6.669   0.614  11.619  0.4446  0.4640 -0.3551
 1566TIP3    H126113   6.719   0.608  11.700 -0.7358 -2.1575  0.2928
 1566TIP3    H226114   6.733   0.593  11.550  0.7334 -0.8187  0.2717
 1567TIP3   OH226115   5.004   5.855  12.563 -0.5406 -0.7985 -0.1226
 1567TIP3    H126116   4.926   5.853  12.508 -0.0414 -1.6756 -0.8179
 1567TIP3    H226117   5.026   5.948  12.570 -1.6534 -0.5353  0.1094
 1568TIP3   OH226118   4.622   6.674  12.531 -0.0359  0.3257 -1.0263
 1568TIP3    H126119   4.645   6.694  12.622  0.8159 -0.2177 -1.1065
 1568TIP3    H226120   4.705   6.680  12.484 -0.7739  2.6764 -2.1938
 1569TIP3   OH226121   4.755   2.871  14.402  0.1036 -0.7217 -0.2348
 1569TIP3    H126122   4.793   2.933  14.341 -0.6878  0.8035  0.7676
 1569TIP3    H226123   4.765   2.786  14.359  0.1000  0.2171 -2.1981
 1570TIP3   OH226124   6.412   3.547  10.850  0.6243 -0.0365 -0.4849
 1570TIP3    H126125   6.372   3.461  10.837 -1.6753  0.6762  1.1839
 1570TIP3    H226126   6.443   3.545  10.940 -0.0964  1.0718 -0.1917
 1571TIP3   OH226127   2.845   4.914  11.309  0.3611 -0.5493  0.7135
 1571TIP3    H126128   2.821   5.003  11.336 -1.1372 -0.6193 -0.2403
 1571TIP3    H226129   2.930   4.924  11.266  0.0874  0.4914  0.3742
 1572TIP3   OH226130   2.946   4.691  12.413 -0.4073 -0.7016  0.5800
 1572TIP3    H126131   2.968   4.624  12.478 -1.5945 -2.0524 -0.3551
 1572TIP3    H226132   2.879   4.650  12.358  0.1836  0.5867 -1.1909
 1573TIP3   OH226133   5.863   0.836  12.852 -0.3636  0.3849  0.0421
 1573TIP3    H126134   5.931   0.796  12.907 -0.7553  1.4102  1.2952
 1573TIP3    H226135   5.796   0.768  12.845  1.0373 -0.9272 -1.8168
 1574TIP3   OH226136   4.103   1.642  13.017 -0.6619 -0.5110 -0.3328
 1574TIP3    H126137   4.159   1.675  13.086 -0.6366 -1.6766  0.2209
 1574TIP3    H226138   4.039   1.712  13.002  0.6945  0.6798 -0.7277
 1575TIP3   OH226139   1.430   4.799  12.453 -0.3501 -0.4231  0.5816
 1575TIP3    H126140   1.443   4.731  12.387  0.8283 -0.1570  0.5232
 1575TIP3    H226141   1.476   4.875  12.418  1.9413 -0.7899  2.5291
 1576TIP3   OH226142   5.192   3.715  13.859 -0.4700  0.0341  0.0899
 1576TIP3    H126143   5.255   3.747  13.793 -0.2804 -2.8265 -1.2428
 1576TIP3    H226144   5.246   3.669  13.923 -1.0034 -0.6174  0.0788
 1577TIP3   OH226145   5.703   4.615  10.032  0.5372  0.3401  0.7455
 1577TIP3    H126146   5.707   4.521  10.012 -2.3821  0.1974  0.3327
 1577TIP3    H226147   5.661   4.619  10.118 -3.4627  1.1725 -0.9992
 1578TIP3   OH226148   0.957   6.651   2.451  0.2396  0.4672  0.2881
 1578TIP3    H126149   1.010   6.578   2.483  1.4347  2.0031  2.0140
 1578TIP3    H226150   1.019   6.708   2.407 -0.2233  1.5836  1.0415
 1579TIP3   OH226151   4.110   4.573  10.855  0.1628 -0.1519  0.2449
 1579TIP3    H126152   4.180   4.586  10.792  0.1393  2.7054  0.6639
 1579TIP3    H226153   4.148   4.517  10.923  1.1361 -0.8126 -0.8164
 1580TIP3   OH226154   5.088   1.393  15.347  0.4481 -0.3808 -0.2715
 1580TIP3    H126155   5.099   1.299  15.340 -1.2233 -0.6266  0.0836
 1580TIP3    H226156   5.072   1.422  15.257  1.1094 -0.4126 -0.4004
 1581TIP3   OH226157   4.067   4.283  12.376  0.1870 -0.2581  0.2220
 1581TIP3    H126158   4.102   4.371  12.360  0.6793 -0.3462  0.7678
 1581TIP3    H226159   4.053   4.247  12.289 -1.1928  0.8104 -0.0296
 1582TIP3   OH226160   6.577   6.081  11.923  0.0786 -0.5410 -0.1315
 1582TIP3    H126161   6.585   6.154  11.983 -1.2056  0.2669 -0.8863
 1582TIP3    H226162   6.572   6.121  11.836 -1.6917 -1.4020 -0.4873
 1583TIP3   OH226163   2.603   3.700  13.741  0.1363 -0.2388 -0.2115
 1583TIP3    H126164   2.620   3.609  13.719 -0.8229 -0.6686  0.7718
 1583TIP3    H226165   2.689   3.737  13.761  0.8292 -0.3259 -2.6497
 1584TIP3   OH226166   1.465   6.671  12.726 -0.7704 -0.2781  0.8309
 1584TIP3    H126167   1.432   6.609  12.661 -2.7382  1.4509  0.0647
 1584TIP3    H226168   1.510   6.616  12.791 -3.3972 -2.6698  0.8216
 1585TIP3   OH226169   5.551   3.053   0.858  0.2685 -0.2587  0.2946
 1585TIP3    H126170   5.501   3.108   0.919 -1.3535 -0.7348 -0.5352
 1585TIP3    H226171   5.574   2.976   0.910 -0.4250 -0.3146  0.5402
 1586TIP3   OH226172   3.145   4.246  12.256 -0.2196  0.5086  0.3085
 1586TIP3    H126173   3.056   4.231  12.288 -0.0230 -0.4850  0.4001
 1586TIP3    H226174   3.202   4.224  12.330  0.0764  2.4795  0.7274
 1587TIP3   OH226175   2.029   6.873  10.104  0.1812  0.7518 -0.5054
 1587TIP3    H126176   2.039   6.780  10.124 -0.4908  0.4825 -1.3802
 1587TIP3    H226177   2.020   6.915  10.190  1.8790  0.2045 -0.0179
 1588TIP3   OH226178   6.731   6.632   3.451  0.0081 -0.1292  0.3850
 1588TIP3    H126179   6.810   6.626   3.398  0.0886  0.6707  0.3925
 1588TIP3    H226180   6.758   6.683   3.528 -0.4834  0.0529  0.4416
 1589TIP3   OH226181   5.267   1.133  10.192 -0.5272 -0.7403  0.0138
 1589TIP3    H126182   5.224   1.048  10.205 -1.7849 -0.6414 -2.7524
 1589TIP3    H226183   5.207   1.196  10.231  0.0746 -0.9954  1.4463
 1590TIP3   OH226184   2.790   0.365  11.755  0.3198 -0.1024  0.5270
 1590TIP3    H126185   2.764   0.358  11.663  0.1951 -1.7608  0.6613
 1590TIP3    H226186   2.726   0.425  11.794 -0.7670 -0.8304 -0.0827
 1591TIP3   OH226187   2.706   3.800  10.414  0.1331  0.2166 -0.6539
 1591TIP3    H126188   2.655   3.840  10.344 -1.5188 -0.2935  0.2287
 1591TIP3    H226189   2.695   3.706  10.402 -0.1404  0.1223  0.2591
 1592TIP3   OH226190   2.244   1.373  11.539 -0.2148 -0.0265  0.4938
 1592TIP3    H126191   2.283   1.293  11.573  2.2084  0.3869 -1.0374
 1592TIP3    H226192   2.194   1.344  11.462 -0.0199 -0.1678  0.4195
 1593TIP3   OH226193   1.461   5.655   9.906  0.4693  0.4817 -0.0943
 1593TIP3    H126194   1.430   5.694   9.825  0.2270  2.1520  0.7549
 1593TIP3    H226195   1.485   5.566   9.883 -0.1851  0.7362 -1.8517
 1594TIP3   OH226196   3.855   2.577  14.105 -0.0186  0.1524  0.4059
 1594TIP3    H126197   3.777   2.619  14.068 -0.4675  0.0450  1.1997
 1594TIP3    H226198   3.876   2.507  14.044 -1.8240 -1.1893  1.2213
 1595TIP3   OH226199   0.968   1.155  13.349 -0.3828  0.2985 -0.1443
 1595TIP3    H126200   0.997   1.242  13.378 -0.8817  0.7334 -0.8944
 1595TIP3    H226201   0.875   1.168  13.327 -0.1301 -0.0908 -1.5351
 1596TIP3   OH226202   5.435   0.181  12.322 -0.3358 -0.4588 -0.5313
 1596TIP3    H126203   5.418   0.118  12.391  1.7707 -0.0132  0.4735
 1596TIP3    H226204   5.389   0.261  12.349 -0.9267 -0.7946 -0.5340
 1597TIP3   OH226205   3.391   6.611   0.968  0.4672  0.1237  0.1157
 1597TIP3    H126206   3.425   6.600   1.057  0.4185  1.9124  0.3921
 1597TIP3    H226207   3.407   6.703   0.947 -0.6706  0.0544 -1.2457
 1598TIP3   OH226208   0.470   0.660   1.807  0.5850 -0.4641 -0.2692
 1598TIP3    H126209   0.512   0.743   1.784  0.1988 -0.4941 -1.1315
 1598TIP3    H226210   0.463   0.662   1.902  0.5232  0.5164 -0.2851
 1599TIP3   OH226211   5.214   1.314  14.865  0.3965 -0.2960 -0.5434
 1599TIP3    H126212   5.305   1.285  14.857 -0.0269 -1.4578 -1.3388
 1599TIP3    H226213   5.207   1.386  14.803  1.6139  2.0649  1.8649
 1600TIP3   OH226214   6.683   3.537  10.781 -0.3133  0.2911 -0.0503
 1600TIP3    H126215   6.592   3.555  10.805 -0.2838 -0.0747  0.3407
 1600TIP3    H226216   6.715   3.620  10.746 -0.3462  0.8663  1.2087
 1601TIP3   OH226217   2.350   3.027  14.053  0.3040  0.0390  0.3664
 1601TIP3    H126218   2.291   3.030  14.128 -1.0504  0.4694 -0.6731
 1601TIP3    H226219   2.403   3.106  14.061 -0.3221  0.4512  0.4965
 1602TIP3   OH226220   2.605   3.215   2.242 -0.3729  0.5274 -0.3162
 1602TIP3    H126221   2.568   3.127   2.237 -2.1600  1.0100  2.1190
 1602TIP3    H226222   2.545   3.269   2.189 -1.5213  0.7976  1.1603
 1603TIP3   OH226223   5.772   4.409  14.900  0.6083 -0.4283  0.5032
 1603TIP3    H126224   5.751   4.501  14.917 -0.3177 -0.7373  1.1018
 1603TIP3    H226225   5.818   4.411  14.816  0.1553  0.5312  0.2539
 1604TIP3   OH226226   1.239   6.523  10.721  0.0237  0.0859 -0.1370
 1604TIP3    H126227   1.304   6.455  10.738  2.3309  1.9331 -0.9829
 1604TIP3    H226228   1.189   6.529  10.802  0.0404 -2.2419  0.1244
 1605TIP3   OH226229   5.085   3.457  10.071  0.4287  0.5503 -0.4478
 1605TIP3    H126230   5.133   3.497   9.998  0.9111  1.0207  0.1117
 1605TIP3    H226231   5.079   3.527  10.137 -1.0280  0.4982 -0.4952
 1606TIP3   OH226232   0.309   3.442   0.028 -0.0363  0.3058 -0.0020
 1606TIP3    H126233   0.225   3.448   0.074 -0.4032  0.8735 -0.7124
 1606TIP3    H226234   0.348   3.529   0.041  1.0205 -0.3350  1.3609
 1607TIP3   OH226235   4.284   0.865  14.966  0.3676 -0.2851  0.0324
 1607TIP3    H126236   4.219   0.905  14.909 -0.5838  1.1841  2.0180
 1607TIP3    H226237   4.239   0.788  15.002 -0.2514  0.5838  1.2016
 1608TIP3   OH226238   4.658   1.494   1.617  0.1030 -0.3985 -0.6456
 1608TIP3    H126239   4.744   1.492   1.661  0.0165  1.5871 -0.2820
 1608TIP3    H226240   4.669   1.557   1.546 -0.9114 -0.5568 -0.9566
 1609TIP3   OH226241   0.447   7.122   9.291 -0.2220  0.3282 -0.1239
 1609TIP3    H126242   0.532   7.166   9.284  0.1101 -0.3974 -0.8465
 1609TIP3    H226243   0.388   7.189   9.326 -0.1251  1.9088 -2.7159
 1610TIP3   OH226244   7.046   3.744   9.782  0.3833  0.2523 -0.0131
 1610TIP3    H126245   6.962   3.708   9.753  0.2329  2.2633 -2.3999
 1610TIP3    H226246   7.030   3.839   9.789  1.8886  0.4389  1.7251
 1611TIP3   OH226247   4.961   3.560  12.189 -0.1720  0.4084 -0.5253
 1611TIP3    H126248   4.948   3.637  12.246  1.8368  0.0771  0.4746
 1611TIP3    H226249   4.921   3.488  12.238 -1.0204  0.6066 -0.9147
 1612TIP3   OH226250   5.838   0.048  13.879  0.3055  0.0678 -0.1004
 1612TIP3    H126251   5.818  -0.039  13.844  0.8829  0.2814 -0.9840
 1612TIP3    H226252   5.803   0.046  13.969  1.4481 -1.5191  0.3640
 1613TIP3   OH226253   5.734   0.143   9.613  0.0970 -0.7884  0.1124
 1613TIP3    H126254   5.799   0.132   9.544  0.9751  1.4310  0.5010
 1613TIP3    H226255   5.660   0.186   9.570 -0.1635 -1.2091  0.1413
 1614TIP3   OH226256   3.039   2.974   0.224 -0.1559  0.4999  0.0944
 1614TIP3    H126257   3.057   2.902   0.164  1.1483  0.5021  0.4393
 1614TIP3    H226258   2.963   2.945   0.275 -0.1183 -0.2975 -0.2863
 1615TIP3   OH226259   5.025   5.816  10.347 -0.1937  0.2686 -0.0357
 1615TIP3    H126260   4.941   5.860  10.336  0.5499  1.9904  0.9020
 1615TIP3    H226261   5.085   5.863  10.290  0.6098  0.4975  0.9609
 1616TIP3   OH226262   5.874   4.895  13.732  0.4891  0.3133 -0.3588
 1616TIP3    H126263   5.919   4.940  13.661  0.1131  0.7749 -0.3125
 1616TIP3    H226264   5.852   4.965  13.795 -1.0518  0.2519 -0.7828
 1617TIP3   OH226265   4.298   6.228  10.696  0.3361  0.2609 -0.3053
 1617TIP3    H126266   4.298   6.191  10.784  2.4042  0.3519 -0.2281
 1617TIP3    H226267   4.351   6.307  10.702 -1.3440  1.5355 -1.1871
 1618TIP3   OH226268   4.835   0.891   4.315 -0.3907  0.3654 -0.8444
 1618TIP3    H126269   4.847   0.985   4.305 -0.6101  0.6657  1.2080
 1618TIP3    H226270   4.740   0.880   4.327 -0.2055  0.1425  0.6838
 1619TIP3   OH226271   2.059   6.588   1.241  0.3608 -0.7450 -0.1868
 1619TIP3    H126272   2.020   6.506   1.269  0.3262 -1.3834 -1.9704
 1619TIP3    H226273   2.146   6.588   1.281 -0.8353  0.0170  2.6240
 1620TIP3   OH226274   0.999   0.280   3.109 -0.5518  0.5157  0.0532
 1620TIP3    H126275   0.941   0.343   3.066 -0.1003  0.4818 -0.6342
 1620TIP3    H226276   0.945   0.239   3.177 -0.5715  2.3412  1.1902
 1621TIP3   OH226277   2.309   0.821   0.085 -0.2017  0.1180 -0.4436
 1621TIP3    H126278   2.312   0.904   0.038  1.3987 -0.2654 -1.0973
 1621TIP3    H226279   2.316   0.846   0.177 -2.9659  0.8522 -0.3644
 1622TIP3   OH226280   1.020   5.300   0.472  0.3745  0.2777 -0.3736
 1622TIP3    H126281   0.963   5.324   0.398  2.0050  1.3275 -1.3551
 1622TIP3    H226282   0.968   5.238   0.523 -1.6688  1.2679 -1.1532
 1623TIP3   OH226283   1.860   3.100  12.815 -0.1119 -0.3492 -0.1870
 1623TIP3    H126284   1.874   3.106  12.909 -1.4166  0.7543 -0.0237
 1623TIP3    H226285   1.894   3.182  12.780 -0.2487 -0.4596 -0.5857
 1624TIP3   OH226286   6.667   2.872   9.776 -0.2439  0.2548 -0.0172
 1624TIP3    H126287   6.679   2.777   9.767  4.3762  0.6169 -0.0441
 1624TIP3    H226288   6.628   2.899   9.693  0.3112 -1.4190 -0.8673
 1625TIP3   OH226289   6.799   4.652  11.349 -0.3932 -0.0252 -0.1894
 1625TIP3    H126290   6.762   4.569  11.320  1.0255 -1.0595  0.8594
 1625TIP3    H226291   6.844   4.632  11.431 -0.3888  1.8747  0.3352
 1626TIP3   OH226292   0.044   4.913   0.697  0.1284 -0.0184  0.0139
 1626TIP3    H126293   0.120   4.931   0.752 -0.4617  1.2092  0.4596
 1626TIP3    H226294   0.062   4.960   0.616  0.9606 -1.7621 -0.8819
 1627TIP3   OH226295   6.049   0.481  13.562  0.3962  0.4558 -0.2406
 1627TIP3    H126296   5.968   0.444  13.528 -1.2594  4.3883 -1.0311
 1627TIP3    H226297   6.056   0.446  13.651 -2.6460  0.6589  0.1620
 1628TIP3   OH226298   6.445   6.120  11.410 -0.1629 -0.3977 -0.3727
 1628TIP3    H126299   6.540   6.116  11.405  0.0274 -0.2243  2.1861
 1628TIP3    H226300   6.418   6.032  11.437 -0.4000  0.3794  2.1566
 1629TIP3   OH226301   6.050   1.749  13.109  0.8922 -0.8791  0.4349
 1629TIP3    H126302   6.134   1.769  13.069  0.9590 -1.9599  0.0017
 1629TIP3    H226303   5.985   1.776  13.043  0.9223 -0.6983  0.4786
 1630TIP3   OH226304   4.622   7.078  10.537  0.1427 -0.4129 -0.1244
 1630TIP3    H126305   4.559   7.010  10.512 -2.3706  1.9491 -0.5758
 1630TIP3    H226306   4.610   7.087  10.632 -2.8947  2.3874 -0.6305
 1631TIP3   OH226307   0.990   4.296  13.503  0.0951 -0.2364 -0.3413
 1631TIP3    H126308   0.969   4.207  13.532  0.9314 -0.0055  1.0486
 1631TIP3    H226309   0.915   4.349  13.531  0.9248 -0.0009  1.5923
 1632TIP3   OH226310   0.681   5.000  14.084 -0.3147 -0.0572  0.0172
 1632TIP3    H126311   0.656   4.959  14.166 -0.2437 -0.5279 -0.1945
 1632TIP3    H226312   0.709   4.927  14.028  1.5708  0.4208  0.2581
 1633TIP3   OH226313   2.847   0.649   9.759  0.2036  0.5096 -0.0045
 1633TIP3    H126314   2.885   0.616   9.678 -1.2941  0.8978 -0.9106
 1633TIP3    H226315   2.803   0.574   9.798  0.4135  0.4635  0.1475
 1634TIP3   OH226316   1.686   5.509  10.235 -0.2351  0.1731 -0.1880
 1634TIP3    H126317   1.778   5.535  10.220  0.3405 -1.4709  0.3351
 1634TIP3    H226318   1.670   5.441  10.170 -0.6808 -0.4497  0.5662
 1635TIP3   OH226319   5.610   2.121   2.451 -0.6650 -0.2033 -0.0664
 1635TIP3    H126320   5.551   2.144   2.523  1.1957  0.8872  1.1926
 1635TIP3    H226321   5.646   2.036   2.475  0.9343  0.7323  1.0211
 1636TIP3   OH226322   2.834   6.340  12.628  0.1858  0.0298 -0.1082
 1636TIP3    H126323   2.847   6.301  12.542 -1.3566 -0.2946 -0.2256
 1636TIP3    H226324   2.868   6.276  12.690  3.7429  1.3230 -0.4667
 1637TIP3   OH226325   5.259   4.213  10.361  0.2476 -0.6048  0.1043
 1637TIP3    H126326   5.346   4.212  10.402  0.9248 -2.1434 -1.2901
 1637TIP3    H226327   5.274   4.250  10.274 -0.6667 -0.1477  0.1194
 1638TIP3   OH226328   1.541   1.929  12.072 -1.1740 -0.2738 -0.2280
 1638TIP3    H126329   1.631   1.916  12.043 -1.3548 -2.5627  0.0028
 1638TIP3    H226330   1.509   2.002  12.021  1.2648  1.6698  0.8076
 1639TIP3   OH226331   2.837   3.358  11.391 -0.9375 -0.0378  0.1115
 1639TIP3    H126332   2.870   3.424  11.330  0.4579 -1.6412 -0.9525
 1639TIP3    H226333   2.881   3.378  11.474  0.3906 -0.2908 -0.5007
 1640TIP3   OH226334   0.811   4.756  12.173  0.9454 -0.1729 -0.1042
 1640TIP3    H126335   0.784   4.834  12.221 -0.0517 -1.1122  0.9288
 1640TIP3    H226336   0.821   4.689  12.241  0.1542 -1.3732 -1.1358
 1641TIP3   OH226337   4.408   6.048  11.374  0.0298 -0.6703 -0.4341
 1641TIP3    H126338   4.463   6.110  11.327  2.3670 -2.4901 -0.2472
 1641TIP3    H226339   4.378   6.096  11.451  3.2405 -0.2108  0.6713
 1642TIP3   OH226340   3.308   3.456  12.041  0.1832 -0.0279 -0.0229
 1642TIP3    H126341   3.220   3.493  12.037 -0.0709 -0.6964 -2.0381
 1642TIP3    H226342   3.297   3.364  12.017  1.5494  0.2211 -1.9024
 1643TIP3   OH226343   6.521   0.609  13.163  0.8559 -0.3568 -0.2243
 1643TIP3    H126344   6.464   0.627  13.088 -1.1755 -2.0297  0.8109
 1643TIP3    H226345   6.592   0.556  13.128  1.6595  1.4300 -1.4717
 1644TIP3   OH226346   0.597   1.795  13.314 -0.1358  0.2420 -0.3869
 1644TIP3    H126347   0.668   1.733  13.331  0.1495  0.8202  0.6332
 1644TIP3    H226348   0.623   1.875  13.361 -0.1509  1.3966 -2.2312
 1645TIP3   OH226349   3.580   6.276  14.803 -0.8738 -0.5257  0.6964
 1645TIP3    H126350   3.571   6.232  14.719 -0.7662 -0.2629  0.5445
 1645TIP3    H226351   3.659   6.240  14.842 -1.4557 -1.3673  1.1265
 1646TIP3   OH226352   3.911   5.524   0.243  0.4641 -0.3237 -0.2629
 1646TIP3    H126353   3.895   5.430   0.250  0.4251 -0.2330  1.2170
 1646TIP3    H226354   3.825   5.561   0.220  0.8790 -0.7832 -2.9014
 1647TIP3   OH226355   6.939   0.427  14.022 -0.7426 -0.3299  0.3169
 1647TIP3    H126356   7.028   0.462  14.031 -1.0182 -0.0690  2.3015
 1647TIP3    H226357   6.925   0.424  13.927  1.6268 -1.0618 -0.0684
 1648TIP3   OH226358   5.191   3.385  11.180  0.3763 -0.5944  0.4075
 1648TIP3    H126359   5.184   3.476  11.152 -2.5416 -1.0427 -0.7160
 1648TIP3    H226360   5.267   3.351  11.133  0.0356  0.6571 -1.1316
 1649TIP3   OH226361   3.498   1.181  11.931  0.4330  0.1610 -0.0532
 1649TIP3    H126362   3.577   1.232  11.911 -0.5817  1.2699 -1.3801
 1649TIP3    H226363   3.485   1.194  12.025  1.6538  0.1927  0.1351
 1650TIP3   OH226364   1.885   0.729  10.756  0.2266 -0.4311 -0.0452
 1650TIP3    H126365   1.917   0.684  10.834 -2.5653 -0.8046  1.0023
 1650TIP3    H226366   1.866   0.659  10.694 -1.0596 -0.4811  0.3756
 1651TIP3   OH226367   6.801   1.261  14.983  0.3884 -0.2086  0.0746
 1651TIP3    H126368   6.785   1.320  14.909  0.6701 -0.7278 -0.4129
 1651TIP3    H226369   6.896   1.261  14.993  0.2750  0.8924  1.3093
 1652TIP3   OH226370   2.917   5.744  13.920  0.3234  0.2321 -0.0904
 1652TIP3    H126371   2.945   5.815  13.978 -0.9782 -0.1915  1.0880
 1652TIP3    H226372   2.834   5.774  13.884  1.0798  0.4669 -1.7521
 1653TIP3   OH226373   3.276   4.402  10.198  0.0220  0.5557 -0.5704
 1653TIP3    H126374   3.199   4.390  10.253  1.7993  1.6943  2.3797
 1653TIP3    H226375   3.328   4.323  10.211  0.5922  0.9602 -0.3768
 1654TIP3   OH226376   0.467   2.292  11.741  0.4205 -0.5030 -0.0925
 1654TIP3    H126377   0.516   2.230  11.795 -0.8002  0.1877  1.9160
 1654TIP3    H226378   0.396   2.241  11.704  0.0871 -0.5844  0.6311
 1655TIP3   OH226379   3.309   0.535  14.758 -0.1497  0.0214 -0.1093
 1655TIP3    H126380   3.351   0.574  14.834 -0.2076 -2.3479  1.2459
 1655TIP3    H226381   3.371   0.469  14.728 -0.7719 -0.0783 -1.2221
 1656TIP3   OH226382   2.837   2.202  10.305 -0.7186  0.4203 -0.3570
 1656TIP3    H126383   2.832   2.107  10.296 -1.1667  0.3164  0.8743
 1656TIP3    H226384   2.799   2.221  10.390 -1.0133  1.7550 -0.7560
 1657TIP3   OH226385   2.827   5.855  10.111 -0.0678  0.0979 -0.2769
 1657TIP3    H126386   2.809   5.948  10.094  0.8654  0.6265  1.2906
 1657TIP3    H226387   2.885   5.828  10.040  2.4445  1.7413  0.9987
 1658TIP3   OH226388   6.076   5.337   0.248  0.2017 -0.7412  0.0134
 1658TIP3    H126389   6.090   5.386   0.167 -2.1761  0.4312  0.2227
 1658TIP3    H226390   6.087   5.402   0.317 -1.1365 -0.9031  0.4051
 1659TIP3   OH226391   1.779   5.084  12.529  0.6983  0.2272  0.3330
 1659TIP3    H126392   1.686   5.098  12.545 -0.0897 -2.9184 -0.7905
 1659TIP3    H226393   1.812   5.047  12.611  0.2434 -1.3323 -0.1563
 1660TIP3   OH226394   5.923   6.994   1.831 -0.2146 -0.5658  0.3572
 1660TIP3    H126395   5.928   7.086   1.857  1.4005 -0.0276 -1.6518
 1660TIP3    H226396   5.971   6.947   1.899 -1.2370  0.0137  1.5156
 1661TIP3   OH226397   3.016   0.040  13.095  0.3890  0.3541  0.8121
 1661TIP3    H126398   2.939   0.077  13.138 -0.6723 -0.1945 -0.5598
 1661TIP3    H226399   3.011  -0.054  13.115 -0.2375  0.0529 -0.6052
 1662TIP3   OH226400   2.219   0.412  13.053 -0.2606 -0.4501 -0.3930
 1662TIP3    H126401   2.257   0.486  13.100 -1.1846 -0.5463  0.5529
 1662TIP3    H226402   2.289   0.346  13.052  0.4766  0.3288 -1.0233
 1663TIP3   OH226403   2.543   0.702  10.530 -0.0943  0.0982  0.6276
 1663TIP3    H126404   2.456   0.668  10.509  0.2315 -0.6178  0.4092
 1663TIP3    H226405   2.527   0.793  10.556 -1.0432 -0.3577  1.7289
 1664TIP3   OH226406   4.886   3.097   9.884 -0.1415  0.0327  0.2654
 1664TIP3    H126407   4.851   3.064   9.967 -0.3938 -1.3274 -0.3671
 1664TIP3    H226408   4.972   3.132   9.906 -0.6753  0.7466  1.3033
 1665TIP3   OH226409   2.248   2.065   0.291 -0.6881  0.6248  0.2701
 1665TIP3    H126410   2.186   2.069   0.218 -2.0740 -0.1776  1.3622
 1665TIP3    H226411   2.318   2.008   0.260 -0.8638  0.9148 -0.7027
 1666TIP3   OH226412   5.469   3.810  14.202  0.7179  0.4970 -0.5893
 1666TIP3    H126413   5.433   3.896  14.179  1.6405  1.6661  1.9143
 1666TIP3    H226414   5.401   3.769  14.255  0.9780  0.4494 -0.2907
 1667TIP3   OH226415   5.142   6.171  14.994  0.0700 -0.6539  0.0906
 1667TIP3    H126416   5.186   6.106  15.048  1.5249 -0.0684 -0.3426
 1667TIP3    H226417   5.194   6.175  14.914 -0.4379  0.4857 -0.2085
 1668TIP3   OH226418   4.254   6.220  12.507 -0.0887  0.4084 -0.0896
 1668TIP3    H126419   4.308   6.299  12.509  1.3919 -0.5756 -0.0041
 1668TIP3    H226420   4.286   6.171  12.432 -1.7082  0.3332 -0.7821
 1669TIP3   OH226421   3.424   5.887  11.309  0.0197  0.5046 -0.2022
 1669TIP3    H126422   3.332   5.865  11.324 -0.3291  0.3835 -2.2264
 1669TIP3    H226423   3.435   5.879  11.214  2.0983  0.6358 -0.0106
 1670TIP3   OH226424   3.113   5.213   2.990  0.4805  0.1719 -0.1302
 1670TIP3    H126425   3.183   5.219   3.055 -0.3893  1.2093  0.7635
 1670TIP3    H226426   3.034   5.241   3.037 -0.2604  0.5122 -1.5042
 1671TIP3   OH226427   5.277   3.261  12.191 -0.1299 -0.0573  0.2679
 1671TIP3    H126428   5.334   3.206  12.247  0.0524 -0.8056 -0.6319
 1671TIP3    H226429   5.326   3.270  12.109 -0.1072  1.5698  0.4254
 1672TIP3   OH226430   3.792   3.171  11.631 -0.0188 -0.2099  0.3778
 1672TIP3    H126431   3.844   3.201  11.557 -3.0615 -3.0506 -3.2724
 1672TIP3    H226432   3.704   3.203  11.614 -0.6258  0.3123  3.7342
 1673TIP3   OH226433   6.745   5.622  12.669 -0.0174 -0.4455 -0.4868
 1673TIP3    H126434   6.677   5.690  12.667  1.1151  0.7750  0.2784
 1673TIP3    H226435   6.700   5.544  12.700 -0.9149  0.5591  0.8853
 1674TIP3   OH226436   0.473   1.130  10.307 -0.2560 -0.0172 -0.5504
 1674TIP3    H126437   0.453   1.222  10.329 -1.4363 -0.5154  0.6126
 1674TIP3    H226438   0.425   1.115  10.225 -2.1496 -0.2619  0.5420
 1675TIP3   OH226439   0.641   0.539  13.062  0.3066 -0.0802 -0.2818
 1675TIP3    H126440   0.631   0.576  13.150  0.4445 -0.0895 -0.2617
 1675TIP3    H226441   0.655   0.615  13.005 -0.7940  0.0126 -0.4507
 1676TIP3   OH226442   6.942   1.383  13.461 -0.3424  0.7107  0.3138
 1676TIP3    H126443   6.997   1.415  13.533 -0.4672 -2.0687  1.8129
 1676TIP3    H226444   7.003   1.366  13.389  0.2596  0.7892  0.8009
 1677TIP3   OH226445   4.285   2.237  10.565  0.2641  0.3558 -0.3530
 1677TIP3    H126446   4.358   2.180  10.544 -0.6419 -1.4210  1.0464
 1677TIP3    H226447   4.264   2.217  10.657 -1.1898  1.6865 -0.3474
 1678TIP3   OH226448   2.991   3.318  10.132 -0.0633  0.4361 -0.1519
 1678TIP3    H126449   2.955   3.232  10.110 -1.9599  0.8680  1.0087
 1678TIP3    H226450   2.959   3.376  10.063  0.0414  0.4792 -0.1651
 1679TIP3   OH226451   4.004   3.175   2.744  0.3524  0.2242 -0.3048
 1679TIP3    H126452   4.070   3.118   2.783 -1.1557 -0.5637  1.2395
 1679TIP3    H226453   4.020   3.261   2.783  0.0809 -0.1178  0.5909
 1680TIP3   OH226454   0.704   7.093  11.945 -0.1628 -0.6812 -0.4838
 1680TIP3    H126455   0.795   7.084  11.973 -0.2222 -1.3486 -0.5021
 1680TIP3    H226456   0.653   7.094  12.027 -0.2408 -1.5518 -0.5096
 1681TIP3   OH226457   3.444   5.947  13.869 -0.5848  0.1720 -0.3349
 1681TIP3    H126458   3.362   5.911  13.901 -0.0961 -0.9088 -0.2550
 1681TIP3    H226459   3.512   5.888  13.903  0.1367  0.4189 -1.2854
 1682TIP3   OH226460   6.660   2.079   2.927 -0.1702 -0.0549 -0.1451
 1682TIP3    H126461   6.727   2.128   2.974  0.5918 -1.9711  0.9028
 1682TIP3    H226462   6.623   2.141   2.864  0.1130  2.0561  1.6832
 1683TIP3   OH226463   4.027   5.041   9.590 -0.5305 -0.3356  0.1681
 1683TIP3    H126464   4.085   5.116   9.578 -0.3965 -0.2337  1.3659
 1683TIP3    H226465   4.086   4.968   9.611 -0.7653 -0.4380  0.4778
 1684TIP3   OH226466   3.447   1.489  14.180  0.0348 -0.2361  0.1723
 1684TIP3    H126467   3.483   1.475  14.092 -1.4449  1.1265 -0.7066
 1684TIP3    H226468   3.454   1.403  14.222 -0.3866 -1.2715 -1.7334
 1685TIP3   OH226469   6.680   3.467  10.284 -0.1025 -0.3115  0.0050
 1685TIP3    H126470   6.653   3.552  10.320  1.9925 -0.5270  2.3812
 1685TIP3    H226471   6.764   3.486  10.241  0.6695 -1.1948  1.0456
 1686TIP3   OH226472   3.527   2.573   1.932 -0.0188 -0.4497 -0.0858
 1686TIP3    H126473   3.433   2.554   1.933 -0.4711  1.5817  1.3545
 1686TIP3    H226474   3.563   2.513   1.867 -2.9295  1.3796 -3.7606
 1687TIP3   OH226475   0.656   2.345  11.053 -0.1747 -1.3733  0.6526
 1687TIP3    H126476   0.708   2.423  11.074 -1.5799  0.3937 -1.8648
 1687TIP3    H226477   0.586   2.345  11.118 -0.0245 -0.6862  0.8239
 1688TIP3   OH226478   2.743   3.737  10.047  0.0985 -0.4337 -0.2123
 1688TIP3    H126479   2.770   3.649  10.074 -0.6722 -0.4653  0.5080
 1688TIP3    H226480   2.652   3.726  10.019  0.5229 -0.1779 -1.8033
 1689TIP3   OH226481   5.833   0.977  10.831  0.0233  0.5158 -0.1975
 1689TIP3    H126482   5.788   1.025  10.761  0.0345  0.8621  0.0287
 1689TIP3    H226483   5.765   0.960  10.896  0.0550  0.3663 -0.2031
 1690TIP3   OH226484   6.061   1.177  14.388 -0.2802 -0.8824 -0.0170
 1690TIP3    H126485   6.120   1.118  14.435 -0.5197 -0.4881  0.7944
 1690TIP3    H226486   5.974   1.143  14.404 -0.4002 -0.4612  0.2415
 1691TIP3   OH226487   5.807   2.185  11.695  0.1191  0.3521 -0.3575
 1691TIP3    H126488   5.727   2.174  11.643  0.2211 -0.4023 -0.3629
 1691TIP3    H226489   5.796   2.126  11.769  0.6101  0.3622 -0.2753
 1692TIP3   OH226490   6.370   4.053  12.739  0.0314  0.0839 -0.1903
 1692TIP3    H126491   6.301   4.009  12.689  0.6995  0.1567 -1.1786
 1692TIP3    H226492   6.397   4.126  12.685  2.3857 -1.1664 -0.8334
 1693TIP3   OH226493   0.409   6.631  14.361  0.0702  0.1469 -0.1883
 1693TIP3    H126494   0.333   6.586  14.400  0.4887  0.8072  1.4888
 1693TIP3    H226495   0.377   6.661  14.276 -1.8278  1.0108  0.7404
 1694TIP3   OH226496   4.063   2.533  13.669 -0.0362  0.0055 -0.4856
 1694TIP3    H126497   4.133   2.484  13.712  0.7267  0.1696 -1.5068
 1694TIP3    H226498   4.051   2.611  13.724 -0.3965 -0.7003  0.4527
 1695TIP3   OH226499   5.869   0.130  11.815 -0.5496 -0.3771 -0.1557
 1695TIP3    H126500   5.883   0.035  11.820  0.4113 -0.1857  1.9359
 1695TIP3    H226501   5.825   0.144  11.731 -1.5143 -2.7642 -0.1164
 1696TIP3   OH226502   4.408   3.408   0.386 -0.5316 -0.4170 -0.3725
 1696TIP3    H126503   4.424   3.497   0.353 -1.7117 -0.4315 -1.0534
 1696TIP3    H226504   4.432   3.411   0.478  2.3632 -0.2142 -1.0143
 1697TIP3   OH226505   4.456   4.882  14.184 -0.4023  0.0015  0.6187
 1697TIP3    H126506   4.505   4.801  14.183 -1.6894 -0.8176 -0.2873
 1697TIP3    H226507   4.522   4.951  14.186  0.7983 -1.0426 -1.0114
 1698TIP3   OH226508   7.102   3.253  13.717 -0.3686  0.5795 -0.6894
 1698TIP3    H126509   7.071   3.167  13.688 -0.6380  0.4678 -0.1021
 1698TIP3    H226510   7.087   3.311  13.643  1.2211 -0.1695 -1.6669
 1699TIP3   OH226511   4.767   4.239  13.982  0.2359 -0.2259  0.5340
 1699TIP3    H126512   4.701   4.285  13.930  0.9105  0.4043  0.2152
 1699TIP3    H226513   4.721   4.215  14.063 -0.9043 -1.4706 -0.4495
 1700TIP3   OH226514   3.794   5.564  10.330 -0.6622  0.5943  0.2871
 1700TIP3    H126515   3.863   5.621  10.294 -1.2842  0.5255 -1.0331
 1700TIP3    H226516   3.815   5.477  10.297 -0.3467  0.2287  1.4048
 1701TIP3   OH226517   0.512   0.018  12.736  0.1870  0.2576  0.1902
 1701TIP3    H126518   0.432  -0.034  12.746  0.4236 -0.4169 -1.1640
 1701TIP3    H226519   0.582  -0.047  12.727  0.6206  0.8151 -0.5412
 1702TIP3   OH226520   5.424   5.520  10.054  0.1956  0.0305 -0.0071
 1702TIP3    H126521   5.434   5.614  10.072 -3.2431  0.3189  1.0856
 1702TIP3    H226522   5.402   5.516   9.961  0.4305  0.2596 -0.0766
 1703TIP3   OH226523   1.996   2.325  14.266 -0.2551 -0.4718  0.0738
 1703TIP3    H126524   2.080   2.364  14.242 -0.0478  0.8528  2.6698
 1703TIP3    H226525   1.938   2.350  14.194  1.0814  0.2962 -0.7961
 1704TIP3   OH226526   4.135   6.522  11.005  0.1664  0.5970 -0.6336
 1704TIP3    H126527   4.078   6.503  10.931  2.3097 -0.3852 -2.1397
 1704TIP3    H226528   4.188   6.597  10.976 -1.5779  2.8127  1.5037
 1705TIP3   OH226529   4.848   0.395  10.087  0.4081 -0.3706  1.1308
 1705TIP3    H126530   4.885   0.334  10.023 -1.8919  0.3777 -1.0864
 1705TIP3    H226531   4.867   0.481  10.051  0.2918  0.1285  2.2317
 1706TIP3   OH226532   5.445   0.221   9.864  0.4053  0.3423 -0.1756
 1706TIP3    H126533   5.373   0.207   9.803  0.6913 -1.4967 -0.1650
 1706TIP3    H226534   5.426   0.162   9.938  1.1492  0.9545  0.5250
 1707TIP3   OH226535   3.482   2.359  11.533  0.1419 -0.3555 -0.6412
 1707TIP3    H126536   3.469   2.276  11.487  1.4598 -0.7661 -0.2998
 1707TIP3    H226537   3.576   2.362  11.551 -0.1061  0.5694  0.5722
 1708TIP3   OH226538   1.629   3.911  10.520  0.1545  0.2274  0.4629
 1708TIP3    H126539   1.652   3.835  10.573  0.0136  0.9312  1.5698
 1708TIP3    H226540   1.536   3.899  10.500 -0.4510  1.1515  2.4890
 1709TIP3   OH226541   6.998   0.869  11.472  0.3738 -0.5451 -0.0287
 1709TIP3    H126542   7.064   0.882  11.404  0.3106 -3.3710 -0.7617
 1709TIP3    H226543   7.048   0.846  11.551  0.3325 -1.7365 -0.3349
 1710TIP3   OH226544   0.477   5.692  13.164  0.1811 -0.1391 -0.2618
 1710TIP3    H126545   0.504   5.772  13.119 -0.1951 -1.2845 -2.7295
 1710TIP3    H226546   0.383   5.701  13.176  0.4346  0.6446  1.4429
 1711TIP3   OH226547   6.094   2.775  15.449  0.7310  0.3565  0.2546
 1711TIP3    H126548   6.087   2.691  15.494  2.3055  1.6214  3.1159
 1711TIP3    H226549   6.019   2.825  15.481 -0.8493 -0.1970 -2.2946
 1712TIP3   OH226550   1.892   5.087  10.615 -0.2335  0.4374  0.0942
 1712TIP3    H126551   1.876   5.001  10.575  1.0311  0.4608 -0.5175
 1712TIP3    H226552   1.844   5.148  10.558  0.0842  0.2838 -0.3463
 1713TIP3   OH226553   3.497   5.732  15.043  0.0071 -0.0693  0.3380
 1713TIP3    H126554   3.435   5.776  15.101  0.7741 -0.2447  1.2978
 1713TIP3    H226555   3.523   5.653  15.090 -0.7378 -1.1739 -1.0195
 1714TIP3   OH226556   5.143   2.892   5.542  0.6194  0.7929  0.4228
 1714TIP3    H126557   5.076   2.828   5.567  0.3073  0.3168 -1.5030
 1714TIP3    H226558   5.224   2.859   5.581  0.2794 -0.2676  0.2525
 1715TIP3   OH226559   6.629   3.828   2.104  0.4206 -0.1561 -0.0953
 1715TIP3    H126560   6.681   3.891   2.153  0.2045 -1.2057  1.5525
 1715TIP3    H226561   6.657   3.742   2.136  0.3137 -0.9118 -1.8691
 1716TIP3   OH226562   1.308   1.269  11.747  0.1382  0.1412 -0.2796
 1716TIP3    H126563   1.329   1.361  11.731 -1.5885  0.2643 -2.2385
 1716TIP3    H226564   1.393   1.227  11.758  0.9600  1.9797  0.9983
 1717TIP3   OH226565   6.549   6.061  13.726  0.3464 -0.2633 -0.5516
 1717TIP3    H126566   6.483   5.999  13.695 -0.0359  0.4525 -1.1864
 1717TIP3    H226567   6.550   6.049  13.821  0.0440 -1.0024 -0.6323
 1718TIP3   OH226568   3.960   1.323   6.109 -0.4146  0.0891  0.0781
 1718TIP3    H126569   4.029   1.256   6.105 -0.9825 -0.5648  0.6806
 1718TIP3    H226570   3.879   1.272   6.115 -1.0890  0.8350 -2.1223
 1719TIP3   OH226571   6.246   0.413  10.500  0.1808 -0.4746 -0.0273
 1719TIP3    H126572   6.282   0.325  10.488  0.4856 -0.3990  0.3214
 1719TIP3    H226573   6.316   0.471  10.470  1.0719 -0.2678  2.2440
 1720TIP3   OH226574   5.324   4.710  11.679  0.0041  0.2357  0.1195
 1720TIP3    H126575   5.268   4.778  11.717 -0.1990  0.7864 -1.1243
 1720TIP3    H226576   5.348   4.744  11.593  2.8102  0.3099  0.8373
 1721TIP3   OH226577   1.021   7.009   9.854 -0.2315  0.1243 -0.0663
 1721TIP3    H126578   0.985   6.921   9.852 -2.5016  0.9981 -2.3262
 1721TIP3    H226579   1.052   7.025   9.765 -1.0126  2.0195 -0.0476
 1722TIP3   OH226580   0.072   2.841  11.516 -0.0729 -0.6128  0.0974
 1722TIP3    H126581   0.135   2.840  11.444  0.2690 -1.5112  0.3920
 1722TIP3    H226582   0.103   2.772  11.575 -1.9517 -1.8544 -0.2898
 1723TIP3   OH226583   3.775   6.491   2.860  0.1697  0.5012  0.5282
 1723TIP3    H126584   3.776   6.396   2.869 -0.3529  0.4171 -0.2080
 1723TIP3    H226585   3.737   6.523   2.941 -1.2877 -0.0230  0.0856
 1724TIP3   OH226586   4.534   3.231   0.971  0.4104 -0.1966  0.5932
 1724TIP3    H126587   4.453   3.180   0.972  0.0300  0.1865 -2.0279
 1724TIP3    H226588   4.505   3.322   0.972  0.7690 -0.0561 -0.2807
 1725TIP3   OH226589   3.872   5.735  13.405  0.5651 -0.2052 -0.0077
 1725TIP3    H126590   3.919   5.817  13.417  1.1483 -0.4803 -0.3719
 1725TIP3    H226591   3.929   5.669  13.442 -0.4711 -0.3190  1.4669
 1726TIP3   OH226592   6.379   6.206  13.548  0.0565  0.4512  0.3135
 1726TIP3    H126593   6.319   6.133  13.559  0.1011  0.5268  1.1310
 1726TIP3    H226594   6.412   6.223  13.636  1.0205  0.6255 -0.0644
 1727TIP3   OH226595   2.158   4.866  14.462 -0.0397  0.0332 -0.4134
 1727TIP3    H126596   2.131   4.853  14.371  0.9213 -1.7225 -0.4768
 1727TIP3    H226597   2.098   4.812  14.514  1.3913 -1.5208 -0.3082
 1728TIP3   OH226598   3.308   5.989  12.123  0.1201 -0.1144 -0.0897
 1728TIP3    H126599   3.331   6.067  12.072  1.8363 -0.0596  0.6855
 1728TIP3    H226600   3.390   5.964  12.166 -0.6766 -1.6686  0.5951
 1729TIP3   OH226601   0.549   1.401  10.334 -0.4578 -0.0271  0.4864
 1729TIP3    H126602   0.522   1.429  10.246  1.0088  2.3156  0.6764
 1729TIP3    H226603   0.500   1.459  10.393  0.4545  0.1523  1.0829
 1730TIP3   OH226604   5.030   5.052   5.219  0.5276 -0.2077 -0.1287
 1730TIP3    H126605   4.980   5.018   5.293  0.6012  0.6176  0.3087
 1730TIP3    H226606   5.100   4.988   5.205 -1.6349 -2.3699 -1.9247
 1731TIP3   OH226607   4.485   1.430  12.164 -0.0833  0.1470  0.0511
 1731TIP3    H126608   4.505   1.483  12.087  0.2008 -0.4465 -0.2959
 1731TIP3    H226609   4.488   1.491  12.237  1.0466  0.4608 -0.2369
 1732TIP3   OH226610   5.342   5.974  11.523 -0.2387 -0.3825  0.4303
 1732TIP3    H126611   5.286   6.048  11.546 -0.0827  0.4063 -1.5697
 1732TIP3    H226612   5.390   6.003  11.446 -1.0008 -2.9544 -1.1253
 1733TIP3   OH226613   5.476   1.100   9.627 -0.4162  0.0400 -0.1501
 1733TIP3    H126614   5.487   1.194   9.643  1.1224 -0.2067  0.4468
 1733TIP3    H226615   5.494   1.090   9.534 -1.6233  0.4628 -0.4395
 1734TIP3   OH226616   0.547   4.209  10.021  0.1234  0.2188 -0.0848
 1734TIP3    H126617   0.479   4.276  10.014  0.7443  1.2145  2.3290
 1734TIP3    H226618   0.548   4.185  10.114  1.5583 -1.4037 -0.4646
 1735TIP3   OH226619   2.648   6.484  14.235  0.3528 -0.4963  0.1862
 1735TIP3    H126620   2.726   6.473  14.180  0.5523 -1.2950  0.6211
 1735TIP3    H226621   2.681   6.530  14.313  0.2653 -0.2890  0.1026
 1736TIP3   OH226622   0.348   2.802  10.127 -0.3490 -0.0870 -0.4217
 1736TIP3    H126623   0.358   2.725  10.072 -2.4613  0.7397 -2.1329
 1736TIP3    H226624   0.394   2.871  10.080 -2.0010  0.5851 -1.1189
 1737TIP3   OH226625   3.634   4.361  13.214  0.1963 -0.2028 -0.3671
 1737TIP3    H126626   3.603   4.287  13.162  0.1317 -0.7917  0.5007
 1737TIP3    H226627   3.652   4.429  13.149 -2.3669  0.0049 -0.9626
 1738TIP3   OH226628   6.638   0.039  14.031  0.2344 -0.7622 -0.6427
 1738TIP3    H126629   6.549   0.072  14.048  1.2271  2.1708 -0.7317
 1738TIP3    H226630   6.666   0.004  14.115 -0.3685 -0.0802 -0.1419
 1739TIP3   OH226631   6.709   3.735   0.489 -0.4141  0.3413  0.2613
 1739TIP3    H126632   6.773   3.806   0.498 -0.3778  0.2674  0.6355
 1739TIP3    H226633   6.743   3.679   0.420  0.5909 -0.3825  1.2985
 1740TIP3   OH226634   1.859   5.264  10.849 -0.1463 -0.2685 -0.5115
 1740TIP3    H126635   1.888   5.202  10.782 -0.3392 -0.3210 -0.5480
 1740TIP3    H226636   1.785   5.221  10.891  1.1684 -1.0863  1.0642
 1741TIP3   OH226637   6.320   2.142   2.371  0.4015  0.2898 -0.7328
 1741TIP3    H126638   6.281   2.194   2.441  1.7581  1.3954 -0.7522
 1741TIP3    H226639   6.281   2.055   2.381 -2.2513  1.3452 -0.9533
 1742TIP3   OH226640   5.231   0.736  11.909  0.2573 -0.0002 -0.7694
 1742TIP3    H126641   5.146   0.692  11.908 -0.8825  2.0635 -1.0374
 1742TIP3    H226642   5.214   0.820  11.952  2.3460  0.1806 -0.1505
 1743TIP3   OH226643   4.950   2.267   0.542  0.3327  0.0060 -0.2891
 1743TIP3    H126644   5.003   2.325   0.596  1.3614 -1.0393 -0.1516
 1743TIP3    H226645   4.951   2.307   0.455 -0.6621  1.2638  0.2470
 1744TIP3   OH226646   6.139   2.938  14.400  1.0087 -0.2008  0.2752
 1744TIP3    H126647   6.068   2.909  14.457 -0.8809  1.5759 -1.0723
 1744TIP3    H226648   6.194   2.860  14.389 -0.1711 -1.3651  2.1138
 1745TIP3   OH226649   0.435   3.636   3.509 -0.4833  0.0260  0.0928
 1745TIP3    H126650   0.489   3.587   3.572  0.1937  0.0889 -0.4262
 1745TIP3    H226651   0.368   3.678   3.562  2.2042  3.1437  1.3683
 1746TIP3   OH226652   0.096   5.862  15.141 -0.1593 -0.7085  0.2624
 1746TIP3    H126653   0.080   5.948  15.104 -0.9410 -1.1500 -0.4572
 1746TIP3    H226654   0.010   5.833  15.173 -0.0857 -1.5750 -0.2926
 1747TIP3   OH226655   5.559   0.168  14.562  0.3364  0.2541 -0.1208
 1747TIP3    H126656   5.530   0.115  14.637  2.3035  0.3132  0.7550
 1747TIP3    H226657   5.642   0.205  14.591  0.4145  1.4741 -1.8250
 1748TIP3   OH226658   1.681   4.024  15.461  0.3065  0.3253  0.4007
 1748TIP3    H126659   1.646   4.009  15.373 -0.9306  0.2943  0.8893
 1748TIP3    H226660   1.763   3.974  15.462  0.7170  0.9120 -0.9694
 1749TIP3   OH226661   3.478   5.343  13.758  0.6545 -0.1103  0.0766
 1749TIP3    H126662   3.514   5.277  13.817  1.4897  1.3416  1.2795
 1749TIP3    H226663   3.383   5.328  13.759  0.6441 -0.0925  1.8617
 1750TIP3   OH226664   3.987   2.799  11.186 -0.5292  0.0309  0.1072
 1750TIP3    H126665   3.897   2.802  11.220 -1.0447 -0.4739 -1.1501
 1750TIP3    H226666   3.982   2.742  11.109  0.4253  1.6734 -1.2632
 1751TIP3   OH226667   2.212   3.089  11.199  0.0878  0.3636  0.7751
 1751TIP3    H126668   2.229   3.002  11.163 -0.8297  0.1140  0.9249
 1751TIP3    H226669   2.163   3.134  11.130  0.6277  0.7975  0.6644
 1752TIP3   OH226670   6.540   6.004  13.149  0.0763  0.4084  0.0140
 1752TIP3    H126671   6.565   5.935  13.210  0.6362  0.3975 -0.2192
 1752TIP3    H226672   6.576   6.084  13.187  0.5631  0.3797 -0.3732
 1753TIP3   OH226673   1.091   3.632  13.175 -0.0527  0.3880 -0.2832
 1753TIP3    H126674   1.140   3.558  13.140 -1.4100 -1.0807  0.8153
 1753TIP3    H226675   1.159   3.694  13.203  1.1714 -1.2527  0.5407
 1754TIP3   OH226676   2.854   2.711  10.257  0.2212  0.2037 -0.1189
 1754TIP3    H126677   2.832   2.802  10.278  1.8759  0.4680  0.6182
 1754TIP3    H226678   2.950   2.710  10.252  0.2291 -1.5075 -0.1131
 1755TIP3   OH226679   1.105   2.100  10.437  0.6610 -0.1317  0.0684
 1755TIP3    H126680   1.178   2.058  10.390  0.6005 -0.4029  0.2173
 1755TIP3    H226681   1.053   2.027  10.470  0.4828  0.0636  0.2153
 1756TIP3   OH226682   0.476   0.554  14.134  0.2178 -0.7237 -0.3798
 1756TIP3    H126683   0.409   0.599  14.185  1.4637  0.3361  0.3895
 1756TIP3    H226684   0.472   0.595  14.047 -0.7292 -1.3171 -0.6302
 1757TIP3   OH226685   1.251   0.304   3.860 -0.0991 -0.6621 -0.2212
 1757TIP3    H126686   1.175   0.253   3.887 -0.5259  0.1517  0.1396
 1757TIP3    H226687   1.235   0.392   3.894  0.2558 -0.0863 -1.4774
 1758TIP3   OH226688   2.147   2.489  10.943  0.1335 -0.4221  0.6131
 1758TIP3    H126689   2.119   2.578  10.967 -1.0495 -0.2751 -1.1123
 1758TIP3    H226690   2.104   2.432  11.006 -0.7357  0.1204  0.5293
 1759TIP3   OH226691   6.740   3.471  14.855  0.3026  0.4220  0.1024
 1759TIP3    H126692   6.711   3.433  14.771  1.8230 -1.7461  0.4638
 1759TIP3    H226693   6.674   3.442  14.918 -0.4541  1.4488 -0.1924
 1760TIP3   OH226694   4.874   4.969  10.901 -0.5748  0.5662  0.2596
 1760TIP3    H126695   4.825   5.014  10.970 -1.8624 -0.1178 -0.1704
 1760TIP3    H226696   4.839   5.005  10.820  0.7855  1.2123 -0.0720
 1761TIP3   OH226697   0.816   5.059   1.105  0.4308  0.3738  0.1787
 1761TIP3    H126698   0.747   5.041   1.042 -0.8799  1.0467  1.3533
 1761TIP3    H226699   0.853   5.143   1.077  1.7098 -0.6003 -1.2015
 1762TIP3   OH226700   4.369   0.937  10.108 -0.3489  0.5224  0.5401
 1762TIP3    H126701   4.293   0.920  10.052  0.0671  3.3809 -1.0867
 1762TIP3    H226702   4.435   0.876  10.076 -1.0957 -0.0800  0.0894
 1763TIP3   OH226703   2.463   1.632  10.914  0.3903 -0.5646  0.5234
 1763TIP3    H126704   2.532   1.575  10.950  1.4903 -1.1109 -2.2030
 1763TIP3    H226705   2.423   1.580  10.844 -2.1747  0.1472  1.3548
 1764TIP3   OH226706   4.926   1.380  14.203 -0.8818 -0.0413  0.6292
 1764TIP3    H126707   4.966   1.400  14.118 -1.4676  1.1793  0.6088
 1764TIP3    H226708   4.999   1.386  14.265 -0.3928 -1.2306  0.1916
 1765TIP3   OH226709   6.185   3.233   9.560  0.0777  0.2887  0.2758
 1765TIP3    H126710   6.269   3.274   9.539 -0.1692  0.6691  0.0243
 1765TIP3    H226711   6.204   3.139   9.562 -0.0442  0.1097 -2.6077
 1766TIP3   OH226712   5.879   6.877   1.494 -0.5416  0.0167  0.2382
 1766TIP3    H126713   5.861   6.931   1.416  1.1366  0.9580  0.4685
 1766TIP3    H226714   5.906   6.940   1.561 -2.4417 -0.7180  1.8025
 1767TIP3   OH226715   3.933   3.617  10.726  0.0510  0.0865  0.7323
 1767TIP3    H126716   4.025   3.600  10.748 -0.0170 -0.8800  0.3391
 1767TIP3    H226717   3.936   3.688  10.662  0.4929  0.3409  1.0315
 1768TIP3   OH226718   1.890   2.911   1.340 -0.7418  0.0860 -0.3092
 1768TIP3    H126719   1.830   2.979   1.369  0.1296  1.6554 -2.0169
 1768TIP3    H226720   1.865   2.893   1.250  1.6311  1.2328 -1.2984
 1769TIP3   OH226721   4.575   6.069  13.476  0.1100  0.0916  0.2907
 1769TIP3    H126722   4.545   6.081  13.566 -3.4676 -0.0479 -0.7272
 1769TIP3    H226723   4.552   6.151  13.432  1.0157 -0.1723 -0.7225
 1770TIP3   OH226724   4.930   2.213  13.565 -0.0235  0.3194 -0.4366
 1770TIP3    H126725   5.017   2.179  13.541  0.2614  1.3901 -0.9679
 1770TIP3    H226726   4.875   2.135  13.570  0.8881 -0.3429 -0.4461
 1771TIP3   OH226727   3.591   2.451  12.725  0.0731  0.3395  0.0915
 1771TIP3    H126728   3.610   2.379  12.785 -0.2497  1.2399  1.3090
 1771TIP3    H226729   3.501   2.475  12.743  0.5435  1.8504  0.6020
 1772TIP3   OH226730   5.658   3.213   1.181 -0.5415 -0.3876 -0.6178
 1772TIP3    H126731   5.749   3.236   1.197 -1.1116  0.9656  0.9569
 1772TIP3    H226732   5.653   3.119   1.198  0.0126  0.0096  2.1728
 1773TIP3   OH226733   6.671   5.689   2.451  0.1623  0.4078  0.2442
 1773TIP3    H126734   6.750   5.640   2.430  1.1962  1.1321  2.2031
 1773TIP3    H226735   6.600   5.627   2.433  1.1780 -0.4213 -1.0937
 1774TIP3   OH226736   4.701   5.077  12.977 -0.3809 -0.3195 -0.3632
 1774TIP3    H126737   4.762   5.148  12.998  1.0744 -1.6717  0.1572
 1774TIP3    H226738   4.712   5.063  12.883  1.2172 -1.4949 -0.0351
 1775TIP3   OH226739   2.103   3.228   0.231  0.4660 -0.3434 -0.0975
 1775TIP3    H126740   2.037   3.182   0.283  0.6226  0.0089  0.4109
 1775TIP3    H226741   2.068   3.226   0.142 -1.7668  2.4702  0.5620
 1776TIP3   OH226742   6.722   5.136  12.653 -0.4435 -0.0971 -0.1657
 1776TIP3    H126743   6.718   5.103  12.743 -1.5729  0.3585 -0.0328
 1776TIP3    H226744   6.810   5.174  12.646 -0.6191  0.5775  1.0085
 1777TIP3   OH226745   1.286   3.150  11.886  0.3941 -0.7747  0.4935
 1777TIP3    H126746   1.238   3.087  11.939 -2.5731  1.7130  1.0094
 1777TIP3    H226747   1.230   3.167  11.811  2.6274 -1.0752 -1.3792
 1778TIP3   OH226748   2.449   1.872   0.223  0.3783  0.1801 -0.5007
 1778TIP3    H126749   2.445   1.779   0.243  1.4275  0.4488  1.1193
 1778TIP3    H226750   2.483   1.876   0.133  0.0113 -0.9903 -0.7033
 1779TIP3   OH226751   1.119   0.423   9.475  0.0745  0.0911  0.2323
 1779TIP3    H126752   1.210   0.449   9.462 -0.2114  0.2035 -1.8344
 1779TIP3    H226753   1.089   0.477   9.548  1.2022  1.2441 -0.1270
 1780TIP3   OH226754   4.154   0.622   9.669 -0.0483 -0.1401 -0.6366
 1780TIP3    H126755   4.150   0.664   9.755 -1.2448 -0.5102 -0.5009
 1780TIP3    H226756   4.232   0.660   9.628  0.0951  0.6270  0.3010
 1781TIP3   OH226757   6.354   5.438  12.130  0.5045 -0.2261 -0.1701
 1781TIP3    H126758   6.391   5.515  12.175  2.9878 -1.4313  0.0340
 1781TIP3    H226759   6.391   5.442  12.042 -0.4491 -0.4919 -0.5956
 1782TIP3   OH226760   1.856   4.228  11.302  0.1464  0.1056 -0.5601
 1782TIP3    H126761   1.914   4.270  11.366 -0.5692 -0.8064  0.7439
 1782TIP3    H226762   1.785   4.192  11.355  0.2608 -1.9432 -1.7252
 1783TIP3   OH226763   5.394   5.906  12.271 -0.0031  0.0523 -0.0756
 1783TIP3    H126764   5.432   5.818  12.268 -1.5926 -0.6583 -2.9369
 1783TIP3    H226765   5.303   5.892  12.298  0.3737  1.1906  2.0125
 1784TIP3   OH226766   0.575   3.986  12.717 -0.5039  0.6015  0.1822
 1784TIP3    H126767   0.522   3.908  12.701 -0.1024 -0.2549  2.6690
 1784TIP3    H226768   0.526   4.035  12.783  1.2954  0.2015  1.9143
 1785TIP3   OH226769   4.614   4.497  12.445 -0.0160 -0.2290 -0.6480
 1785TIP3    H126770   4.528   4.465  12.472  0.3733 -1.8803 -1.2270
 1785TIP3    H226771   4.667   4.417  12.436  1.6521  0.7594 -0.0362
 1786TIP3   OH226772   6.060   5.072  13.236 -0.4086 -0.2957  0.6704
 1786TIP3    H126773   6.083   5.151  13.188  1.5292 -1.6326 -0.7525
 1786TIP3    H226774   5.984   5.037  13.191  0.0513 -0.3668 -0.0671
 1787TIP3   OH226775   1.884   0.993  11.675 -0.1909 -0.0406 -0.3436
 1787TIP3    H126776   1.905   0.917  11.729 -0.3924 -1.3436 -1.9937
 1787TIP3    H226777   1.856   1.060  11.737  2.2623 -0.4913  1.3785
 1788TIP3   OH226778   0.611   0.058   0.229 -0.6058 -0.3144 -0.4031
 1788TIP3    H126779   0.651   0.000   0.163 -3.7299 -0.7024 -2.1556
 1788TIP3    H226780   0.589  -0.000   0.301  1.9171 -0.0673  0.6682
 1789TIP3   OH226781   2.002   1.226  10.392  0.1385  0.1633  0.7305
 1789TIP3    H126782   2.051   1.210  10.311 -0.4104  0.8988  0.2471
 1789TIP3    H226783   1.953   1.145  10.407  1.2213 -0.4640  1.0436
 1790TIP3   OH226784   1.326   2.339  13.036  0.1317 -0.4393 -0.0245
 1790TIP3    H126785   1.395   2.322  12.972  0.5459 -0.2581  0.3669
 1790TIP3    H226786   1.362   2.406  13.094 -0.3942 -0.3024  0.1540
 1791TIP3   OH226787   2.498   4.577  14.835 -0.0508  0.8168 -0.2229
 1791TIP3    H126788   2.478   4.522  14.760 -0.5683  0.1324  0.4014
 1791TIP3    H226789   2.593   4.580  14.839 -0.0185  0.0856 -0.3585
 1792TIP3   OH226790   5.521   1.394  13.855 -0.4410 -0.5099 -0.5554
 1792TIP3    H126791   5.540   1.471  13.908 -0.8920 -0.4715 -0.4471
 1792TIP3    H226792   5.595   1.387  13.795  0.6455 -1.1747  0.7788
 1793TIP3   OH226793   2.530   6.220   0.753  0.2101  0.3302  0.8124
 1793TIP3    H126794   2.528   6.300   0.805 -0.1551  1.1891 -0.4902
 1793TIP3    H226795   2.441   6.213   0.717  0.8894  0.6449 -1.0002
 1794TIP3   OH226796   5.157   1.149   1.004  0.0255  0.9087  0.2669
 1794TIP3    H126797   5.141   1.086   0.933 -1.3430  1.3146  0.1866
 1794TIP3    H226798   5.132   1.233   0.967  0.7657  1.3444  0.7434
 1795TIP3   OH226799   5.006   6.758   9.806 -0.3182 -0.1772 -0.2984
 1795TIP3    H126800   5.051   6.841   9.794  0.0669 -0.2921  0.3146
 1795TIP3    H226801   5.022   6.709   9.726  0.2393 -0.0252 -0.2801
 1796TIP3   OH226802   0.383   2.047   2.252 -0.0072 -0.5811  0.6190
 1796TIP3    H126803   0.358   1.992   2.327 -0.7263  0.1836  0.9621
 1796TIP3    H226804   0.375   2.136   2.285  0.4042 -0.2513 -0.1584
 1797TIP3   OH226805   7.146   2.407  11.392 -0.0765 -1.1022 -0.0403
 1797TIP3    H126806   7.070   2.427  11.338  1.1047  0.4012 -1.2524
 1797TIP3    H226807   7.116   2.418  11.482 -1.9197 -3.0203 -0.3615
 1798TIP3   OH226808   6.457   4.085  11.263  0.3674 -0.9557  0.2346
 1798TIP3    H126809   6.463   4.011  11.202 -0.3053 -0.4083 -0.5081
 1798TIP3    H226810   6.403   4.052  11.334  0.6525 -1.4045  0.2534
 1799TIP3   OH226811   0.729   6.035  10.209 -0.2419 -0.5727  0.8915
 1799TIP3    H126812   0.823   6.012  10.211 -0.2731 -0.7990  0.0954
 1799TIP3    H226813   0.727   6.129  10.192 -0.1504 -0.9706 -1.8250
 1800TIP3   OH226814   1.041   2.901  15.331  1.1778  0.6571 -0.6207
 1800TIP3    H126815   1.014   2.852  15.254  0.7555 -0.4112  0.1868
 1800TIP3    H226816   0.962   2.946  15.361  1.1582  0.4551 -0.3670
 1801TIP3   OH226817   4.958   5.199  10.437  0.3870  0.4919  0.3269
 1801TIP3    H126818   4.944   5.117  10.390 -1.2665  0.5494  0.6631
 1801TIP3    H226819   5.040   5.234  10.401  0.8035 -1.0080 -0.2312
 1802TIP3   OH226820   6.852   3.546  11.133  0.4159 -0.2490  0.0543
 1802TIP3    H126821   6.831   3.636  11.158 -1.2135 -0.7703  0.7152
 1802TIP3    H226822   6.921   3.555  11.067  0.6338  1.4450  0.4548
 1803TIP3   OH226823   1.955   3.284  10.546 -0.3592  0.6100 -0.0596
 1803TIP3    H126824   2.028   3.222  10.545 -0.9518 -0.1730  1.5179
 1803TIP3    H226825   1.915   3.275  10.459 -0.3473 -1.1416  0.0704
 1804TIP3   OH226826   5.118   3.121  11.168  0.3234  0.3453  0.3061
 1804TIP3    H126827   5.043   3.141  11.224  0.8786 -0.8347  1.5448
 1804TIP3    H226828   5.144   3.205  11.132 -0.5927  1.0224  1.1611
 1805TIP3   OH226829   3.891   3.506  11.658 -0.6429  0.0081 -0.2663
 1805TIP3    H126830   3.867   3.599  11.663 -0.7277 -0.0409  0.3092
 1805TIP3    H226831   3.880   3.474  11.748  2.7018  0.2859  0.3774
 1806TIP3   OH226832   6.763   0.380  15.072 -0.0883  0.4072 -0.2425
 1806TIP3    H126833   6.711   0.333  15.007  0.7414 -0.4191 -0.3390
 1806TIP3    H226834   6.805   0.311  15.123 -1.1525  1.0471  1.5621
 1807TIP3   OH226835   5.473   2.388  10.460  0.6850  0.7896 -0.1950
 1807TIP3    H126836   5.402   2.399  10.522 -1.4969 -0.4845 -2.3020
 1807TIP3    H226837   5.484   2.474  10.419 -1.0937  0.5501 -1.2540
 1808TIP3   OH226838   1.742   0.488   1.068  0.2563 -0.0536 -0.1422
 1808TIP3    H126839   1.797   0.420   1.105 -1.1846 -1.0289  0.3049
 1808TIP3    H226840   1.671   0.441   1.025 -1.0434  1.1309  0.5969
 1809TIP3   OH226841   5.606   5.215   9.738  0.4599 -0.9078 -0.1131
 1809TIP3    H126842   5.553   5.200   9.660 -0.6409  1.3031  0.1234
 1809TIP3    H226843   5.675   5.275   9.709  1.4899 -1.9321  0.1202
 1810TIP3   OH226844   0.752   5.629   0.752  0.1217 -0.2807 -0.1689
 1810TIP3    H126845   0.813   5.632   0.825  1.0417 -0.1582 -0.9204
 1810TIP3    H226846   0.807   5.629   0.674 -0.8453  0.0470 -0.8843
 1811TIP3   OH226847   0.100   0.315  13.726  0.4101 -0.2550 -0.2454
 1811TIP3    H126848   0.081   0.237  13.673  0.1492  0.1535 -0.7652
 1811TIP3    H226849   0.014   0.350  13.749  0.4770  1.2168 -2.0249
 1812TIP3   OH226850   0.413   0.245  12.206  0.7714 -0.2455 -0.6373
 1812TIP3    H126851   0.361   0.301  12.149  0.2859 -0.0961 -0.0595
 1812TIP3    H226852   0.504   0.262  12.181  0.5428 -0.8332 -1.9538
 1813TIP3   OH226853   0.878   0.531   0.139  0.1410  0.4044  0.5519
 1813TIP3    H126854   0.831   0.614   0.144  0.2233  0.8309 -3.2481
 1813TIP3    H226855   0.822   0.475   0.085  0.6599 -1.6662  2.0231
 1814TIP3   OH226856   0.762   2.010   0.852 -0.0364  0.6251 -0.5001
 1814TIP3    H126857   0.826   1.970   0.793  0.1027 -1.9290  1.2183
 1814TIP3    H226858   0.732   1.938   0.907 -1.7104  2.4730  1.1679
 1815TIP3   OH226859   0.597   0.974   0.034  0.5433  0.3642 -0.2404
 1815TIP3    H126860   0.689   1.002   0.034  1.5248 -2.5370  0.1557
 1815TIP3    H226861   0.598   0.888  -0.006 -1.7558 -0.4938  1.3482
 1816TIP3   OH226862   1.643   4.051  12.784 -0.8347 -0.3708 -0.3130
 1816TIP3    H126863   1.571   3.989  12.789  0.9961 -3.0869 -3.5591
 1816TIP3    H226864   1.721   3.999  12.803  0.4715  2.4490  3.0827
 1817TIP3   OH226865   5.944   2.368   9.423 -0.5734 -0.2188  0.2469
 1817TIP3    H126866   6.018   2.388   9.366  0.5454 -1.8443  1.0434
 1817TIP3    H226867   5.889   2.309   9.372 -0.2372 -0.6444  0.3649
 1818TIP3   OH226868   6.186   4.984  10.692 -0.3778 -0.3192 -0.1005
 1818TIP3    H126869   6.259   5.030  10.733 -0.1390 -1.4228  0.7581
 1818TIP3    H226870   6.108   5.020  10.736 -0.2444 -0.2644  0.0915
 1819TIP3   OH226871   4.725   5.771  12.582 -0.1204  0.1930 -0.2580
 1819TIP3    H126872   4.636   5.806  12.591 -0.4837 -0.7933  0.2064
 1819TIP3    H226873   4.768   5.793  12.664 -0.9391 -1.9670  0.8464
 1820TIP3   OH226874   6.731   3.917  14.470 -0.0499 -0.5256  0.0133
 1820TIP3    H126875   6.799   3.984  14.478 -0.7423  0.1898  0.1154
 1820TIP3    H226876   6.756   3.849  14.533 -0.9400  1.0868  2.2333
 1821TIP3   OH226877   6.396   2.702   2.210 -0.4470 -0.1946 -0.5712
 1821TIP3    H126878   6.325   2.643   2.183 -1.1259  0.5007 -0.3432
 1821TIP3    H226879   6.351   2.778   2.247  0.4264  0.1478 -0.1844
 1822TIP3   OH226880   5.603   4.726  11.550  0.2392  0.3224 -0.4602
 1822TIP3    H126881   5.586   4.704  11.641  1.4690  0.0719 -0.2631
 1822TIP3    H226882   5.521   4.763  11.518 -0.2440  0.3114  0.7106
 1823TIP3   OH226883   1.598   6.189  11.159 -0.1442 -0.8278 -0.5772
 1823TIP3    H126884   1.516   6.174  11.207 -0.2623  0.6418 -0.2491
 1823TIP3    H226885   1.654   6.115  11.182 -0.1015 -0.0774  2.0940
 1824TIP3   OH226886   4.279   1.431   1.190  0.4826 -0.4478  0.1139
 1824TIP3    H126887   4.207   1.377   1.225  2.2096 -1.8218  1.8212
 1824TIP3    H226888   4.251   1.521   1.204 -1.4602 -0.9072 -0.5346
 1825TIP3   OH226889   4.516   6.428  13.605 -0.3731  0.2231  0.4332
 1825TIP3    H126890   4.493   6.500  13.663 -3.6412 -0.6803  0.4709
 1825TIP3    H226891   4.448   6.429  13.538  0.9748 -1.2716 -1.0577
 1826TIP3   OH226892   2.499   2.826  12.080 -0.0364 -0.5499  0.1046
 1826TIP3    H126893   2.588   2.791  12.089  0.0092 -0.1324  1.7533
 1826TIP3    H226894   2.464   2.823  12.169 -1.1763  0.5833 -0.2772
 1827TIP3   OH226895   2.731   0.883   9.819  0.2139 -0.2379  0.4513
 1827TIP3    H126896   2.644   0.861   9.784  0.6963 -0.2529 -0.7603
 1827TIP3    H226897   2.785   0.807   9.799  1.0242  0.5999 -0.6807
 1828TIP3   OH226898   0.201   4.009   9.729 -0.6514  0.4398  0.6066
 1828TIP3    H126899   0.206   4.100   9.758 -2.4020  0.8002 -0.0771
 1828TIP3    H226900   0.145   3.966   9.794 -0.6509  0.0990  0.3869
 1829TIP3   OH226901   5.992   3.980  12.288 -0.1547 -0.4720  0.1693
 1829TIP3    H126902   6.053   3.981  12.361  1.4220 -0.5351 -1.0726
 1829TIP3    H226903   5.908   4.003  12.326  1.1802  2.7155  1.4931
 1830TIP3   OH226904   3.758   4.404  10.575  0.1896 -0.5458  0.1742
 1830TIP3    H126905   3.778   4.321  10.532  0.6176  0.2686 -1.2814
 1830TIP3    H226906   3.774   4.470  10.507  1.8572  0.9023  1.8792
 1831TIP3   OH226907   1.046   0.908  13.438 -0.2627 -0.1212 -0.1273
 1831TIP3    H126908   1.062   0.866  13.353 -0.4894  0.7066 -0.5890
 1831TIP3    H226909   1.037   1.001  13.418 -0.7583  0.0334  0.7512
 1832TIP3   OH226910   3.806   1.341  11.173  0.1826  0.1933 -0.0300
 1832TIP3    H126911   3.826   1.247  11.171  1.5139  0.4435  0.3423
 1832TIP3    H226912   3.718   1.348  11.137  0.0282 -1.2103  0.0311
 1833TIP3   OH226913   5.510   2.900   0.006  0.1997  0.3485 -0.0146
 1833TIP3    H126914   5.467   2.897  -0.080  2.5410  0.0482 -1.2342
 1833TIP3    H226915   5.444   2.941   0.063 -2.2451 -1.3753 -1.3957
 1834TIP3   OH226916   2.380   3.881  15.078  0.0902 -0.1649 -0.2521
 1834TIP3    H126917   2.463   3.925  15.057  1.5770 -1.7317  1.9294
 1834TIP3    H226918   2.336   3.941  15.139 -0.1280  0.3889 -0.9359
 1835TIP3   OH226919   6.954   2.624  12.698  0.3463  0.0603  0.0125
 1835TIP3    H126920   6.927   2.683  12.628  0.3480 -0.3473 -0.3380
 1835TIP3    H226921   6.982   2.544  12.652  0.1550 -0.2821  0.4858
 1836TIP3   OH226922   2.748   6.422   9.711 -0.1490  0.3715  0.3275
 1836TIP3    H126923   2.734   6.330   9.687 -0.0738  0.4299  0.0571
 1836TIP3    H226924   2.725   6.471   9.632  0.2543  0.5574  0.3241
 1837TIP3   OH226925   3.313   4.006  10.421 -0.0708 -0.0488  0.3153
 1837TIP3    H126926   3.279   3.959  10.344  1.0905  1.2987 -1.0921
 1837TIP3    H226927   3.265   3.969  10.495 -0.9570 -1.6804 -1.0031
 1838TIP3   OH226928   3.517   0.231   9.977 -0.5836  0.0295 -0.3333
 1838TIP3    H126929   3.535   0.297  10.044 -0.1473 -1.5012  1.1345
 1838TIP3    H226930   3.553   0.268   9.896  0.3457  1.2326  0.5960
 1839TIP3   OH226931   5.201   0.866  11.121  0.5469 -0.1212  0.3922
 1839TIP3    H126932   5.262   0.818  11.065 -1.2717 -0.2415 -1.6445
 1839TIP3    H226933   5.253   0.893  11.196  2.3854 -2.6475  0.1526
 1840TIP3   OH226934   0.147   0.948  10.384 -0.6366  0.1350 -0.0035
 1840TIP3    H126935   0.195   0.989  10.456 -1.1104 -0.4315  0.6634
 1840TIP3    H226936   0.196   0.970  10.306 -1.1497  2.4120  0.2353
 1841TIP3   OH226937   1.720   2.503  13.631  0.6348  0.4685  0.4047
 1841TIP3    H126938   1.719   2.598  13.621 -0.6831  0.2868 -2.1740
 1841TIP3    H226939   1.713   2.470  13.541  0.3199 -2.0537  1.2854
 1842TIP3   OH226940   4.715   1.146  12.079  0.2893 -0.1661 -0.4809
 1842TIP3    H126941   4.797   1.098  12.077  1.3559  1.6008 -2.0716
 1842TIP3    H226942   4.707   1.176  12.170  1.1981 -0.6867 -0.2185
 1843TIP3   OH226943   1.108   2.712  13.099 -0.5506  0.0579  0.2376
 1843TIP3    H126944   1.117   2.801  13.065 -1.7049 -0.7556 -2.4712
 1843TIP3    H226945   1.104   2.723  13.194 -0.2890  2.8371  0.0138
 1844TIP3   OH226946   3.064   3.877  12.498  0.0712  0.4926  0.1384
 1844TIP3    H126947   3.090   3.889  12.406 -0.8492  3.2360  0.1736
 1844TIP3    H226948   3.146   3.884  12.547  0.3276  0.8334 -0.3340
 1845TIP3   OH226949   5.510   1.691  10.888 -0.4493 -0.4664  0.0895
 1845TIP3    H126950   5.472   1.760  10.834  0.7758  1.2806  1.3474
 1845TIP3    H226951   5.605   1.702  10.879 -0.2220 -1.8151  0.5504
 1846TIP3   OH226952   3.397   3.594   9.304 -0.1027 -0.1028  0.2875
 1846TIP3    H126953   3.404   3.688   9.320  1.6447 -0.1480 -0.0203
 1846TIP3    H226954   3.327   3.565   9.363  0.3393  1.1392  1.4783
 1847TIP3   OH226955   4.742   5.995  13.260 -0.5078  0.3601 -0.5403
 1847TIP3    H126956   4.737   5.905  13.228  1.2837 -0.0226  0.1292
 1847TIP3    H226957   4.693   5.994  13.342 -0.9210  0.1236 -0.7872
 1848TIP3   OH226958   6.424   1.973  13.828 -0.9183  0.2782 -0.0739
 1848TIP3    H126959   6.516   1.951  13.808 -1.2689 -0.6735 -0.7628
 1848TIP3    H226960   6.401   1.914  13.899 -2.1483 -2.5293 -2.5505
 1849TIP3   OH226961   1.434   3.878  11.352  0.3512  0.1967  0.6970
 1849TIP3    H126962   1.439   3.946  11.285 -0.7562 -0.1029  0.2996
 1849TIP3    H226963   1.400   3.801  11.307 -2.1686  0.4957  1.9459
 1850TIP3   OH226964   1.154   7.094  12.567 -0.0197 -0.2666 -0.3978
 1850TIP3    H126965   1.114   7.110  12.653 -0.5885 -0.8273 -0.5482
 1850TIP3    H226966   1.141   7.000  12.552 -0.9148  0.0221 -1.5885
 1851TIP3   OH226967   4.157   6.629  12.621  0.0161  0.5100  0.3381
 1851TIP3    H126968   4.193   6.663  12.703 -1.9611  2.4070  0.5051
 1851TIP3    H226969   4.219   6.657  12.554  0.7482  0.4669  0.9833
 1852TIP3   OH226970   5.684   1.328   9.474 -0.0875  0.3282 -0.0409
 1852TIP3    H126971   5.679   1.405   9.418 -0.1334  1.8029  1.9151
 1852TIP3    H226972   5.602   1.327   9.522 -0.3941 -1.3742 -0.5213
 1853TIP3   OH226973   2.581   4.042   1.454 -0.0539 -0.0471 -0.0745
 1853TIP3    H126974   2.527   4.059   1.377 -0.6467  0.6978  0.4790
 1853TIP3    H226975   2.666   4.015   1.419 -0.1007  0.9330 -1.0077
 1854TIP3   OH226976   5.560   4.403  11.985  0.2239 -0.0954 -0.6395
 1854TIP3    H126977   5.562   4.405  12.081  0.9641  0.5210 -0.6581
 1854TIP3    H226978   5.491   4.340  11.964 -0.9250  0.7989  0.2906
 1855TIP3   OH226979   6.190   1.081  13.120 -0.2856 -0.4118 -0.3723
 1855TIP3    H126980   6.141   0.999  13.111 -1.0819 -0.1296  1.1145
 1855TIP3    H226981   6.260   1.061  13.182 -0.2527 -0.0668 -0.2949
 1856TIP3   OH226982   4.477   2.721  11.966 -0.0424 -0.1530  0.1272
 1856TIP3    H126983   4.446   2.811  11.956 -0.1201 -0.3142 -1.2743
 1856TIP3    H226984   4.496   2.692  11.877  0.6783 -1.2872  0.6279
 1857TIP3   OH226985   2.452   4.161  14.592 -0.5405 -0.2928  0.3233
 1857TIP3    H126986   2.424   4.085  14.643 -0.3190  0.1533  1.1154
 1857TIP3    H226987   2.506   4.212  14.652 -0.9965  0.6913 -0.0927
 1858TIP3   OH226988   4.044   6.723  15.014 -0.3831 -0.1506  0.8913
 1858TIP3    H126989   3.987   6.696  14.943 -0.0365  0.3530  0.4138
 1858TIP3    H226990   4.017   6.669  15.089 -0.7912 -0.6356  0.3999
 1859TIP3   OH226991   2.049   3.893  12.614 -0.1471  0.6542 -0.6950
 1859TIP3    H126992   2.132   3.890  12.568 -0.3099  2.3295 -1.1861
 1859TIP3    H226993   1.987   3.932  12.551 -0.9454  0.7632  0.1242
 1860TIP3   OH226994   3.597   7.086  12.654  0.5187 -0.6209  0.1159
 1860TIP3    H126995   3.552   7.124  12.729  1.5051  2.4086 -0.6727
 1860TIP3    H226996   3.529   7.075  12.588 -0.2067 -2.5602  1.1201
 1861TIP3   OH226997   4.076   5.880  12.198  0.3707  0.4253  0.1709
 1861TIP3    H126998   4.157   5.834  12.175  1.2827  0.9268  2.1796
 1861TIP3    H226999   4.058   5.852  12.288 -1.6697  0.3882 -0.2061
 1862TIP3   OH227000   1.210   0.925  14.730 -0.3182  0.4147 -0.4495
 1862TIP3    H127001   1.185   0.964  14.814 -0.9032 -0.8278 -0.0373
 1862TIP3    H227002   1.265   0.992  14.689  1.5711  0.3200  1.7304
 1863TIP3   OH227003   3.604   6.066  13.667  0.5054  0.2880 -0.4616
 1863TIP3    H127004   3.655   6.121  13.726 -1.7769  2.6990 -0.5653
 1863TIP3    H227005   3.528   6.039  13.718  0.3007 -0.6538 -1.2246
 1864TIP3   OH227006   4.274   2.231  14.966 -0.2574  0.0720  0.0560
 1864TIP3    H127007   4.282   2.171  14.892 -1.4350  0.1104 -0.1238
 1864TIP3    H227008   4.345   2.294  14.954 -0.2160 -0.1371 -0.8336
 1865TIP3   OH227009   0.093   4.843   2.527  0.2688  0.2583  0.1236
 1865TIP3    H127010   0.086   4.922   2.581  0.6748  0.6439 -0.3828
 1865TIP3    H227011   0.012   4.842   2.476  0.1380  0.1972  0.3315
 1866TIP3   OH227012   0.742   0.478  10.958 -0.1817  0.4006 -0.1314
 1866TIP3    H127013   0.679   0.409  10.979 -0.2192  0.6257  0.5211
 1866TIP3    H227014   0.743   0.481  10.862  0.3618 -1.0009 -0.1987
 1867TIP3   OH227015   4.151   2.978   0.105 -0.0436  0.1758 -0.0250
 1867TIP3    H127016   4.141   3.053   0.046 -3.1802 -1.1388 -1.4268
 1867TIP3    H227017   4.102   3.002   0.183  1.7400  0.7893  0.9725
 1868TIP3   OH227018   5.977   3.133  12.638  0.0958 -0.2332  0.2269
 1868TIP3    H127019   5.956   3.148  12.546  1.3913 -1.6822 -0.3589
 1868TIP3    H227020   5.983   3.038  12.646  0.8446 -0.1005  1.6060
 1869TIP3   OH227021   6.022   0.602  14.160 -0.2676  0.4761  0.2668
 1869TIP3    H127022   5.945   0.582  14.213 -0.8958 -2.2050 -1.4601
 1869TIP3    H227023   5.997   0.578  14.070  1.8459  1.6834 -0.7415
 1870TIP3   OH227024   0.143   3.675   9.845 -0.0218  0.7950 -0.3676
 1870TIP3    H127025   0.051   3.663   9.819 -0.5403 -1.7065  2.1284
 1870TIP3    H227026   0.191   3.609   9.796  0.5485  2.1289 -1.7006
 1871TIP3   OH227027   0.973   4.768  10.420  0.3996  0.0528 -0.4707
 1871TIP3    H127028   0.898   4.784  10.362 -0.3972 -0.1644  0.4783
 1871TIP3    H227029   0.951   4.687  10.466  1.0762  0.1637  0.0592
 1872TIP3   OH227030   6.151   1.885  13.737  0.1911 -0.3078 -0.4859
 1872TIP3    H127031   6.232   1.901  13.786  0.4603 -2.0131 -0.3192
 1872TIP3    H227032   6.082   1.913  13.797  0.6203  0.8809 -0.5115
 1873TIP3   OH227033   2.276   0.319  15.007 -0.3526 -0.2649  0.3563
 1873TIP3    H127034   2.344   0.289  14.947 -1.8330 -0.2369 -1.4324
 1873TIP3    H227035   2.324   0.352  15.083  1.6792  0.5748 -1.1808
 1874TIP3   OH227036   6.312   1.090  11.251 -0.1937 -0.4719  0.7957
 1874TIP3    H127037   6.322   1.025  11.322 -0.7828 -0.8126  0.5716
 1874TIP3    H227038   6.342   1.044  11.173  2.5070  0.5683  1.0975
 1875TIP3   OH227039   1.250   0.990  10.882 -0.2869 -0.4507 -1.3117
 1875TIP3    H127040   1.226   0.914  10.935 -2.0547  0.1241 -1.2404
 1875TIP3    H227041   1.169   1.039  10.872  0.7255  1.1952 -1.7556
 1876TIP3   OH227042   3.572   0.201  11.887  0.8617 -0.1890  0.2390
 1876TIP3    H127043   3.590   0.280  11.938  0.1040  0.6931 -0.8259
 1876TIP3    H227044   3.483   0.212  11.856  0.4527 -1.8530  0.7177
 1877TIP3   OH227045   1.056   6.329   0.736 -0.0819  0.2205 -0.3974
 1877TIP3    H127046   1.090   6.247   0.773 -0.7783  0.2086  0.2385
 1877TIP3    H227047   0.965   6.334   0.767 -0.1993  0.9952 -0.8308
 1878TIP3   OH227048   4.963   1.626  14.741  0.1307  0.0355 -0.0550
 1878TIP3    H127049   4.928   1.552  14.691  1.8973 -1.0741  0.2816
 1878TIP3    H227050   5.028   1.666  14.683  1.8476 -0.9689  1.0813
 1879TIP3   OH227051   7.022   3.535   1.637  0.5026  0.1291  0.3979
 1879TIP3    H127052   7.013   3.600   1.568  0.3046 -1.1296 -0.8011
 1879TIP3    H227053   6.945   3.479   1.629 -0.4354  0.9687  2.7866
 1880TIP3   OH227054   0.337   4.308  11.772  0.1338 -0.6083  0.7340
 1880TIP3    H127055   0.338   4.322  11.867  0.5378  2.5755  0.3924
 1880TIP3    H227056   0.272   4.239  11.759 -1.9940  0.6994  3.1878
 1881TIP3   OH227057   5.755   2.238   9.284 -0.0745  0.7021 -0.2212
 1881TIP3    H127058   5.761   2.181   9.207  0.3413 -1.4467  1.3001
 1881TIP3    H227059   5.665   2.230   9.314 -0.9115  3.3422 -1.6728
 1882TIP3   OH227060   3.404   5.842  10.406  0.2335 -1.0691  0.0351
 1882TIP3    H127061   3.425   5.876  10.319  1.0352 -0.7364  0.3444
 1882TIP3    H227062   3.482   5.792  10.431  0.5759 -0.0633  1.0941
 1883TIP3   OH227063   5.539   0.675  10.313  0.1218  0.2591 -0.5796
 1883TIP3    H127064   5.516   0.695  10.223  1.5667  1.6527 -0.6876
 1883TIP3    H227065   5.619   0.622  10.306 -0.4676 -0.7063 -0.1367
 1884TIP3   OH227066   2.533   4.857   2.717 -0.4700  0.4087 -0.0485
 1884TIP3    H127067   2.572   4.942   2.734  1.0487 -0.3065  0.2802
 1884TIP3    H227068   2.604   4.795   2.732 -1.2405 -0.8477 -1.2845
 1885TIP3   OH227069   0.735   0.767   1.632 -0.5881 -0.0341 -0.0753
 1885TIP3    H127070   0.677   0.796   1.561 -1.6117  0.4717  0.9242
 1885TIP3    H227071   0.751   0.847   1.682  0.5743 -0.2814 -0.0333
 1886TIP3   OH227072   5.258   6.271  14.766  0.7520 -0.5709  0.2328
 1886TIP3    H127073   5.352   6.285  14.754  0.5414  1.3571  0.5107
 1886TIP3    H227074   5.217   6.320  14.695 -0.1333  2.3284  2.5301
 1887TIP3   OH227075   6.976   5.124  10.849 -0.0112 -0.1269  0.1210
 1887TIP3    H127076   6.962   5.084  10.935  1.1658  0.1464  0.4502
 1887TIP3    H227077   7.061   5.090  10.821 -0.2389  0.0521 -0.7910
 1888TIP3   OH227078   5.761   1.902  11.406  0.0851  0.0675  0.8742
 1888TIP3    H127079   5.711   1.876  11.329  0.0160 -0.6085  1.1436
 1888TIP3    H227080   5.699   1.949  11.461  0.4017  1.5463  0.0311
 1889TIP3   OH227081   2.985   0.317  11.125  0.2972  0.1160  0.2058
 1889TIP3    H127082   3.048   0.387  11.142  1.7565 -1.1949  0.5091
 1889TIP3    H227083   2.929   0.315  11.202 -0.2060  1.3648 -0.1070
 1890TIP3   OH227084   6.233   0.059  15.025  0.0182 -0.1341 -0.0551
 1890TIP3    H127085   6.154   0.106  15.050 -0.4647 -1.1718  0.4431
 1890TIP3    H227086   6.213  -0.033  15.044  1.2891 -0.4306 -0.0614
 1891TIP3   OH227087   5.072   3.957  12.077 -0.0938  0.0715 -0.3198
 1891TIP3    H127088   4.994   3.982  12.127  0.4480 -0.3430  0.7769
 1891TIP3    H227089   5.128   4.034  12.080 -0.1253  0.0990 -0.4269
 1892TIP3   OH227090   5.198   4.671  12.507  0.1050  0.5662 -0.7816
 1892TIP3    H127091   5.191   4.694  12.600 -1.0978 -0.3404 -0.6197
 1892TIP3    H227092   5.128   4.607  12.493  1.6995 -1.0526 -1.7949
 1893TIP3   OH227093   5.222   5.332  12.860 -0.5374  0.3640  0.0376
 1893TIP3    H127094   5.244   5.243  12.885 -0.9441  0.3852  0.4749
 1893TIP3    H227095   5.290   5.386  12.902 -0.3682  0.2771 -0.1198
 1894TIP3   OH227096   6.657   0.628  10.318 -0.2104  0.2286  0.0606
 1894TIP3    H127097   6.681   0.661  10.231  0.2513 -0.1380  0.0456
 1894TIP3    H227098   6.658   0.533  10.308 -0.1607  0.1877  0.4665
 1895TIP3   OH227099   2.193   5.518  12.458  0.5045  0.3623  0.6535
 1895TIP3    H127100   2.245   5.591  12.491 -0.9888  0.6211  2.6270
 1895TIP3    H227101   2.146   5.485  12.535  0.4052 -2.0867 -0.3581
 1896TIP3   OH227102   2.017   5.904  11.845 -0.4121  0.1502  0.0743
 1896TIP3    H127103   1.944   5.900  11.908 -2.6642 -0.0707 -2.3917
 1896TIP3    H227104   2.002   5.985  11.797  0.4731 -0.3580 -1.0924
 1897TIP3   OH227105   2.515   1.306   9.610 -0.0357 -0.3079  0.1341
 1897TIP3    H127106   2.428   1.269   9.626 -0.1509 -0.0803  0.0268
 1897TIP3    H227107   2.545   1.334   9.697  1.4459 -3.6347  0.8925
 1898TIP3   OH227108   0.520   2.239  10.829 -0.1230  0.2585 -0.2796
 1898TIP3    H127109   0.440   2.186  10.829 -0.9112  1.4032 -0.0826
 1898TIP3    H227110   0.564   2.216  10.910 -0.5313  0.0153 -0.1241
 1899TIP3   OH227111   2.192   0.306  11.366  0.0764  0.6302  0.1337
 1899TIP3    H127112   2.183   0.220  11.324 -0.3935  2.3492 -3.6883
 1899TIP3    H227113   2.274   0.341  11.330  0.2240  1.8310  1.5741
 1900TIP3   OH227114   0.253   4.598  12.929 -0.9904 -0.2590  0.3584
 1900TIP3    H127115   0.224   4.689  12.936 -0.9865 -0.1992 -0.3518
 1900TIP3    H227116   0.246   4.578  12.836 -0.4776 -0.8193  0.4371
 1901TIP3   OH227117   5.781   1.364   1.490 -0.7872  0.4522  0.1167
 1901TIP3    H127118   5.706   1.409   1.529 -0.4280  0.2142  1.1250
 1901TIP3    H227119   5.854   1.425   1.501 -0.5017  0.0314  0.6228
 1902TIP3   OH227120   6.565   6.660   1.968 -0.0055 -0.0654  0.2344
 1902TIP3    H127121   6.651   6.702   1.965 -0.9410  1.9138  0.0264
 1902TIP3    H227122   6.550   6.630   1.879  0.0837  0.3725  0.0718
 1903TIP3   OH227123   5.912   3.858  14.816 -0.0706  0.1914  0.3705
 1903TIP3    H127124   5.900   3.934  14.760 -1.8240  0.0738  0.5467
 1903TIP3    H227125   5.864   3.879  14.896 -0.3608 -0.9750  0.5223
 1904TIP3   OH227126   3.503   4.392  11.462  0.6260  0.1252 -0.1105
 1904TIP3    H127127   3.493   4.337  11.384  1.8521  1.6886 -1.4512
 1904TIP3    H227128   3.423   4.377  11.512 -1.4039  0.8469 -2.8570
 1905TIP3   OH227129   6.743   5.545   9.613 -0.1255  0.2662  0.5415
 1905TIP3    H127130   6.797   5.623   9.619  0.0337  0.1182  1.1162
 1905TIP3    H227131   6.802   5.472   9.631  0.3156 -0.2553 -2.5062
 1906TIP3   OH227132   6.863   4.716  11.936 -0.1202  0.3303 -0.6173
 1906TIP3    H127133   6.878   4.629  11.898  1.3264  0.4218 -0.3282
 1906TIP3    H227134   6.944   4.735  11.984 -0.4379  1.8131 -0.6280
 1907TIP3   OH227135   3.328   0.904  11.111 -0.0361 -0.9990 -0.1973
 1907TIP3    H127136   3.346   0.997  11.095  1.9244 -0.8888  2.0126
 1907TIP3    H227137   3.355   0.860  11.031 -0.2391  0.2491 -0.9844
 1908TIP3   OH227138   1.071   4.046  10.644 -0.1690 -0.1007  0.8605
 1908TIP3    H127139   1.009   4.049  10.716 -1.7572 -0.6440 -0.4380
 1908TIP3    H227140   1.065   4.133  10.604 -1.5761 -0.7698 -0.4414
 1909TIP3   OH227141   3.217   5.271  15.285  0.5539 -0.5171  0.2963
 1909TIP3    H127142   3.188   5.201  15.343 -2.6202 -0.7039 -1.2843
 1909TIP3    H227143   3.182   5.246  15.199  1.1567  1.9490 -0.7490
 1910TIP3   OH227144   2.024   2.264  15.094 -0.3914  0.4273 -0.3178
 1910TIP3    H127145   2.077   2.344  15.106  0.8805 -0.0071 -2.5076
 1910TIP3    H227146   2.066   2.218  15.021 -2.0376 -1.4881 -0.1475
 1911TIP3   OH227147   1.781   2.310   0.598 -1.0247  0.2131  0.3405
 1911TIP3    H127148   1.853   2.280   0.542 -0.3294  0.6071  1.0038
 1911TIP3    H227149   1.716   2.240   0.593 -1.6342  0.8543 -2.0951
 1912TIP3   OH227150   6.632   2.972  11.982  0.4857  0.0921  0.6008
 1912TIP3    H127151   6.558   3.033  11.991 -0.1070 -0.7208  1.3809
 1912TIP3    H227152   6.708   3.024  12.007  0.3716  1.2625 -1.2265
 1913TIP3   OH227153   1.861   4.278  10.688  0.1016  0.6195 -0.6511
 1913TIP3    H127154   1.900   4.216  10.749  3.0469  1.2759 -1.7424
 1913TIP3    H227155   1.935   4.323  10.648 -1.8535  3.4541 -1.3741
 1914TIP3   OH227156   6.338   4.803   1.258  0.3000  0.5369  0.4997
 1914TIP3    H127157   6.387   4.785   1.178  1.2308 -0.0969  1.1948
 1914TIP3    H227158   6.398   4.781   1.329 -0.6881  0.5742  1.3788
 1915TIP3   OH227159   5.601   4.027   0.072  0.2518 -0.0057 -0.3263
 1915TIP3    H127160   5.636   4.074  -0.004  0.1071 -1.1551 -1.1389
 1915TIP3    H227161   5.677   4.011   0.127  0.5155  0.0592 -0.6647
 1916TIP3   OH227162   5.783   5.758   9.931  0.2250  0.5272  0.1314
 1916TIP3    H127163   5.775   5.668   9.900  1.1111  0.4750  0.0051
 1916TIP3    H227164   5.788   5.751  10.026 -0.6793  0.5325  0.1856
 1917TIP3   OH227165   6.909   4.179  15.149  0.1206  0.5433  0.2687
 1917TIP3    H127166   6.853   4.235  15.095  2.9931  2.8541 -0.5558
 1917TIP3    H227167   6.964   4.241  15.198  1.1682 -1.5775  1.9472
 1918TIP3   OH227168   4.507   0.888   3.437  0.1295  0.0104  0.1674
 1918TIP3    H127169   4.571   0.881   3.508 -1.1970  0.8347  1.4807
 1918TIP3    H227170   4.552   0.939   3.370  1.3088 -0.5497  0.4985
 1919TIP3   OH227171   4.742   5.793   9.456  0.7363  0.0493 -0.5012
 1919TIP3    H127172   4.758   5.739   9.534 -0.5135  0.6750  0.2304
 1919TIP3    H227173   4.814   5.855   9.455 -0.0323  1.0451  1.1082
 1920TIP3   OH227174   0.436   4.411  14.119 -0.2901 -0.0076  0.0693
 1920TIP3    H127175   0.450   4.460  14.038 -0.1907 -0.9943 -0.5206
 1920TIP3    H227176   0.391   4.331  14.092  2.6885 -1.9899  0.4686
 1921TIP3   OH227177   4.851   0.796  14.451  0.4327  0.5440 -0.3687
 1921TIP3    H127178   4.819   0.866  14.394  2.7539  1.0361 -1.2021
 1921TIP3    H227179   4.867   0.839  14.535 -2.8707 -0.1542  0.7315
 1922TIP3   OH227180   3.877   4.743  11.476 -0.7088  0.3825  0.7283
 1922TIP3    H127181   3.795   4.773  11.437 -0.9654 -1.1362  0.0203
 1922TIP3    H227182   3.879   4.649  11.458  1.4988  0.4899  0.1434
 1923TIP3   OH227183   5.985   3.994  12.712  0.5175 -0.1997 -0.3375
 1923TIP3    H127184   5.893   3.998  12.738  1.1510 -0.0077  2.1082
 1923TIP3    H227185   6.002   3.900  12.700  0.3136 -0.3342  0.4109
 1924TIP3   OH227186   4.458   2.315  14.754 -0.5995 -1.1364  0.0149
 1924TIP3    H127187   4.452   2.251  14.684  0.4807  1.0149 -2.1983
 1924TIP3    H227188   4.411   2.392  14.720  0.6587  0.2541  1.2630
 1925TIP3   OH227189   1.227   3.577  15.469  0.2357  0.2233  1.0123
 1925TIP3    H127190   1.133   3.564  15.478  0.2968 -1.4573 -0.2704
 1925TIP3    H227191   1.265   3.490  15.484  1.6329  0.9434  1.8722
 1926TIP3   OH227192   0.718   7.111  13.177 -0.6393  0.8862 -0.1529
 1926TIP3    H127193   0.635   7.079  13.143 -0.4482  0.3990 -0.1714
 1926TIP3    H227194   0.722   7.076  13.267 -0.3466  0.6976 -0.2356
 1927TIP3   OH227195   3.812   3.566   6.167 -0.2463 -0.5545 -0.8331
 1927TIP3    H127196   3.743   3.631   6.181  0.8296  0.6773 -1.0548
 1927TIP3    H227197   3.765   3.486   6.144 -1.6113  0.1489 -0.5891
 1928TIP3   OH227198   5.026   4.391  15.091 -0.0314  0.2163 -0.2817
 1928TIP3    H127199   4.983   4.314  15.054 -0.4022  0.9259 -1.3938
 1928TIP3    H227200   4.962   4.426  15.154  0.1515 -0.3854  0.2502
 1929TIP3   OH227201   2.717   5.879  13.798  0.4859 -0.3506 -0.0586
 1929TIP3    H127202   2.702   5.969  13.768 -0.0591 -0.4623 -0.1475
 1929TIP3    H227203   2.727   5.828  13.718  0.5887 -0.4008 -0.0138
 1930TIP3   OH227204   6.764   5.947   1.894 -0.2169  0.5592  0.0348
 1930TIP3    H127205   6.821   5.910   1.961 -0.7476 -0.3022  0.0095
 1930TIP3    H227206   6.794   6.038   1.885  1.6154 -0.0604 -0.4725
 1931TIP3   OH227207   2.798   4.862  10.062 -0.4917 -0.1535 -0.4169
 1931TIP3    H127208   2.765   4.781  10.024  0.2286 -1.6271  1.8554
 1931TIP3    H227209   2.883   4.875  10.021  0.4796 -1.9614  0.8536
 1932TIP3   OH227210   3.258   4.263  15.144  0.6667 -0.3187 -0.1876
 1932TIP3    H127211   3.186   4.259  15.082  0.3805 -1.0857  0.1872
 1932TIP3    H227212   3.290   4.173  15.150  1.2329 -0.1029  0.1444
 1933TIP3   OH227213   3.138   1.721  11.745  0.4794  0.2557  0.0678
 1933TIP3    H127214   3.224   1.746  11.712  0.8839  0.0413  0.9260
 1933TIP3    H227215   3.088   1.698  11.667  1.1951  0.3976 -0.4395
 1934TIP3   OH227216   3.959   0.075  10.702 -0.5644 -0.8557 -0.0503
 1934TIP3    H127217   4.027   0.123  10.749  1.0884 -3.1398  0.0664
 1934TIP3    H227218   3.895   0.142  10.676  0.2590  0.9762  2.3120
 1935TIP3   OH227219   2.762   1.922  12.969  0.0121 -0.2823 -1.2156
 1935TIP3    H127220   2.778   1.828  12.974 -1.3506 -0.4802  1.1386
 1935TIP3    H227221   2.678   1.934  13.015 -1.5173  1.7250 -4.2360
 1936TIP3   OH227222   2.520   4.907  12.049  0.4034  0.1095 -0.1340
 1936TIP3    H127223   2.468   4.947  12.119  1.1878  1.5009 -0.3093
 1936TIP3    H227224   2.494   4.954  11.970  1.0480 -0.0032 -0.4166
 1937TIP3   OH227225   3.801   5.470   1.084  0.4812  0.7284  0.4451
 1937TIP3    H127226   3.801   5.460   0.989 -1.9248  0.7557  0.3871
 1937TIP3    H227227   3.873   5.530   1.102  1.1312  0.5277 -1.3280
 1938TIP3   OH227228   3.187   1.788   0.586  0.2108 -0.1121 -0.7042
 1938TIP3    H127229   3.149   1.840   0.656 -1.5290  1.3155 -2.5745
 1938TIP3    H227230   3.248   1.847   0.542 -1.6697  0.4987 -2.7514
 1939TIP3   OH227231   4.186   1.686  11.747 -0.1163  0.2078 -0.1847
 1939TIP3    H127232   4.256   1.751  11.744  0.3301 -0.2559  0.0749
 1939TIP3    H227233   4.143   1.692  11.662 -0.8216  1.6546  0.2400
 1940TIP3   OH227234   3.021   2.901  12.531 -0.7302  0.1994  0.0145
 1940TIP3    H127235   2.932   2.908  12.566 -0.3988 -0.1393  0.9535
 1940TIP3    H227236   3.071   2.965  12.581 -0.7787  1.6810 -1.7213
 1941TIP3   OH227237   6.466   5.819  11.225  0.1450  0.4833 -0.1024
 1941TIP3    H127238   6.550   5.832  11.269 -0.3594  1.8285  0.5111
 1941TIP3    H227239   6.438   5.731  11.252  1.0547  0.2674  0.1769
 1942TIP3   OH227240   4.937   0.889  11.039  0.5100 -0.4202  0.0037
 1942TIP3    H127241   5.027   0.889  11.071 -0.0535 -1.0151  1.7014
 1942TIP3    H227242   4.932   0.965  10.981  2.4445 -1.1424 -1.2259
 1943TIP3   OH227243   1.265   5.009   2.089  0.7046  0.0127 -0.2511
 1943TIP3    H127244   1.192   4.986   2.031  1.7949 -0.6116 -1.4128
 1943TIP3    H227245   1.226   5.012   2.176 -0.8840  0.4994 -0.9311
 1944TIP3   OH227246   0.705   4.963  10.575 -0.0600 -0.2221 -0.1467
 1944TIP3    H127247   0.632   4.913  10.537 -0.2794  0.7435 -1.0259
 1944TIP3    H227248   0.665   5.013  10.646 -0.5297  1.2191 -1.3815
 1945TIP3   OH227249   5.966   2.068  12.475 -0.2197  0.5736  0.3185
 1945TIP3    H127250   5.922   2.086  12.558 -3.5369 -0.6038 -0.9904
 1945TIP3    H227251   5.926   2.128  12.413 -0.4022 -0.9117 -1.0729
 1946TIP3   OH227252   1.470   4.119   2.445 -0.2685 -0.0631  0.0054
 1946TIP3    H127253   1.457   4.133   2.539 -2.0072  2.2680 -0.4705
 1946TIP3    H227254   1.402   4.056   2.420 -0.1646 -0.2590  0.2185
 1947TIP3   OH227255   3.455   2.423   0.175 -0.4699  0.6396 -0.4988
 1947TIP3    H127256   3.524   2.360   0.156  0.0202  1.5606 -1.9147
 1947TIP3    H227257   3.396   2.418   0.100 -1.5293  0.4428  0.3237
 1948TIP3   OH227258   4.771   3.586  11.064  0.7118 -0.5246  0.2385
 1948TIP3    H127259   4.797   3.598  10.973 -3.5286  0.0751 -1.1343
 1948TIP3    H227260   4.852   3.564  11.110  3.2966  0.5396 -3.3614
 1949TIP3   OH227261   0.838   0.664   5.344 -0.0009  0.5155 -0.2002
 1949TIP3    H127262   0.827   0.700   5.432 -1.0468 -0.0288 -0.0893
 1949TIP3    H227263   0.758   0.614   5.328  1.4427 -2.0033 -0.2400
 1950TIP3   OH227264   7.097   0.961   0.046 -0.4877  0.5120 -0.3019
 1950TIP3    H127265   7.050   0.983  -0.034 -0.8183  0.1385 -0.2090
 1950TIP3    H227266   7.151   0.886   0.023  0.3983  1.2012 -0.5274
 1951TIP3   OH227267   2.958   3.373   1.020 -0.1258  0.3165  0.0529
 1951TIP3    H127268   2.917   3.306   0.964  0.5687  0.5375 -0.7308
 1951TIP3    H227269   2.912   3.454   0.998  0.7449  0.5769 -0.8723
 1952TIP3   OH227270   1.131   7.002  11.389 -0.0204 -0.0827  0.9285
 1952TIP3    H127271   1.047   7.003  11.434 -0.6948  1.5862 -0.2716
 1952TIP3    H227272   1.129   7.079  11.333  1.6823 -0.8812 -0.3105
 1953TIP3   OH227273   5.834   1.968  10.207  0.0458 -0.1080 -0.5829
 1953TIP3    H127274   5.922   1.956  10.242  0.0641 -4.3980 -1.5128
 1953TIP3    H227275   5.845   1.959  10.112 -1.0829  2.5488 -1.0384
 1954TIP3   OH227276   5.447   6.063  10.675  0.0325 -0.0131 -0.0112
 1954TIP3    H127277   5.387   6.044  10.747 -2.0663 -0.8103 -1.8451
 1954TIP3    H227278   5.495   5.982  10.662  0.3957  0.1229  0.4421
 1955TIP3   OH227279   0.984   3.913   9.708  1.0273 -0.3906  0.1766
 1955TIP3    H127280   1.008   3.960   9.628 -0.3611  0.5543  0.2750
 1955TIP3    H227281   0.938   3.835   9.677  1.1140 -0.3937  0.0535
 1956TIP3   OH227282   3.560   5.877  10.113  0.0244  0.1721  0.2322
 1956TIP3    H127283   3.498   5.832  10.056  0.6467 -0.3946 -0.0049
 1956TIP3    H227284   3.637   5.892  10.058  0.7665 -0.6924  1.0095
 1957TIP3   OH227285   4.655   3.073  11.628  0.2501 -0.0281 -0.3769
 1957TIP3    H127286   4.656   3.142  11.562  1.1618  1.1359  0.8192
 1957TIP3    H227287   4.738   3.026  11.615  1.1085  1.0968  0.8151
 1958TIP3   OH227288   6.052   6.823  12.571  0.1957  0.0105  0.0199
 1958TIP3    H127289   5.991   6.775  12.515  1.3422  0.9111 -2.1344
 1958TIP3    H227290   6.075   6.900  12.519  0.5119  1.4904  2.2276
 1959TIP3   OH227291   7.137   6.436  11.399  0.4621  0.3409  0.2360
 1959TIP3    H127292   7.078   6.455  11.326  0.4919 -0.2768  0.0435
 1959TIP3    H227293   7.137   6.516  11.451  0.0440  0.6112 -0.1684
 1960TIP3   OH227294   6.246   0.465   0.877  0.6540 -0.1224  0.1736
 1960TIP3    H127295   6.227   0.480   0.969  0.9589  1.6711 -0.0313
 1960TIP3    H227296   6.334   0.500   0.864  0.7370 -0.6273 -0.7447
 1961TIP3   OH227297   4.901   1.693  10.554 -0.3075 -0.3797 -0.0698
 1961TIP3    H127298   4.825   1.727  10.601 -0.6853 -1.3346  0.0461
 1961TIP3    H227299   4.885   1.598  10.550  0.9677 -0.6163  0.1262
 1962TIP3   OH227300   2.308   1.794  12.885 -0.0190 -0.8229 -0.9723
 1962TIP3    H127301   2.380   1.836  12.932 -0.1350  1.3853 -2.6166
 1962TIP3    H227302   2.244   1.774  12.954  1.6210 -1.7786  0.3561
 1963TIP3   OH227303   5.001   6.043   0.874  0.0439 -0.3927  0.6988
 1963TIP3    H127304   4.989   6.048   0.779  0.7949  0.1760  0.6196
 1963TIP3    H227305   4.918   6.073   0.910 -0.1551 -0.3506  0.2186
 1964TIP3   OH227306   5.422   5.761  13.712 -0.1334  0.2929  0.5536
 1964TIP3    H127307   5.374   5.772  13.630  0.2402 -0.4072  0.2338
 1964TIP3    H227308   5.507   5.801  13.694  0.0604 -0.1408  0.4863
 1965TIP3   OH227309   2.420   6.905   2.142  0.8649  0.2689 -0.0990
 1965TIP3    H127310   2.457   6.846   2.207  2.1434 -1.7320 -2.4829
 1965TIP3    H227311   2.432   6.860   2.059 -2.2546  1.9181 -1.6235
 1966TIP3   OH227312   6.113   5.351  13.139 -0.0253  0.0316 -0.1253
 1966TIP3    H127313   6.069   5.376  13.058 -2.6469 -2.4613  0.3691
 1966TIP3    H227314   6.066   5.398  13.208 -1.2666 -1.6989  0.2942
 1967TIP3   OH227315   4.720   2.676   9.623  0.6975  0.3984 -0.5678
 1967TIP3    H127316   4.778   2.749   9.603  1.2355 -0.4466 -2.3154
 1967TIP3    H227317   4.679   2.654   9.539  0.6663 -1.3979 -0.1332
 1968TIP3   OH227318   3.254   0.087  13.298  0.0762  0.1046  0.2176
 1968TIP3    H127319   3.221   0.131  13.376  1.3594  2.1532 -0.3244
 1968TIP3    H227320   3.193   0.110  13.229 -0.3348 -0.6257  0.3296
 1969TIP3   OH227321   2.725   2.189  11.920  0.4601  0.5556  0.2178
 1969TIP3    H127322   2.816   2.215  11.928  0.5011  0.0894  1.5282
 1969TIP3    H227323   2.726   2.108  11.869  0.8991 -0.0122  1.0992
 1970TIP3   OH227324   4.828   7.084  12.901 -0.3670  0.1551 -0.3715
 1970TIP3    H127325   4.833   7.125  12.814 -1.3712 -0.7831 -0.9171
 1970TIP3    H227326   4.881   7.005  12.893  0.8917  0.8868  0.4155
 1971TIP3   OH227327   3.639   2.493   1.707 -0.0230  0.2843 -0.3321
 1971TIP3    H127328   3.576   2.501   1.635  1.7486  1.5825 -1.8679
 1971TIP3    H227329   3.725   2.495   1.664  1.1476  1.8820  1.8406
 1972TIP3   OH227330   6.444   1.194  10.302  0.1973 -0.4589 -0.0357
 1972TIP3    H127331   6.456   1.267  10.241  0.2083  0.8798  1.4980
 1972TIP3    H227332   6.357   1.161  10.283  0.2682 -0.1837 -0.8924
 1973TIP3   OH227333   0.233   4.749  11.458  0.0857  1.0389 -0.1435
 1973TIP3    H127334   0.265   4.726  11.371 -0.9581  3.6309 -1.3125
 1973TIP3    H227335   0.306   4.797  11.498  0.0575  1.0758 -0.1367
 1974TIP3   OH227336   6.908   2.381  13.396  0.3758 -0.4140 -0.2439
 1974TIP3    H127337   6.923   2.366  13.302  0.3999  0.0825 -0.3241
 1974TIP3    H227338   6.994   2.368  13.436  0.3090 -0.8909 -0.2556
 1975TIP3   OH227339   3.227   3.054  12.660  0.1559  0.2936 -0.7115
 1975TIP3    H127340   3.253   3.093  12.744 -0.6269  1.4000 -0.9528
 1975TIP3    H227341   3.308   3.021  12.623  1.0300  2.3621 -0.8038
 1976TIP3   OH227342   3.831   6.463  12.111 -0.2460  0.3429 -0.2681
 1976TIP3    H127343   3.833   6.495  12.201 -0.1021 -0.7080  0.1212
 1976TIP3    H227344   3.898   6.514  12.066  1.5367 -0.8521  0.8673
 1977TIP3   OH227345   4.186   7.100  10.516  0.1496  0.2465  0.1149
 1977TIP3    H127346   4.271   7.139  10.537  0.3916 -0.0379 -0.3308
 1977TIP3    H227347   4.156   7.064  10.600 -1.3249  3.6424  1.2131
 1978TIP3   OH227348   2.460   1.435  12.159  0.5276 -0.3240 -0.5390
 1978TIP3    H127349   2.403   1.507  12.188  0.0562 -1.7376  2.4133
 1978TIP3    H227350   2.422   1.407  12.075  0.9125  2.9395 -1.9366
 1979TIP3   OH227351   0.193   0.967  14.188  0.2462 -0.0132 -0.0076
 1979TIP3    H127352   0.183   1.062  14.196  0.1547  0.0010 -0.2690
 1979TIP3    H227353   0.131   0.942  14.120  0.2681 -0.2615  0.0628
 1980TIP3   OH227354   6.382   6.405  11.024  0.3669 -0.2269  0.6171
 1980TIP3    H127355   6.367   6.494  10.990  0.1752 -0.3044  0.5017
 1980TIP3    H227356   6.307   6.355  10.994  1.4941 -0.9640 -1.1603
 1981TIP3   OH227357   6.882   5.326   9.697 -0.5759 -0.0559  0.5123
 1981TIP3    H127358   6.804   5.284   9.732 -0.9095 -0.6812 -0.8961
 1981TIP3    H227359   6.946   5.321   9.767 -1.2150 -1.2392  1.0351
 1982TIP3   OH227360   1.879   1.660  11.671  0.0482 -0.0497 -0.1003
 1982TIP3    H127361   1.835   1.620  11.596 -0.5161  1.6377 -0.7302
 1982TIP3    H227362   1.939   1.724  11.633 -0.6048  1.1936  0.8852
 1983TIP3   OH227363   7.131   2.938  11.161  0.1113 -0.6647  0.4240
 1983TIP3    H127364   7.171   2.852  11.146  0.7603 -0.4893  1.0621
 1983TIP3    H227365   7.044   2.919  11.194 -0.2051 -1.0642 -0.6155
 1984TIP3   OH227366   0.483   4.175  13.643 -0.2826  0.1845 -0.2482
 1984TIP3    H127367   0.483   4.147  13.735 -2.5313  1.2547  0.1475
 1984TIP3    H227368   0.526   4.261  13.644 -1.7373  0.9453  0.1279
 1985TIP3   OH227369   6.440   4.803  14.765 -0.1779  0.4739  0.0694
 1985TIP3    H127370   6.524   4.815  14.807 -0.3664  0.0998  0.5565
 1985TIP3    H227371   6.403   4.724  14.805 -1.1456  1.1205  0.4979
 1986TIP3   OH227372   0.905   2.862  12.150  0.6914 -0.2630 -0.0403
 1986TIP3    H127373   0.871   2.873  12.239 -1.0593 -0.7492 -0.6220
 1986TIP3    H227374   0.893   2.769  12.130 -0.2908  0.0995 -1.2881
 1987TIP3   OH227375   1.354   0.041  13.552 -0.4702 -0.2012  0.1982
 1987TIP3    H127376   1.382   0.011  13.465 -0.1998 -1.0951  0.5887
 1987TIP3    H227377   1.330   0.133  13.538  0.2388 -0.1275 -0.6824
 1988TIP3   OH227378   5.012   0.233  13.824  0.4932  0.8830  0.5694
 1988TIP3    H127379   4.980   0.307  13.876 -0.1121 -0.8572  2.8571
 1988TIP3    H227380   4.940   0.213  13.765  0.1054  1.2581  0.8994
 1989TIP3   OH227381   0.619   3.973  14.479  0.3346 -0.2764 -0.8142
 1989TIP3    H127382   0.673   3.952  14.403  0.0681 -0.9786 -0.8201
 1989TIP3    H227383   0.612   4.068  14.478  1.0413 -0.2210 -1.1735
 1990TIP3   OH227384   6.505   4.693  12.461 -0.5168  0.1976  0.3049
 1990TIP3    H127385   6.448   4.729  12.393 -0.8734 -0.6947  0.1097
 1990TIP3    H227386   6.594   4.710  12.430 -0.6403  2.1690  0.9133
 1991TIP3   OH227387   4.547   3.374  13.165 -0.4551  0.5444  0.3653
 1991TIP3    H127388   4.523   3.355  13.074  0.5831  0.3377  0.1218
 1991TIP3    H227389   4.558   3.288  13.206 -0.2290  0.6363  0.4985
 1992TIP3   OH227390   4.070   0.873  14.488  0.4247 -0.2474  0.7073
 1992TIP3    H127391   4.135   0.813  14.525  0.2681 -0.1452  1.1544
 1992TIP3    H227392   4.048   0.836  14.403  0.6221 -0.6097  0.8144
 1993TIP3   OH227393   5.512   5.280  10.756  0.5165 -0.2642 -0.0069
 1993TIP3    H127394   5.514   5.328  10.839  0.8206  0.1457 -0.2511
 1993TIP3    H227395   5.516   5.348  10.689  1.2650 -0.6436 -0.3522
 1994TIP3   OH227396   6.219   0.462   1.152 -0.0501  0.0620 -0.4766
 1994TIP3    H127397   6.231   0.368   1.138  1.8399  0.1213  0.4056
 1994TIP3    H227398   6.251   0.478   1.241 -2.7289  1.1744  0.3919
 1995TIP3   OH227399   1.300   5.576  11.594  0.4159  0.2996 -0.2876
 1995TIP3    H127400   1.283   5.654  11.647 -1.2352 -0.4124  0.3010
 1995TIP3    H227401   1.215   5.552  11.558  1.2709 -0.0246 -2.2049
 1996TIP3   OH227402   1.537   0.136  13.297 -0.1653  0.3890  0.0449
 1996TIP3    H127403   1.524   0.223  13.259 -0.4611  0.4357  0.2558
 1996TIP3    H227404   1.487   0.078  13.240 -0.1706  0.3884  0.0507
 1997TIP3   OH227405   5.381   5.122  10.240  0.1899 -0.1541  0.3173
 1997TIP3    H127406   5.443   5.190  10.213 -0.3115  0.0503 -0.3381
 1997TIP3    H227407   5.399   5.048  10.181 -0.8573  0.2661 -0.5713
 1998TIP3   OH227408   0.081   3.377  11.118  0.0807  0.7906 -0.4059
 1998TIP3    H127409   0.150   3.429  11.161  2.5373 -0.7160 -2.2679
 1998TIP3    H227410   0.025   3.349  11.190  2.6535  0.3443  1.5958
 1999TIP3   OH227411   1.214   6.135  13.085  0.2658  0.3130 -0.1175
 1999TIP3    H127412   1.156   6.071  13.045  0.1502 -0.2476  0.9172
 1999TIP3    H227413   1.247   6.187  13.012 -0.6451 -0.0930 -0.8301
 2000TIP3   OH227414   0.887   4.277  14.924  0.1000 -0.1161 -0.4740
 2000TIP3    H127415   0.821   4.341  14.899 -0.8244 -0.1957  1.5617
 2000TIP3    H227416   0.942   4.323  14.987  1.4920 -0.3374 -1.4735
 2001TIP3   OH227417   1.477   2.166  10.454  0.0014  0.2148 -0.0293
 2001TIP3    H127418   1.521   2.188  10.536 -0.3700 -2.2163  0.9175
 2001TIP3    H227419   1.430   2.245  10.429  2.2486  1.8633  0.6455
 2002TIP3   OH227420   0.998   0.132   0.243 -0.0755 -0.5767 -0.3216
 2002TIP3    H127421   0.977   0.164   0.155 -2.1496 -2.2242 -0.5067
 2002TIP3    H227422   1.028   0.209   0.290 -0.7588  0.7390 -1.9430
 2003TIP3   OH227423   3.109   3.910  12.200  0.2804 -0.1869 -0.2717
 2003TIP3    H127424   3.167   3.934  12.128 -0.1961 -0.6185 -0.8083
 2003TIP3    H227425   3.022   3.934  12.170  0.0505 -0.5833  0.0650
 2004TIP3   OH227426   2.494   3.276  11.189  0.3082 -0.1523 -0.0107
 2004TIP3    H127427   2.456   3.214  11.126 -1.2107  0.0012  0.7101
 2004TIP3    H227428   2.446   3.357  11.176  0.3285  0.0343  0.9876
 2005TIP3   OH227429   5.142   1.737   1.075 -0.4440 -0.0382  0.5625
 2005TIP3    H127430   5.147   1.641   1.080  0.8395 -0.0394 -0.3921
 2005TIP3    H227431   5.222   1.768   1.118  0.5359  0.4884 -1.5126
 2006TIP3   OH227432   4.016   5.517  13.508  0.7727  0.2378 -0.4643
 2006TIP3    H127433   4.091   5.458  13.517  1.5276  1.0693 -1.0949
 2006TIP3    H227434   3.978   5.521  13.596 -0.5487 -2.7455 -0.7867
 2007TIP3   OH227435   1.635   4.011  10.899 -0.1999 -0.3906 -0.1441
 2007TIP3    H127436   1.705   4.019  10.834  0.5838  0.8678  0.8025
 2007TIP3    H227437   1.681   4.012  10.983 -1.3331  0.0374  0.4821
 2008TIP3   OH227438   1.728   3.748   0.682 -0.2707 -0.1910  0.5120
 2008TIP3    H127439   1.751   3.743   0.589 -0.2496  0.4236  0.4795
 2008TIP3    H227440   1.700   3.660   0.705 -0.3415 -0.3295 -0.0990
 2009TIP3   OH227441   3.006   5.726  13.658  0.3871  0.1298 -0.8720
 2009TIP3    H127442   2.975   5.786  13.726  0.7892  0.4632 -0.9867
 2009TIP3    H227443   3.094   5.702  13.685  0.1245 -0.6435 -0.6698
 2010TIP3   OH227444   4.361   6.847   9.611 -0.1128 -0.1023 -0.4675
 2010TIP3    H127445   4.439   6.884   9.652 -0.5178  0.9821 -0.6360
 2010TIP3    H227446   4.391   6.767   9.569  0.4459 -0.9541  1.4457
 2011TIP3   OH227447   1.746   1.617   9.719 -0.4614 -0.6769  0.3326
 2011TIP3    H127448   1.711   1.690   9.667 -1.2637 -0.9826  0.4252
 2011TIP3    H227449   1.670   1.562   9.737 -0.2841 -0.3918  2.1502
 2012TIP3   OH227450   3.439   3.702   0.354  0.5448  0.3113 -0.2694
 2012TIP3    H127451   3.414   3.791   0.327  0.0208  0.1399 -0.3561
 2012TIP3    H227452   3.371   3.676   0.415  0.8902  0.0981  0.0248
 2013TIP3   OH227453   3.811   0.292  12.168 -0.0610  0.0176 -0.0422
 2013TIP3    H127454   3.876   0.243  12.219 -1.2814  0.2084  1.7578
 2013TIP3    H227455   3.855   0.309  12.085  2.6124  1.0638  1.4681
 2014TIP3   OH227456   0.538   1.261  12.041  0.2003 -0.6814  0.3615
 2014TIP3    H127457   0.510   1.188  11.987 -0.2574 -0.6356  0.5328
 2014TIP3    H227458   0.607   1.304  11.990 -0.3699 -0.5117 -0.2831
 2015TIP3   OH227459   3.458   4.601   1.207  0.2997  0.0602  0.1984
 2015TIP3    H127460   3.429   4.689   1.183  0.8733  0.0782 -0.4724
 2015TIP3    H227461   3.551   4.610   1.224  0.2838 -0.3443  0.5159
 2016TIP3   OH227462   0.555   6.855   9.317 -0.3931 -0.4774 -0.4414
 2016TIP3    H127463   0.613   6.873   9.243 -0.9552 -0.5231 -0.9065
 2016TIP3    H227464   0.492   6.927   9.316 -0.1487 -0.2492  0.2609
 2017TIP3   OH227465   5.994   3.702  12.751 -0.0246 -0.0919  0.3188
 2017TIP3    H127466   6.004   3.634  12.818  0.9749  0.4080  0.6870
 2017TIP3    H227467   5.994   3.653  12.668 -0.9563 -0.6794  0.6460
 2018TIP3   OH227468   2.279   2.585   1.895  0.1088  0.0697  0.2858
 2018TIP3    H127469   2.233   2.669   1.904 -0.6252 -0.1949 -0.8795
 2018TIP3    H227470   2.271   2.563   1.803  1.5662 -0.5826  0.2868
 2019TIP3   OH227471   1.229   3.468  11.566  0.1619 -0.7306 -0.5672
 2019TIP3    H127472   1.252   3.533  11.632  0.1613 -0.0779 -1.1894
 2019TIP3    H227473   1.307   3.460  11.512  0.1554 -1.2408 -0.4981
 2020TIP3   OH227474   5.892   3.486  11.247 -0.2835 -0.3637  0.0215
 2020TIP3    H127475   5.923   3.489  11.337  0.3814  2.5413 -0.2069
 2020TIP3    H227476   5.963   3.443  11.199  0.8200  0.9188  0.4324
 2021TIP3   OH227477   2.460   1.469   2.300 -0.4519 -0.1200 -0.1850
 2021TIP3    H127478   2.497   1.431   2.220 -3.5195 -1.5844 -1.0336
 2021TIP3    H227479   2.447   1.561   2.278 -0.9252 -0.4243 -1.2624
 2022TIP3   OH227480   3.612   0.765  10.136 -0.6059  0.1639  0.3522
 2022TIP3    H127481   3.596   0.718  10.054 -1.1990  1.0121 -0.0249
 2022TIP3    H227482   3.589   0.702  10.204 -0.4363 -0.4286 -0.1285
 2023TIP3   OH227483   1.173   5.620   9.910  0.6676 -0.6188 -0.2786
 2023TIP3    H127484   1.198   5.556   9.843 -0.6775 -1.2223 -0.2311
 2023TIP3    H227485   1.245   5.683   9.911  2.6362 -2.7174  0.4527
 2024TIP3   OH227486   5.927   2.651   0.174 -0.1534  0.0811 -0.6715
 2024TIP3    H127487   5.879   2.674   0.254 -0.4663 -1.0195 -0.5333
 2024TIP3    H227488   5.942   2.557   0.181  0.2971  0.0689 -1.6593
 2025TIP3   OH227489   2.115   3.274  13.637 -0.5192 -0.3537  0.4753
 2025TIP3    H127490   2.170   3.240  13.707  0.1715 -1.3657 -0.5207
 2025TIP3    H227491   2.092   3.197  13.584 -1.0466  0.3692 -0.3855
 2026TIP3   OH227492   6.797   3.359  13.694 -0.0987  0.0232  0.5270
 2026TIP3    H127493   6.819   3.425  13.760  1.3459  0.2326 -0.1161
 2026TIP3    H227494   6.745   3.406  13.629  0.7223  0.4909  0.1933
 2027TIP3   OH227495   5.635   2.310  11.052 -0.1655  0.2411  0.1342
 2027TIP3    H127496   5.602   2.399  11.068 -2.5812 -0.1207 -2.0570
 2027TIP3    H227497   5.616   2.263  11.133  1.2842  1.6884  1.3888
 2028TIP3   OH227498   6.957   4.066  13.310 -0.4953 -0.8039  0.0166
 2028TIP3    H127499   6.885   4.103  13.362  2.1859  2.2433  1.8985
 2028TIP3    H227500   7.009   4.016  13.374  0.7330 -0.3050 -0.5717
 2029TIP3   OH227501   2.399   2.183   9.221  0.5513 -0.4808  0.0907
 2029TIP3    H127502   2.449   2.105   9.245  0.7103 -0.0897  1.0653
 2029TIP3    H227503   2.456   2.257   9.246  0.6410 -0.0367 -1.3229
 2030TIP3   OH227504   6.373   2.352  12.421  0.3077  0.4015  0.3712
 2030TIP3    H127505   6.390   2.262  12.449 -2.3330 -1.1804 -2.5400
 2030TIP3    H227506   6.445   2.372  12.361  1.0810  0.4018  1.2737
 2031TIP3   OH227507   3.359   3.861  10.752 -0.2112  0.8035  0.1622
 2031TIP3    H127508   3.406   3.832  10.830 -1.4507  0.6266  0.8559
 2031TIP3    H227509   3.391   3.950  10.737  1.4459  0.1872 -0.2759
 2032TIP3   OH227510   6.417   5.113  11.327  0.0416 -0.7401  0.3071
 2032TIP3    H127511   6.438   5.191  11.377 -2.6202 -0.2810  0.8774
 2032TIP3    H227512   6.480   5.047  11.358 -1.1880 -0.4060  4.1370
 2033TIP3   OH227513   3.761   4.213  11.701 -0.3289 -0.0769  0.4693
 2033TIP3    H127514   3.813   4.133  11.698 -0.6068 -0.2207 -1.9173
 2033TIP3    H227515   3.685   4.190  11.755 -0.8225 -1.7327 -0.8470
 2034TIP3   OH227516   6.584   2.463  11.554  0.3856 -0.9727 -0.4312
 2034TIP3    H127517   6.541   2.428  11.476  1.0614 -0.2263 -1.1653
 2034TIP3    H227518   6.617   2.548  11.526 -0.3462 -0.1880  1.0214
 2035TIP3   OH227519   5.186   4.395  11.696 -0.0338  0.4775 -0.2170
 2035TIP3    H127520   5.208   4.486  11.714  0.1212  0.8430 -1.9896
 2035TIP3    H227521   5.231   4.345  11.763  3.8921  1.4067 -1.8675
 2036TIP3   OH227522   3.048   6.090  11.899  0.0451 -0.0379 -0.6556
 2036TIP3    H127523   3.036   6.183  11.918 -1.6393 -0.0563 -1.4966
 2036TIP3    H227524   3.137   6.084  11.864 -0.0756  1.3739 -1.2617
 2037TIP3   OH227525   0.138   3.880  14.243  0.3847 -0.3117  0.0223
 2037TIP3    H127526   0.136   3.857  14.150  0.1937  0.6947 -0.2313
 2037TIP3    H227527   0.074   3.951  14.252  0.1008 -0.6675  0.9991
 2038TIP3   OH227528   4.848   5.045  11.921 -0.3128  0.3351  0.5397
 2038TIP3    H127529   4.820   5.010  12.006  1.1690 -0.1976  0.8418
 2038TIP3    H227530   4.944   5.048  11.927 -0.0222 -1.5517 -1.7995
 2039TIP3   OH227531   1.476   4.310   0.922 -0.2610 -0.3670 -0.2542
 2039TIP3    H127532   1.540   4.352   0.980 -1.7132  0.6594  0.6810
 2039TIP3    H227533   1.520   4.306   0.837  0.5697  1.5664  0.0250
 2040TIP3   OH227534   6.730   3.766  12.243 -0.0114  0.5589  0.4813
 2040TIP3    H127535   6.741   3.678  12.278 -1.0348  0.7804  1.4217
 2040TIP3    H227536   6.766   3.824  12.310 -1.0008  0.9387  0.7029
 2041TIP3   OH227537   5.236   6.497  12.574  0.3979  0.1922 -0.9365
 2041TIP3    H127538   5.269   6.409  12.555 -0.2667  0.0832 -1.6403
 2041TIP3    H227539   5.294   6.530  12.643  0.4095 -0.9370 -0.3877
 2042TIP3   OH227540   1.480   2.954  11.277 -0.1581 -0.2364 -0.1711
 2042TIP3    H127541   1.412   3.017  11.250 -0.1051 -0.3622 -0.6045
 2042TIP3    H227542   1.557   3.008  11.292 -0.4435 -0.0469  0.6726
 2043TIP3   OH227543   5.270   5.861   0.855  0.2560  0.3204  0.1169
 2043TIP3    H127544   5.178   5.877   0.833  0.2440  1.3737  0.8682
 2043TIP3    H227545   5.318   5.880   0.775 -0.2214 -0.8174 -0.4605
 2044TIP3   OH227546   0.099   5.241  10.878 -0.4214  0.3688 -0.0719
 2044TIP3    H127547   0.036   5.303  10.840 -0.5450 -0.1341 -0.6999
 2044TIP3    H227548   0.105   5.266  10.970 -0.9544  0.9095 -0.1814
 2045TIP3   OH227549   2.659   5.465   9.393  0.0319  0.1175 -0.4212
 2045TIP3    H127550   2.611   5.509   9.323 -0.5030  1.7226  0.8762
 2045TIP3    H227551   2.644   5.520   9.470  1.2126 -1.1746  0.7887
 2046TIP3   OH227552   6.364   0.692   0.075 -0.3413 -0.0721 -0.1475
 2046TIP3    H127553   6.455   0.693   0.105 -0.9067 -1.3224  1.8254
 2046TIP3    H227554   6.334   0.782   0.084  0.1096 -0.0462  1.2181
 2047TIP3   OH227555   3.852   1.135   2.413 -0.4799  0.7386 -0.0211
 2047TIP3    H127556   3.870   1.052   2.458 -0.5207  0.5233 -0.3946
 2047TIP3    H227557   3.921   1.194   2.443 -1.0531  0.8768  1.0432
 2048TIP3   OH227558   4.090   3.522  10.449 -0.5457  0.4158 -0.2660
 2048TIP3    H127559   4.139   3.543  10.370  1.9765  1.4958  1.4706
 2048TIP3    H227560   4.019   3.587  10.451 -0.5224  0.5025 -1.4897
 2049TIP3   OH227561   4.686   5.897  10.152  0.3027 -0.4799 -0.2118
 2049TIP3    H127562   4.772   5.901  10.111  1.0914  2.8214  1.4489
 2049TIP3    H227563   4.702   5.923  10.243 -2.2516 -1.3798  0.5738
 2050TIP3   OH227564   5.683   0.547  13.965 -0.0930  0.2668  0.6671
 2050TIP3    H127565   5.772   0.521  13.943 -0.8419 -2.8157  0.8226
 2050TIP3    H227566   5.643   0.568  13.880  0.8588  2.1650  0.6480
 2051TIP3   OH227567   5.427   1.657   4.034 -0.3117 -0.7726  0.2339
 2051TIP3    H127568   5.429   1.562   4.044  0.9256 -0.6750  1.0834
 2051TIP3    H227569   5.503   1.688   4.083  0.1676  0.5552 -1.2605
 2052TIP3   OH227570   5.606   1.272  15.363 -0.1597 -0.4511 -0.0794
 2052TIP3    H127571   5.600   1.194  15.309  0.3674 -1.0541  0.7057
 2052TIP3    H227572   5.580   1.243  15.451  2.9176 -0.5461  0.9284
 2053TIP3   OH227573   4.023   6.934  12.068  0.0208  0.3107  0.3432
 2053TIP3    H127574   4.092   6.999  12.082 -0.5455  0.7627  1.1507
 2053TIP3    H227575   4.045   6.893  11.985  0.1140  1.8941 -0.4467
 2054TIP3   OH227576   3.334   6.730  10.635 -0.1079 -0.1575  0.0274
 2054TIP3    H127577   3.294   6.808  10.597  0.0075  0.2392  0.6897
 2054TIP3    H227578   3.305   6.732  10.727  0.7316 -0.3254  0.3036
 2055TIP3   OH227579   6.983   5.969  12.760  0.1498  0.0427 -0.0429
 2055TIP3    H127580   6.974   5.885  12.715  0.2326 -0.7104  1.2995
 2055TIP3    H227581   7.047   5.954  12.829 -0.6675  0.8808  0.9503
 2056TIP3   OH227582   1.030   3.324   0.053  0.0028  0.3807  0.4869
 2056TIP3    H127583   1.116   3.284   0.060 -0.7707 -1.2795  1.0955
 2056TIP3    H227584   0.999   3.300  -0.034 -0.2388  0.0898  0.6477
 2057TIP3   OH227585   3.333   4.714  13.570 -0.3437  0.0418  0.6648
 2057TIP3    H127586   3.361   4.703  13.479  0.2086 -0.8980  0.9303
 2057TIP3    H227587   3.237   4.717  13.565 -0.3092  0.1815  0.0368
 2058TIP3   OH227588   1.397   6.001  14.281 -0.5364  0.0260  0.5233
 2058TIP3    H127589   1.378   6.072  14.220  0.0454 -0.4327 -0.1974
 2058TIP3    H227590   1.415   6.045  14.364 -0.4456  0.7033  0.1473
 2059TIP3   OH227591   0.682   3.414  11.378  0.2301  0.1233 -0.0425
 2059TIP3    H127592   0.630   3.493  11.392  0.1109 -0.0342  0.4155
 2059TIP3    H227593   0.653   3.381  11.293 -0.8176 -0.2617  0.4490
 2060TIP3   OH227594   3.664   4.729   0.356 -0.1937 -0.1987 -0.2380
 2060TIP3    H127595   3.704   4.737   0.270 -0.6677  0.5297 -0.3991
 2060TIP3    H227596   3.735   4.745   0.417  0.2525 -1.2089 -0.4762
 2061TIP3   OH227597   1.986   0.093  11.474  0.5410  0.0245  0.3112
 2061TIP3    H127598   1.936   0.041  11.536  0.7715  0.8065  1.1712
 2061TIP3    H227599   2.005   0.175  11.520  0.7617  0.6055 -0.7677
 2062TIP3   OH227600   2.491   4.338  14.123  0.0648 -0.1279 -0.3070
 2062TIP3    H127601   2.466   4.251  14.153 -0.9135  0.0980 -0.4409
 2062TIP3    H227602   2.558   4.322  14.056  2.8822 -0.6209  2.4077
 2063TIP3   OH227603   1.798   2.110  13.035  0.0607  0.3111  0.4710
 2063TIP3    H127604   1.760   2.198  13.039 -2.4244 -0.6505 -0.2056
 2063TIP3    H227605   1.859   2.114  12.962  0.6933  1.6934  1.0271
 2064TIP3   OH227606   6.768   4.530   2.489  0.2138  0.2249 -0.0250
 2064TIP3    H127607   6.819   4.580   2.553  0.8739  1.2648 -1.3292
 2064TIP3    H227608   6.679   4.532   2.524  0.1970  2.4011 -0.0329
 2065TIP3   OH227609   5.493   2.352  10.799 -0.3377  0.3937  0.1378
 2065TIP3    H127610   5.508   2.327  10.890 -1.7777 -0.5528  0.1352
 2065TIP3    H227611   5.459   2.441  10.804 -0.0120  0.5007  0.4911
 2066TIP3   OH227612   5.865   6.746  11.214 -0.4312  0.2570  0.2906
 2066TIP3    H127613   5.866   6.677  11.148 -2.2693  0.8946 -0.4794
 2066TIP3    H227614   5.874   6.827  11.163 -1.2086  0.7145  0.8524
 2067TIP3   OH227615   3.041   4.151  10.065 -0.4433 -0.0902  0.5147
 2067TIP3    H127616   3.019   4.240  10.092 -2.0466 -0.7066  1.3891
 2067TIP3    H227617   3.001   4.142   9.978 -0.0181  0.1399  0.2950
 2068TIP3   OH227618   2.647   0.798   0.130  0.2576 -0.4666  0.0512
 2068TIP3    H127619   2.570   0.755   0.167 -0.6940  1.5513  0.5473
 2068TIP3    H227620   2.708   0.807   0.203 -0.3480  0.7348  0.4271
 2069TIP3   OH227621   1.650   6.835  13.938  0.3661  0.0737 -0.7738
 2069TIP3    H127622   1.637   6.745  13.907  1.7264  0.0209 -1.2744
 2069TIP3    H227623   1.745   6.844  13.947  0.1918  1.1149  0.3566
 2070TIP3   OH227624   2.322   0.983   0.330 -0.1050 -0.8067  0.1976
 2070TIP3    H127625   2.400   0.994   0.385  2.6395  0.2824 -3.4591
 2070TIP3    H227626   2.264   1.055   0.355  1.9577  0.8836  0.4015
 2071TIP3   OH227627   4.108   6.215  10.152  0.2893  0.2340 -0.4169
 2071TIP3    H127628   4.093   6.202  10.246  1.3165 -0.6859 -0.3660
 2071TIP3    H227629   4.051   6.288  10.129 -2.4401 -1.5128  0.2446
 2072TIP3   OH227630   2.916   3.455  11.628 -0.0637  0.5224  0.2800
 2072TIP3    H127631   2.993   3.489  11.673  1.1419 -3.3148  1.5213
 2072TIP3    H227632   2.849   3.450  11.696  0.2377 -0.7801  0.5123
 2073TIP3   OH227633   0.796   6.168  12.181 -0.0081  0.3524  0.2314
 2073TIP3    H127634   0.719   6.133  12.226  0.8900 -0.4374  1.2119
 2073TIP3    H227635   0.769   6.254  12.149 -2.1793 -1.0110 -1.9390
 2074TIP3   OH227636   4.680   2.581   1.411 -0.0562  0.7122  0.0021
 2074TIP3    H127637   4.585   2.566   1.411 -0.1661  1.0863  1.7774
 2074TIP3    H227638   4.697   2.619   1.498  1.7589  0.3854 -0.1830
 2075TIP3   OH227639   5.724   1.676   1.535 -0.3292 -0.2201 -0.0517
 2075TIP3    H127640   5.654   1.612   1.550 -1.2459  0.7440 -0.1852
 2075TIP3    H227641   5.757   1.696   1.622  1.7883 -2.8201 -0.1256
 2076TIP3   OH227642   2.346   6.395   9.827  0.4576 -0.6155 -0.6512
 2076TIP3    H127643   2.400   6.473   9.840 -2.2975  1.4370 -0.7540
 2076TIP3    H227644   2.368   6.364   9.740 -0.1468  1.6014 -1.6593
 2077TIP3   OH227645   4.150   3.084  12.864 -0.3309  0.3740 -0.2816
 2077TIP3    H127646   4.187   3.090  12.952 -0.5772 -1.6845  0.0180
 2077TIP3    H227647   4.213   3.032  12.814 -1.3711 -0.6592 -0.5850
 2078TIP3   OH227648   1.011   0.257   3.581 -0.0697  0.1084 -0.4041
 2078TIP3    H127649   1.090   0.283   3.534 -0.5720  1.6169 -0.4384
 2078TIP3    H227650   0.970   0.339   3.607 -1.4539 -0.6630 -0.0746
 2079TIP3   OH227651   3.008   3.271  10.566 -0.5144  0.1319  0.1227
 2079TIP3    H127652   3.049   3.198  10.613  0.6158  1.2724  0.9943
 2079TIP3    H227653   3.013   3.344  10.627  1.1395  1.7233 -1.7550
 2080TIP3   OH227654   3.155   4.812   0.745 -0.5497 -0.1206  1.0596
 2080TIP3    H127655   3.227   4.768   0.699 -1.4978  0.7286 -1.4065
 2080TIP3    H227656   3.099   4.740   0.775 -0.5447 -0.7316 -0.2841
 2081TIP3   OH227657   3.789   2.394  12.499  0.1902 -0.1264  0.0794
 2081TIP3    H127658   3.827   2.482  12.499  1.5103 -0.6750 -0.2744
 2081TIP3    H227659   3.732   2.392  12.576  1.0621  0.6653  0.7734
 2082TIP3   OH227660   3.743   3.361  13.677  0.2433 -0.2431 -0.6715
 2082TIP3    H127661   3.797   3.337  13.752 -1.2775 -0.4127  0.4140
 2082TIP3    H227662   3.802   3.354  13.602  1.7861 -0.1429  0.4797
 2083TIP3   OH227663   5.360   1.978  12.728 -0.1037 -0.1215  0.0918
 2083TIP3    H127664   5.402   2.059  12.758  2.6537 -1.1535 -0.6676
 2083TIP3    H227665   5.368   1.982  12.632  1.3381 -1.8275  0.0791
 2084TIP3   OH227666   5.933   2.880  14.580 -0.4073  0.0460  0.6270
 2084TIP3    H127667   5.872   2.817  14.619  0.5541 -1.2718  0.0597
 2084TIP3    H227668   5.899   2.966  14.608 -0.5310 -0.7491  3.2552
 2085TIP3   OH227669   2.108   4.261  12.651  0.8150  0.1130 -0.6626
 2085TIP3    H127670   2.200   4.244  12.668  1.0196 -0.0875 -1.8895
 2085TIP3    H227671   2.104   4.352  12.622  0.6803  0.0163 -0.9542
 2086TIP3   OH227672   0.425   1.569  11.871  0.2789  0.2772 -0.4839
 2086TIP3    H127673   0.467   1.631  11.810  0.4563  0.4300 -0.2078
 2086TIP3    H227674   0.353   1.618  11.910 -0.3691 -0.0863 -1.1997
 2087TIP3   OH227675   4.787   1.444   1.076  0.3078 -0.1077  0.0900
 2087TIP3    H127676   4.829   1.523   1.111 -0.6224  0.9076 -0.9518
 2087TIP3    H227677   4.693   1.464   1.080  0.0606 -1.1411 -0.2653
 2088TIP3   OH227678   3.578   4.439  10.359  0.1837 -0.0732 -0.5024
 2088TIP3    H127679   3.524   4.361  10.344  1.7086 -1.2362 -0.2214
 2088TIP3    H227680   3.542   4.478  10.439  2.0992 -3.0619  2.0405
 2089TIP3   OH227681   2.290   2.184  10.343  0.0046 -0.1825  0.1647
 2089TIP3    H127682   2.218   2.125  10.320 -0.8425  0.4313  1.1540
 2089TIP3    H227683   2.257   2.271  10.322  0.8725  0.0298 -0.3497
 2090TIP3   OH227684   3.272   3.054  10.404 -0.6665 -0.1158 -0.0954
 2090TIP3    H127685   3.195   3.040  10.350 -2.0955  1.3925  1.4518
 2090TIP3    H227686   3.261   2.994  10.477  0.3935 -0.9289 -0.5790
 2091TIP3   OH227687   3.866   0.377  13.701 -0.3394 -0.3211 -0.5271
 2091TIP3    H127688   3.894   0.310  13.762  0.7352  0.1498 -0.4884
 2091TIP3    H227689   3.943   0.433  13.689 -0.9552  0.4062 -1.2158
 2092TIP3   OH227690   1.956   2.239  13.897  0.1811  0.0335 -0.2306
 2092TIP3    H127691   1.900   2.254  13.973 -1.4931  2.0619 -1.7596
 2092TIP3    H227692   2.027   2.302  13.907 -0.3882  0.7523 -0.6470
 2093TIP3   OH227693   6.356   3.670  13.274  0.2214 -0.7354 -0.1192
 2093TIP3    H127694   6.358   3.576  13.288  1.6255 -0.8427 -0.8816
 2093TIP3    H227695   6.290   3.683  13.206  0.2180 -1.2013 -0.2038
 2094TIP3   OH227696   1.457   2.609  12.067  0.4993 -0.1583  0.0638
 2094TIP3    H127697   1.508   2.530  12.048 -1.4774 -1.2347 -1.0322
 2094TIP3    H227698   1.400   2.584  12.140 -1.2278 -0.3120 -1.2702
 2095TIP3   OH227699   0.442   6.633   2.687 -0.2543 -0.1285  0.3474
 2095TIP3    H127700   0.457   6.653   2.595  2.7130 -0.3086  0.7113
 2095TIP3    H227701   0.399   6.711   2.722 -1.6038 -0.1315 -1.1804
 2096TIP3   OH227702   5.034   4.709  14.990  1.2004  0.5336 -0.3168
 2096TIP3    H127703   4.999   4.751  14.911  0.6077  0.7457  0.0502
 2096TIP3    H227704   4.957   4.671  15.033  1.4739  0.6692  0.3045
 2097TIP3   OH227705   2.063   5.755   1.077  0.9119 -0.1567 -0.0575
 2097TIP3    H127706   2.029   5.703   1.150  0.2562 -0.0557 -0.2862
 2097TIP3    H227707   2.014   5.837   1.081  1.1565  0.0037 -0.3665
 2098TIP3   OH227708   0.207   3.198  12.537  0.4833 -0.1573  0.0008
 2098TIP3    H127709   0.282   3.156  12.496  0.4943 -0.4768  0.3432
 2098TIP3    H227710   0.206   3.164  12.627  0.6954  0.8257  0.3934
 2099TIP3   OH227711   0.218   1.303   0.038  0.1021 -0.0261 -0.0372
 2099TIP3    H127712   0.284   1.318   0.107 -1.2636  1.6573  0.9985
 2099TIP3    H227713   0.232   1.212   0.011  0.8457 -0.6938  2.3310
 2100TIP3   OH227714   6.544   2.395  10.019  0.0199 -0.2738 -0.3227
 2100TIP3    H127715   6.560   2.332   9.949 -0.2571 -2.0624  1.1531
 2100TIP3    H227716   6.609   2.464  10.005  2.0435 -2.1347 -0.5572
 2101TIP3   OH227717   2.944   6.442  10.475  0.5401 -0.2087  0.0327
 2101TIP3    H127718   2.977   6.461  10.562  0.0299  0.6151  0.0566
 2101TIP3    H227719   2.975   6.515  10.421 -1.6184  0.8756  0.1663
 2102TIP3   OH227720   5.819   4.144  13.084 -0.2497  0.2818 -0.4140
 2102TIP3    H127721   5.748   4.156  13.021 -2.2491  3.3181  2.0771
 2102TIP3    H227722   5.839   4.233  13.115  0.5285 -0.9483  3.2162
 2103TIP3   OH227723   3.539   5.190  14.779 -0.2306  0.3319 -0.7730
 2103TIP3    H127724   3.581   5.122  14.831 -0.4758  1.1182  0.4976
 2103TIP3    H227725   3.489   5.241  14.843  0.5290  2.1422 -1.5707
 2104TIP3   OH227726   5.512   2.537   3.167  0.0885  0.2616 -0.2494
 2104TIP3    H127727   5.454   2.466   3.138  0.4091  1.2636 -3.9233
 2104TIP3    H227728   5.581   2.538   3.101  3.6297  0.0667  3.1394
 2105TIP3   OH227729   2.272   5.835  12.870 -0.1167  0.2136  0.0451
 2105TIP3    H127730   2.205   5.819  12.804  1.3309 -3.1557 -0.8467
 2105TIP3    H227731   2.327   5.904  12.832  0.3976 -1.2966 -2.1903
 2106TIP3   OH227732   2.162   1.228   0.217  0.2147 -0.5816  0.1439
 2106TIP3    H127733   2.129   1.229   0.307  1.0317 -1.8608  0.4909
 2106TIP3    H227734   2.126   1.148   0.179  0.4586 -0.4222 -0.4297
 2107TIP3   OH227735   3.281   6.206  10.704  0.6014  0.1818  0.0239
 2107TIP3    H127736   3.324   6.246  10.780  0.7550 -0.3110  0.2054
 2107TIP3    H227737   3.262   6.279  10.645  0.8546  0.5182  0.3559
 2108TIP3   OH227738   1.270   1.395  12.856 -0.3135  0.7702 -0.2452
 2108TIP3    H127739   1.285   1.486  12.831  1.0261  0.5163 -0.4297
 2108TIP3    H227740   1.317   1.344  12.790  0.8217  0.0096  1.0905
 2109TIP3   OH227741   5.946   6.034  10.025  0.6040  0.4895 -0.1746
 2109TIP3    H127742   6.023   6.018   9.970  0.7490  2.2344 -0.5439
 2109TIP3    H227743   5.890   5.958  10.011  1.3248  0.1852 -1.5488
 2110TIP3   OH227744   3.589   3.837  13.830  0.0831 -0.0586 -0.4492
 2110TIP3    H127745   3.509   3.850  13.882  0.2334  0.8840 -0.4462
 2110TIP3    H227746   3.651   3.900  13.865  1.1884 -1.4465  0.2314
 2111TIP3   OH227747   3.337   2.857  11.161  0.4383 -0.1340 -0.0581
 2111TIP3    H127748   3.266   2.920  11.170  1.6371  1.1004  1.2266
 2111TIP3    H227749   3.323   2.794  11.232 -0.2231 -0.8210 -0.7685
 2112TIP3   OH227750   2.462   6.261  14.023  0.0166 -0.2191 -0.4560
 2112TIP3    H127751   2.425   6.175  14.041 -1.3305  0.6960  1.5500
 2112TIP3    H227752   2.398   6.303  13.966 -0.7224  0.3623  0.7502
 2113TIP3   OH227753   5.559   2.447  14.271  0.0931  0.4045  0.2296
 2113TIP3    H127754   5.650   2.452  14.241  0.5982  0.4620  1.6935
 2113TIP3    H227755   5.515   2.392  14.206  1.3950 -0.4071  0.0037
 2114TIP3   OH227756   0.115   5.249  13.371 -0.0315  0.0276  0.5742
 2114TIP3    H127757   0.180   5.228  13.304 -1.1692  0.3721 -0.6932
 2114TIP3    H227758   0.138   5.194  13.446 -0.1834 -2.2715 -0.9807
 2115TIP3   OH227759   5.995   4.348  12.253  0.4248 -0.3803  0.0156
 2115TIP3    H127760   5.944   4.267  12.242 -1.1960  0.7609 -1.4056
 2115TIP3    H227761   6.037   4.361  12.168 -1.4211  1.5715 -0.6748
 2116TIP3   OH227762   7.145   3.663  11.452  0.8607  0.3246 -0.3033
 2116TIP3    H127763   7.090   3.584  11.453  0.4114  0.6330 -0.2145
 2116TIP3    H227764   7.234   3.630  11.444  0.5737 -0.1368 -2.0084
 2117TIP3   OH227765   0.741   2.187  14.954  0.0378  0.4444  0.5991
 2117TIP3    H127766   0.817   2.210  14.900  0.5336 -0.5709  0.8406
 2117TIP3    H227767   0.674   2.251  14.929  0.6233  0.7014 -0.3949
 2118TIP3   OH227768   4.649   2.675  11.340 -0.2428  0.2274  0.0849
 2118TIP3    H127769   4.614   2.586  11.341 -1.1781  0.5888  1.6350
 2118TIP3    H227770   4.666   2.696  11.431 -0.3194  1.7510 -0.2234
 2119TIP3   OH227771   3.622   0.707   9.565 -0.7900  0.1129 -0.7975
 2119TIP3    H127772   3.715   0.688   9.573 -1.3813 -3.3800 -0.8056
 2119TIP3    H227773   3.611   0.791   9.610  2.0470 -0.2410  0.7943
 2120TIP3   OH227774   0.699   4.471  14.827  0.3796  0.7939  0.2618
 2120TIP3    H127775   0.711   4.545  14.888 -1.1041  1.3131 -0.0249
 2120TIP3    H227776   0.604   4.464  14.817  0.5573  1.2974 -2.6641
 2121TIP3   OH227777   1.859   3.980  10.339  0.0988 -0.0976 -0.2023
 2121TIP3    H127778   1.896   3.955  10.424 -0.5721 -2.1840 -0.4592
 2121TIP3    H227779   1.768   3.950  10.344 -0.5322  1.5744 -0.9468
 2122TIP3   OH227780   6.124   6.301  10.895 -0.5431  0.3798 -0.1279
 2122TIP3    H127781   6.091   6.383  10.859 -0.4862  0.8551  0.8965
 2122TIP3    H227782   6.072   6.233  10.850 -0.6310  0.9642 -0.9290
 2123TIP3   OH227783   6.406   2.230  12.054  0.1613  0.5036 -0.3039
 2123TIP3    H127784   6.476   2.266  12.109  1.8210 -1.2623 -1.1826
 2123TIP3    H227785   6.399   2.139  12.080 -0.6647  0.2298 -1.4101
 2124TIP3   OH227786   0.106   4.649  14.030  0.2435  0.0690  0.3776
 2124TIP3    H127787   0.200   4.655  14.048  0.3498  1.2511 -0.4293
 2124TIP3    H227788   0.074   4.738  14.045 -0.5334 -0.0643 -0.4183
 2125TIP3   OH227789   6.718   1.468  11.368 -0.4827 -0.1231  0.6374
 2125TIP3    H127790   6.678   1.515  11.294  0.2008 -0.9371 -0.2754
 2125TIP3    H227791   6.645   1.452  11.428 -1.0593  0.5252  0.1236
 2126TIP3   OH227792   6.104   5.430  12.663 -0.0920  0.6185  0.3139
 2126TIP3    H127793   6.113   5.339  12.634  1.7485  0.6880  0.5629
 2126TIP3    H227794   6.101   5.481  12.583 -1.7191  0.3246  0.1549
 2127TIP3   OH227795   6.655   2.308  12.543 -0.0809  0.5283  0.1173
 2127TIP3    H127796   6.705   2.231  12.514 -0.1520 -0.2011  1.8466
 2127TIP3    H227797   6.688   2.327  12.630  0.7797  3.2442 -0.6954
 2128TIP3   OH227798   5.522   6.966  12.860  0.3158  0.3689  0.2141
 2128TIP3    H127799   5.447   7.021  12.838  0.1704  0.3975  0.7629
 2128TIP3    H227800   5.538   6.983  12.953 -1.0121 -1.9944  0.9753
 2129TIP3   OH227801   1.301   5.638  12.392  0.0478  0.0515 -0.6674
 2129TIP3    H127802   1.262   5.584  12.461 -1.8397  0.6949 -1.1650
 2129TIP3    H227803   1.301   5.581  12.314 -2.1475  0.7197 -1.2495
 2130TIP3   OH227804   2.414   2.427  11.290 -0.3677  0.1267 -0.1328
 2130TIP3    H127805   2.454   2.476  11.218 -0.0027  1.0285  0.6677
 2130TIP3    H227806   2.321   2.425  11.269 -0.3416  0.8838 -0.3442
 2131TIP3   OH227807   4.445   5.976  13.101  0.8265 -0.3015  0.2591
 2131TIP3    H127808   4.495   6.040  13.151  2.3538 -0.6577 -0.7441
 2131TIP3    H227809   4.447   6.010  13.011 -0.8383 -0.2838  0.2042
 2132TIP3   OH227810   1.010   6.982   0.996  0.6966 -0.1379  0.4164
 2132TIP3    H127811   0.950   7.041   0.949  0.6619 -0.2239  0.3529
 2132TIP3    H227812   0.953   6.924   1.045  0.7433  0.3726  1.0858
 2133TIP3   OH227813   2.474   0.271  13.880  0.1932 -0.0374 -0.6462
 2133TIP3    H127814   2.517   0.354  13.896  0.4430 -0.2957  0.0505
 2133TIP3    H227815   2.537   0.220  13.830 -0.1978  0.4004 -1.6257
 2134TIP3   OH227816   0.728   2.042  15.192 -0.0098 -0.6451 -1.1477
 2134TIP3    H127817   0.669   1.966  15.196 -1.4513  0.3814 -2.2522
 2134TIP3    H227818   0.727   2.069  15.100 -0.5077  1.4621 -0.5737
 2135TIP3   OH227819   6.253   1.358  10.790 -0.5840 -0.1529  1.0680
 2135TIP3    H127820   6.168   1.329  10.824 -0.5194  0.5422  1.8609
 2135TIP3    H227821   6.238   1.373  10.697 -0.6672 -2.4974  0.6430
 2136TIP3   OH227822   5.204   5.507  14.459 -0.0352  0.3751 -0.2241
 2136TIP3    H127823   5.226   5.587  14.412 -0.4427  0.9114  0.4971
 2136TIP3    H227824   5.288   5.466  14.479  0.1514  0.1682 -1.3518
 2137TIP3   OH227825   4.141   5.109   0.860  0.3382 -0.7809  0.0255
 2137TIP3    H127826   4.153   5.190   0.911  1.6769 -0.0907 -1.3150
 2137TIP3    H227827   4.165   5.039   0.921  0.1643 -0.1183  0.8862
 2138TIP3   OH227828   0.131   6.722  14.491  0.4643 -0.4169 -0.2060
 2138TIP3    H127829   0.062   6.756  14.434  0.2641 -1.8582 -0.8709
 2138TIP3    H227830   0.203   6.785  14.481 -0.0007 -0.0112 -1.1384
 2139TIP3   OH227831   0.764   6.119  11.552  0.1150  0.1081  0.1551
 2139TIP3    H127832   0.732   6.036  11.515 -0.4456  0.0998  0.6361
 2139TIP3    H227833   0.732   6.186  11.491  0.9024 -0.0559 -0.4457
 2140TIP3   OH227834   0.643   0.395  12.356 -0.0979 -0.6267 -0.2989
 2140TIP3    H127835   0.589   0.407  12.434  1.8327  0.7018  0.9087
 2140TIP3    H227836   0.672   0.304  12.361 -0.9662 -0.9129 -0.1829
 2141TIP3   OH227837   5.985   0.528  12.455 -0.0663 -0.3421  0.4233
 2141TIP3    H127838   5.994   0.455  12.517  0.1288 -1.8138 -1.2512
 2141TIP3    H227839   6.074   0.550  12.430 -0.1164  0.6081  1.0466
 2142TIP3   OH227840   6.334   3.787  10.305 -0.7323  0.1629  0.4008
 2142TIP3    H127841   6.371   3.858  10.253 -1.4335 -0.0994 -0.4752
 2142TIP3    H227842   6.284   3.830  10.374 -0.0854  0.5071  0.6707
 2143TIP3   OH227843   1.780   5.617   3.212  0.2321  0.5003 -0.0390
 2143TIP3    H127844   1.810   5.601   3.301 -1.5260 -3.2246  0.0499
 2143TIP3    H227845   1.849   5.580   3.157  0.3373  0.8975 -0.1788
 2144TIP3   OH227846   1.522   2.144  11.873  0.6008 -0.5251 -0.2485
 2144TIP3    H127847   1.617   2.156  11.874  0.4773  0.5776  1.1835
 2144TIP3    H227848   1.498   2.150  11.781  1.9326 -0.9795 -0.6471
 2145TIP3   OH227849   1.624   5.631   5.109 -0.4066 -0.0141 -0.2733
 2145TIP3    H127850   1.604   5.712   5.062 -0.3318 -0.0643 -0.3926
 2145TIP3    H227851   1.641   5.659   5.198  0.3200  0.1907 -0.4669
 2146TIP3   OH227852   3.442   0.375   4.412 -0.4309 -0.3971  0.4729
 2146TIP3    H127853   3.404   0.434   4.346  1.4760  0.2620 -0.1092
 2146TIP3    H227854   3.482   0.305   4.360  0.5162 -0.2199  0.9478
 2147TIP3   OH227855   5.645   0.405   9.907 -0.5354  0.3562 -0.0075
 2147TIP3    H127856   5.633   0.476   9.969 -1.4849  0.6744 -0.5436
 2147TIP3    H227857   5.556   0.379   9.882 -0.2243 -1.2623  0.4471
 2148TIP3   OH227858   4.011   0.666  11.469 -0.9231  0.1828  0.4084
 2148TIP3    H127859   4.062   0.727  11.417  0.3933 -0.9645  0.2891
 2148TIP3    H227860   3.920   0.684  11.446 -0.5351  1.6946 -0.0303
 2149TIP3   OH227861   0.991   1.639  13.087 -0.3279  0.6991  0.0547
 2149TIP3    H127862   0.987   1.592  13.004  1.6373 -1.0725  0.8633
 2149TIP3    H227863   0.942   1.584  13.148  0.5601  0.5268  0.6375
 2150TIP3   OH227864   4.223   1.891  10.015 -0.1729 -0.1972 -0.1257
 2150TIP3    H127865   4.142   1.890   9.965 -1.8256  1.3704  2.2853
 2150TIP3    H227866   4.271   1.967   9.982 -0.7036  0.1233 -0.1777
 2151TIP3   OH227867   2.939   3.972  10.921 -0.3059 -0.3115 -0.0766
 2151TIP3    H127868   2.917   4.032  10.991  1.9923 -0.4707  0.8759
 2151TIP3    H227869   2.966   4.028  10.848 -3.5090 -0.1104 -1.2892
 2152TIP3   OH227870   4.181   1.789  13.466  0.9259 -0.6048  0.0396
 2152TIP3    H127871   4.271   1.820  13.469  0.2927  1.2548  1.9793
 2152TIP3    H227872   4.131   1.863  13.433  0.1217 -1.8597 -1.7432
 2153TIP3   OH227873   4.506   4.286   0.927 -0.4652 -0.0036  0.3313
 2153TIP3    H127874   4.550   4.271   1.011 -0.3283 -0.4472  0.1874
 2153TIP3    H227875   4.566   4.343   0.878  0.2031 -0.9998 -0.0524
 2154TIP3   OH227876   5.895   2.521  11.582 -0.1044 -0.2165  0.0205
 2154TIP3    H127877   5.884   2.532  11.487  0.9541 -0.5661 -0.1521
 2154TIP3    H227878   5.963   2.454  11.591 -1.7550 -1.8611  1.0333
 2155TIP3   OH227879   0.052   6.258  11.620  0.0645  0.3879  0.4593
 2155TIP3    H127880   0.142   6.231  11.603 -0.3551  0.3078 -1.8865
 2155TIP3    H227881   0.025   6.303  11.540 -2.6394 -1.3798  0.2698
 2156TIP3   OH227882   4.637   1.993  15.339 -0.1441  0.2694  0.1129
 2156TIP3    H127883   4.692   1.934  15.288 -0.4087  1.3511 -1.4813
 2156TIP3    H227884   4.660   1.975  15.430  0.1867 -1.8685 -0.3549
 2157TIP3   OH227885   3.513   4.368  12.257  0.1532 -0.4286  0.0218
 2157TIP3    H127886   3.459   4.373  12.336 -0.2775  0.0352 -0.3023
 2157TIP3    H227887   3.544   4.457  12.243  3.3247 -1.0888  1.7857
 2158TIP3   OH227888   1.298   1.367  10.918 -0.0079 -0.0981 -0.3325
 2158TIP3    H127889   1.299   1.430  10.991  0.5715  0.7496 -1.0560
 2158TIP3    H227890   1.222   1.312  10.936 -0.4502  0.7198  0.3965
 2159TIP3   OH227891   3.254   1.247   0.694  0.1518  0.0088  1.1281
 2159TIP3    H127892   3.323   1.209   0.639 -0.1420 -1.6022  1.7942
 2159TIP3    H227893   3.245   1.337   0.663  1.9466  0.0053  0.4416
 2160TIP3   OH227894   1.822   1.019  10.071 -0.0633  0.3426 -0.2923
 2160TIP3    H127895   1.883   1.051  10.005 -0.9749  2.3533 -0.2262
 2160TIP3    H227896   1.859   1.047  10.155  0.1684 -0.6288 -0.0494
 2161TIP3   OH227897   4.302   0.816  12.282  0.0086  0.5803 -0.2502
 2161TIP3    H127898   4.357   0.863  12.219  0.4954  1.5782  0.8588
 2161TIP3    H227899   4.215   0.815  12.242  0.6111 -0.1239 -1.5826
 2162TIP3   OH227900   4.510   5.648  11.195  0.3259 -0.2098  0.5139
 2162TIP3    H127901   4.483   5.634  11.105 -0.9839 -2.2196  1.1480
 2162TIP3    H227902   4.465   5.728  11.221  2.2237  1.4852 -1.1109
 2163TIP3   OH227903   0.354   5.280  12.312  0.1723 -0.2585 -0.1907
 2163TIP3    H127904   0.442   5.301  12.281  0.0556  0.8808  0.2070
 2163TIP3    H227905   0.338   5.341  12.384 -1.1505 -0.0766 -0.6012
 2164TIP3   OH227906   3.167   2.233  15.147 -0.0879  0.0123  0.2250
 2164TIP3    H127907   3.128   2.319  15.135  0.0433  0.0766  0.2577
 2164TIP3    H227908   3.225   2.243  15.223 -1.7495 -0.6633  1.6491
 2165TIP3   OH227909   5.274   3.666   9.580 -0.2962  0.0529  0.0887
 2165TIP3    H127910   5.365   3.693   9.570 -0.0314 -0.8373 -0.0566
 2165TIP3    H227911   5.222   3.743   9.556  0.4146  0.3572 -0.5077
 2166TIP3   OH227912   2.413   1.826  14.586 -0.0684  0.3232 -0.6955
 2166TIP3    H127913   2.468   1.890  14.540 -0.3865  0.6420 -0.6341
 2166TIP3    H227914   2.326   1.867  14.589  0.3417  1.2052  1.8913
 2167TIP3   OH227915   2.070   1.076  11.225  0.3810 -0.1247  0.0977
 2167TIP3    H127916   1.997   1.108  11.278 -0.3487 -0.2405 -0.8015
 2167TIP3    H227917   2.148   1.115  11.265 -0.0671 -0.7325  1.6347
 2168TIP3   OH227918   5.360   4.041   0.216  0.5117  0.2096  0.0426
 2168TIP3    H127919   5.443   4.021   0.174 -0.3789  1.0202 -2.2865
 2168TIP3    H227920   5.322   4.111   0.163 -1.8582 -0.4102  0.7682
 2169TIP3   OH227921   4.797   3.540   0.208 -0.3849  0.5285  0.1449
 2169TIP3    H127922   4.828   3.471   0.267 -0.7906  0.0545 -0.1907
 2169TIP3    H227923   4.876   3.587   0.182  0.5287 -2.2353 -2.7588
 2170TIP3   OH227924   3.074   4.982  10.754  0.1023 -0.4842 -0.2439
 2170TIP3    H127925   3.143   4.922  10.782  0.0942 -0.6135 -0.4969
 2170TIP3    H227926   3.023   4.932  10.690 -0.5505 -0.5794  0.3351
 2171TIP3   OH227927   7.024   7.024  11.461 -0.2924 -0.6616 -0.5467
 2171TIP3    H127928   7.063   6.987  11.539 -1.3504 -1.0628 -0.1995
 2171TIP3    H227929   7.079   6.993  11.389 -1.5990 -3.7143 -0.3965
 2172TIP3   OH227930   1.580   0.931   2.845  0.1237  0.0637  0.3939
 2172TIP3    H127931   1.499   0.982   2.854  0.3746  0.3596  1.0340
 2172TIP3    H227932   1.618   0.961   2.763 -1.4113 -1.5234 -1.0033
 2173TIP3   OH227933   5.692   3.552   2.287 -0.0021 -0.5553 -0.7921
 2173TIP3    H127934   5.772   3.528   2.333 -0.6036  0.3016  0.7873
 2173TIP3    H227935   5.708   3.641   2.256 -1.0560  0.5240  1.4774
 2174TIP3   OH227936   3.121   6.476  11.419 -0.7657  0.2161  0.5474
 2174TIP3    H127937   3.190   6.448  11.359 -2.0102 -0.5782 -0.5805
 2174TIP3    H227938   3.097   6.395  11.465 -0.9499  0.4857  0.9211
 2175TIP3   OH227939   5.226   1.461   0.837 -0.5347  0.3691  0.0113
 2175TIP3    H127940   5.150   1.404   0.850  0.9671 -2.3488 -1.9063
 2175TIP3    H227941   5.249   1.491   0.924  0.0313 -4.1919  1.7103
 2176TIP3   OH227942   4.195   3.348   0.642 -0.0243  0.2384 -0.3535
 2176TIP3    H127943   4.288   3.367   0.649 -0.4248  3.0481 -1.3510
 2176TIP3    H227944   4.158   3.376   0.726 -0.0538 -0.4100 -0.1449
 2177TIP3   OH227945   5.027   1.472  13.942 -0.0224 -0.1323 -0.4547
 2177TIP3    H127946   5.117   1.484  13.914  0.2790 -0.2630  0.4151
 2177TIP3    H227947   4.987   1.418  13.874  0.3581  0.5094 -1.1916
 2178TIP3   OH227948   1.910   4.084  15.170 -0.3016 -0.0655 -0.2551
 2178TIP3    H127949   1.855   4.125  15.103 -0.6083 -2.0553 -1.2831
 2178TIP3    H227950   1.924   4.153  15.234 -0.5330  1.7305 -2.0334
 2179TIP3   OH227951   1.884   6.984  10.514 -0.0875 -0.2508 -0.1253
 2179TIP3    H127952   1.951   6.916  10.498  0.3528 -0.1433  1.1624
 2179TIP3    H227953   1.910   7.056  10.457 -0.0836 -0.8392 -0.8927
 2180TIP3   OH227954   5.518   0.985  13.204 -0.7396  0.1665  0.6440
 2180TIP3    H127955   5.517   0.979  13.108  1.4568  1.2206  0.4789
 2180TIP3    H227956   5.582   1.054  13.222  1.1536 -2.0150  2.9082
 2181TIP3   OH227957   2.122   3.457  11.937  0.1739  0.4346 -0.1629
 2181TIP3    H127958   2.144   3.500  11.854 -0.4493  0.3057 -0.3987
 2181TIP3    H227959   2.181   3.383  11.942 -0.1368  0.1369 -0.7520
 2182TIP3   OH227960   0.285   1.043  10.635 -0.4767 -0.2774 -0.0199
 2182TIP3    H127961   0.343   1.068  10.707  1.5799 -1.0868 -1.3070
 2182TIP3    H227962   0.282   1.120  10.578 -0.3634 -0.3526 -0.1293
 2183TIP3   OH227963   1.791   0.643   9.687 -0.6990 -0.2724  0.3784
 2183TIP3    H127964   1.853   0.715   9.697 -0.2640 -0.7828  1.5535
 2183TIP3    H227965   1.818   0.599   9.606  1.2541 -1.1825  1.4442
 2184TIP3   OH227966   2.006   4.822  10.972  0.3536 -0.1940  0.0706
 2184TIP3    H127967   1.970   4.734  10.980  0.5403 -0.4828 -1.7950
 2184TIP3    H227968   1.989   4.847  10.881  1.7811  1.0289  0.1002
 2185TIP3   OH227969   6.324   2.159   3.362  0.0150  0.3000 -0.4541
 2185TIP3    H127970   6.271   2.228   3.322  0.6329 -0.5096 -2.8585
 2185TIP3    H227971   6.409   2.165   3.317  0.9957 -0.3253  1.2023
 2186TIP3   OH227972   6.705   3.319  14.628 -0.1745  0.1231  0.0582
 2186TIP3    H127973   6.672   3.244  14.678 -0.9620  0.3575 -0.1017
 2186TIP3    H227974   6.800   3.308  14.629 -0.0821  0.5699  2.2998
 2187TIP3   OH227975   0.036   0.470  11.210  0.2954 -0.1901  0.2662
 2187TIP3    H127976   0.077   0.460  11.296  1.0006 -0.7528 -0.1240
 2187TIP3    H227977   0.085   0.411  11.153 -1.1640 -0.9943 -0.1974
 2188TIP3   OH227978   3.744   3.793   1.492 -0.7356 -0.6479 -0.0687
 2188TIP3    H127979   3.653   3.779   1.520 -0.9565 -0.3159 -0.6047
 2188TIP3    H227980   3.769   3.712   1.449  0.1886 -1.8537  2.5375
 2189TIP3   OH227981   0.838   1.358  10.320 -0.2185  0.4928  0.2013
 2189TIP3    H127982   0.764   1.316  10.364 -1.0137  1.5877 -0.0650
 2189TIP3    H227983   0.897   1.382  10.391 -0.1095 -0.3724  0.4178
 2190TIP3   OH227984   6.188   5.662  10.555 -0.0112  0.3284 -0.5778
 2190TIP3    H127985   6.172   5.573  10.522 -0.3188  0.3357 -0.4455
 2190TIP3    H227986   6.102   5.704  10.555 -0.0246  0.3132  0.2985
 2191TIP3   OH227987   4.006   6.290  13.625  0.6742  0.0615 -0.3750
 2191TIP3    H127988   3.977   6.346  13.697 -1.2291  0.0678 -1.0865
 2191TIP3    H227989   4.069   6.230  13.665  0.1412  0.4730  1.1540
 2192TIP3   OH227990   6.067   3.050  13.322 -1.3233  0.7524  0.3068
 2192TIP3    H127991   6.014   3.061  13.242  0.1152  1.1810 -0.6249
 2192TIP3    H227992   6.012   3.085  13.392 -2.9863 -0.4356 -0.3267
 2193TIP3   OH227993   3.351   4.689  14.032 -0.7394 -0.1881  0.4322
 2193TIP3    H127994   3.364   4.626  13.961 -1.1244  1.3048 -1.0269
 2193TIP3    H227995   3.440   4.711  14.060 -0.6042 -1.4482  1.0445
 2194TIP3   OH227996   6.378   0.868  13.168 -0.2070 -0.1494 -0.7275
 2194TIP3    H127997   6.297   0.839  13.125 -1.6589  0.4077  1.4474
 2194TIP3    H227998   6.405   0.793  13.221  1.4328 -0.7506 -2.3144
 2195TIP3   OH227999   3.316   3.965   9.536 -0.3135  0.0314 -0.4312
 2195TIP3    H128000   3.303   3.870   9.530  0.7908 -0.1717  0.0670
 2195TIP3    H228001   3.349   3.990   9.450 -0.1784 -0.1157 -0.4242
 2196TIP3   OH228002   1.587   2.038  15.457  0.1575  0.2255  0.5604
 2196TIP3    H128003   1.659   1.977  15.442  0.3528  0.4436  0.6084
 2196TIP3    H228004   1.509   1.992  15.424  0.4168  0.2662 -0.1369
 2197TIP3   OH228005   5.912   0.409  11.225  0.8958  0.4213 -0.0202
 2197TIP3    H128006   5.905   0.505  11.227 -0.3617  0.3337  0.9225
 2197TIP3    H228007   6.006   0.392  11.227  1.1198  1.6301  0.6948
 2198TIP3   OH228008   5.183   4.162  12.429 -0.0103  0.2927 -0.0873
 2198TIP3    H128009   5.231   4.079  12.436 -0.5865 -0.0352  0.0707
 2198TIP3    H228010   5.155   4.166  12.338  1.5136  1.1752 -0.5500
 2199TIP3   OH228011   4.074   4.337  13.363  0.0637 -0.2223 -0.1795
 2199TIP3    H128012   4.054   4.412  13.419 -0.7464 -2.1819  2.3157
 2199TIP3    H228013   4.056   4.369  13.274 -0.3607  2.4676  0.7759
 2200TIP3   OH228014   3.141   1.483  11.891  0.1665 -0.0610 -0.0656
 2200TIP3    H128015   3.125   1.570  11.855 -0.3571 -0.2213 -0.2282
 2200TIP3    H228016   3.113   1.423  11.822  0.4475 -0.3597  0.0784
 2201TIP3   OH228017   6.733   0.738  14.175  0.1334 -0.4922 -0.3565
 2201TIP3    H128018   6.654   0.767  14.131 -0.5951 -0.7082  0.7735
 2201TIP3    H228019   6.736   0.788  14.257  1.6268  0.1375 -0.7575
 2202TIP3   OH228020   3.181   2.458  12.358 -0.5666 -0.0306  0.0865
 2202TIP3    H128021   3.111   2.522  12.348  0.4811  1.0129 -1.0620
 2202TIP3    H228022   3.153   2.383  12.306 -0.1212  1.0607 -1.8372
 2203TIP3   OH228023   6.247   1.348  11.289  0.0546 -0.2738 -0.3626
 2203TIP3    H128024   6.291   1.365  11.205  2.1405 -1.5633  0.4124
 2203TIP3    H228025   6.242   1.253  11.295 -0.6974 -0.1849  0.6848
 2204TIP3   OH228026   5.312   3.254  11.559  0.5990 -0.4471  0.6791
 2204TIP3    H128027   5.320   3.341  11.519  0.2062 -0.6449  0.1473
 2204TIP3    H228028   5.398   3.236  11.596  1.3752 -0.7436 -1.1314
 2205TIP3   OH228029   2.070   1.861   4.587 -0.2202  0.1718  0.2806
 2205TIP3    H128030   2.161   1.852   4.559 -1.0450 -0.6028 -2.4337
 2205TIP3    H228031   2.065   1.812   4.669  0.7955 -4.2671 -2.0111
 2206TIP3   OH228032   3.074   0.370  11.467 -0.0039 -0.2744 -0.3018
 2206TIP3    H128033   2.984   0.347  11.444 -0.4139  1.5091 -0.6666
 2206TIP3    H228034   3.101   0.430  11.398  0.8585  0.5362  0.7142
 2207TIP3   OH228035   3.436   2.832  11.799  0.0221 -0.0439 -0.0036
 2207TIP3    H128036   3.342   2.836  11.817 -0.0721  1.1323 -0.6314
 2207TIP3    H228037   3.461   2.742  11.820 -1.3823 -0.5843 -0.5258
 2208TIP3   OH228038   1.371   4.029  10.328  0.5512 -0.1896  0.5569
 2208TIP3    H128039   1.343   3.965  10.262  1.0912  2.2895 -2.2722
 2208TIP3    H228040   1.366   3.981  10.411 -0.6681 -3.3481 -1.1640
 2209TIP3   OH228041   1.887   7.125   0.729 -0.6156 -0.1102  0.7281
 2209TIP3    H128042   1.845   7.198   0.774 -0.1461  0.7206 -0.1461
 2209TIP3    H228043   1.977   7.155   0.714 -0.0330 -1.3821  1.5048
 2210TIP3   OH228044   6.987   6.880  13.615 -0.2262  0.1088 -0.2168
 2210TIP3    H128045   6.920   6.812  13.621 -0.7387  0.6049 -0.1253
 2210TIP3    H228046   6.960   6.946  13.678  1.0660 -0.2585  0.7566
 2211TIP3   OH228047   4.177   3.723  12.046 -0.5111  0.1050  0.2544
 2211TIP3    H128048   4.115   3.650  12.046 -0.3933 -0.0004  0.7178
 2211TIP3    H228049   4.124   3.800  12.062 -0.5072 -0.0039  0.8107
 2212TIP3   OH228050   6.609   0.208  14.910 -0.7335 -0.5514 -0.4225
 2212TIP3    H128051   6.539   0.184  14.849 -0.4725 -0.4091 -0.7863
 2212TIP3    H228052   6.685   0.158  14.879 -0.9212 -1.4975  0.5894
 2213TIP3   OH228053   6.872   5.964   0.443  0.2452  0.3767  0.0773
 2213TIP3    H128054   6.883   5.897   0.375 -1.1398  0.7756 -0.5948
 2213TIP3    H228055   6.930   5.937   0.514  0.2820 -1.1140 -0.4870
 2214TIP3   OH228056   0.807   3.599  11.869 -0.4478  0.0106  0.1343
 2214TIP3    H128057   0.902   3.592  11.859 -0.5557  0.8059 -2.2447
 2214TIP3    H228058   0.772   3.532  11.810 -1.3411  0.5104  0.0802
 2215TIP3   OH228059   0.565   1.798  15.263  0.1637 -0.6507  0.6158
 2215TIP3    H128060   0.568   1.768  15.172  0.4635 -0.3071  0.5140
 2215TIP3    H228061   0.472   1.811  15.280  0.0943 -0.8532  0.4055
 2216TIP3   OH228062   1.839   6.594   3.135  0.0876  0.2670  0.0832
 2216TIP3    H128063   1.850   6.574   3.042 -1.3079  0.8953 -0.2362
 2216TIP3    H228064   1.887   6.524   3.179  0.4641 -0.2546 -1.0962
 2217TIP3   OH228065   5.299   1.150  12.699  0.1413 -0.0336 -0.1827
 2217TIP3    H128066   5.377   1.205  12.704  0.8268 -0.8090 -1.5387
 2217TIP3    H228067   5.262   1.153  12.787  0.2855  2.3349 -0.1352
 2218TIP3   OH228068   0.614   0.300   1.209 -0.4229  0.2642 -0.7931
 2218TIP3    H128069   0.546   0.281   1.274  0.2559 -0.1377 -0.1761
 2218TIP3    H228070   0.672   0.362   1.253 -0.8188  1.2459 -1.6098
 2219TIP3   OH228071   1.244   5.154  12.626 -0.1926  0.4134 -0.2621
 2219TIP3    H128072   1.325   5.105  12.614 -0.9422 -1.0234  0.2729
 2219TIP3    H228073   1.237   5.166  12.721 -2.0323 -2.1365  0.0284
 2220TIP3   OH228074   0.088   0.179  10.759 -0.1627 -0.0839 -0.0316
 2220TIP3    H128075   0.174   0.141  10.776  0.2207 -0.0134 -1.6825
 2220TIP3    H228076   0.088   0.199  10.666 -1.0486  2.2445  0.4041
 2221TIP3   OH228077   6.205   5.660  11.556 -0.4603  0.4953 -0.1738
 2221TIP3    H128078   6.274   5.726  11.551  1.8240 -1.6391  0.7255
 2221TIP3    H228079   6.142   5.695  11.619  1.8548  0.9329  2.0816
 2222TIP3   OH228080   4.133   5.467  14.138 -0.0354 -0.2404 -0.0258
 2222TIP3    H128081   4.070   5.490  14.071 -2.0859  0.1021  1.8991
 2222TIP3    H228082   4.156   5.376  14.120 -1.3101 -0.4558 -0.6072
 2223TIP3   OH228083   5.629   1.582  12.535  0.0688 -0.1957 -0.4721
 2223TIP3    H128084   5.635   1.531  12.615  1.7663 -0.3157 -0.6438
 2223TIP3    H228085   5.684   1.535  12.472 -0.0217  0.7099 -1.2560
 2224TIP3   OH228086   0.639   5.046  14.895  0.1525  0.7010  0.0959
 2224TIP3    H128087   0.702   5.064  14.964 -0.1048  0.2673  0.4458
 2224TIP3    H228088   0.654   5.116  14.831 -0.5052  1.9117  1.2056
 2225TIP3   OH228089   5.530   0.339  12.910 -0.3507  0.2250 -0.4450
 2225TIP3    H128090   5.459   0.276  12.922 -0.4671  0.1835 -1.2685
 2225TIP3    H228091   5.566   0.318  12.823 -0.0243  0.9229 -0.4859
 2226TIP3   OH228092   3.052   1.924  12.132  0.3907  0.1124  0.1339
 2226TIP3    H128093   3.089   1.836  12.142 -0.8189 -0.6389 -1.6394
 2226TIP3    H228094   3.035   1.932  12.039  2.7000  3.1873 -0.1525
 2227TIP3   OH228095   3.602   1.313  12.686 -0.4718  0.3987 -0.0323
 2227TIP3    H128096   3.601   1.240  12.623  1.1950  0.3283 -0.0214
 2227TIP3    H228097   3.672   1.291  12.747  0.8239  2.4663 -0.6374
 2228TIP3   OH228098   1.448   7.033  11.454  0.1933  0.0063  0.4754
 2228TIP3    H128099   1.494   7.107  11.414  0.3148 -0.4146 -0.1751
 2228TIP3    H228100   1.420   6.979  11.380 -0.3030 -0.3607  0.9212
 2229TIP3   OH228101   2.360   5.506   1.552  0.0220  0.0418 -0.6431
 2229TIP3    H128102   2.406   5.589   1.565 -0.7304  0.3332  0.2134
 2229TIP3    H228103   2.318   5.515   1.466 -2.1244  1.5785  0.4932
 2230TIP3   OH228104   5.002   4.751  11.447  0.1400 -0.0598  0.2287
 2230TIP3    H128105   5.011   4.802  11.367  1.1958 -0.2919  0.1876
 2230TIP3    H228106   4.910   4.723  11.447  0.3959 -1.0859 -1.5493
 2231TIP3   OH228107   2.306   0.559  12.521  0.1927  0.5352  0.3174
 2231TIP3    H128108   2.252   0.500  12.574  1.3457  0.3975  1.3689
 2231TIP3    H228109   2.385   0.509  12.502  1.0425  1.6189  0.9399
 2232TIP3   OH228110   1.796   6.921   9.928 -0.2347 -0.3403 -0.5518
 2232TIP3    H128111   1.872   6.871   9.899 -0.6494  0.1081 -2.5878
 2232TIP3    H228112   1.833   6.993   9.979  0.5311 -1.3551  0.3585
 2233TIP3   OH228113   4.935   0.983  12.117  0.6439  0.0197  0.4252
 2233TIP3    H128114   5.026   1.004  12.098  1.0065 -2.1871 -0.5460
 2233TIP3    H228115   4.933   0.966  12.211  1.0103  1.0052  0.6210
 2234TIP3   OH228116   6.749   4.315  14.363 -0.3161 -0.4272 -0.3246
 2234TIP3    H128117   6.786   4.351  14.444 -1.5591 -0.6501  0.3596
 2234TIP3    H228118   6.680   4.256  14.392 -1.5065  0.2917 -1.5533
 2235TIP3   OH228119   6.941   3.490  11.404  0.1500  0.0764 -0.5273
 2235TIP3    H128120   6.859   3.504  11.452 -0.2897 -0.2558 -1.1701
 2235TIP3    H228121   6.923   3.523  11.316  1.5121  2.3591 -0.0451
 2236TIP3   OH228122   4.864   6.922  13.981  0.0810  0.3638 -0.0176
 2236TIP3    H128123   4.862   7.010  14.019  0.5113  0.7428 -0.8720
 2236TIP3    H228124   4.909   6.869  14.047 -0.5419  0.6790  0.6868
 2237TIP3   OH228125   3.792   5.725  12.389 -0.0656  0.2064  0.0943
 2237TIP3    H128126   3.878   5.740  12.428 -0.1015 -1.8224  1.0766
 2237TIP3    H228127   3.751   5.659  12.445 -1.9177  0.4732 -0.8634
 2238TIP3   OH228128   2.633   2.232  11.201  0.9159  0.0300 -0.1483
 2238TIP3    H128129   2.554   2.267  11.244  1.8306  1.0290  0.7917
 2238TIP3    H228130   2.609   2.225  11.109 -0.2056  0.5474  0.0811
 2239TIP3   OH228131   2.264   1.376  10.015  0.5772 -0.5377 -0.2658
 2239TIP3    H128132   2.356   1.374  10.042  1.3751 -2.2223 -2.7370
 2239TIP3    H228133   2.260   1.447   9.951  0.0828 -0.2891  0.0394
 2240TIP3   OH228134   1.532   4.513  11.317  0.0763 -0.3601  0.6447
 2240TIP3    H128135   1.555   4.516  11.224  1.8922  2.4633  1.0652
 2240TIP3    H228136   1.468   4.584  11.328  0.6423  0.0007  1.7115
 2241TIP3   OH228137   5.570   5.367  11.515 -0.1194 -1.3812  0.1585
 2241TIP3    H128138   5.635   5.411  11.570 -0.4972  1.2049 -1.3151
 2241TIP3    H228139   5.612   5.285  11.489  2.0081 -0.4194  0.3824
 2242TIP3   OH228140   1.438   6.902  10.063  0.4152  0.0806  0.1065
 2242TIP3    H128141   1.453   6.916  10.157 -0.9984 -3.2007  0.9491
 2242TIP3    H228142   1.350   6.938  10.047 -0.1290 -1.0292  0.5198
 2243TIP3   OH228143   5.814   2.014  13.546  0.1577 -0.0466 -0.7665
 2243TIP3    H128144   5.844   1.973  13.465  1.6878  0.9797 -0.7657
 2243TIP3    H228145   5.723   2.039  13.528  0.3005 -0.3224 -1.9703
 2244TIP3   OH228146   1.442   0.096  13.793 -0.2667  0.2669 -0.0301
 2244TIP3    H128147   1.426   0.071  13.702  0.3686  1.1700 -0.4106
 2244TIP3    H228148   1.356   0.089  13.835 -0.8988  1.2347 -1.0614
 2245TIP3   OH228149   0.376   0.596  12.180  0.5641  0.2759 -0.0772
 2245TIP3    H128150   0.327   0.515  12.194 -0.9235  1.0000 -0.9307
 2245TIP3    H228151   0.384   0.635  12.267  0.2273 -0.1926  0.1678
 2246TIP3   OH228152   3.965   4.563  12.570 -0.2687 -0.1696 -0.2751
 2246TIP3    H128153   4.051   4.605  12.568 -0.2499 -0.2147 -2.3397
 2246TIP3    H228154   3.978   4.485  12.623  0.4579  0.7870  1.0295
 2247TIP3   OH228155   2.140   5.569   4.611  0.6660  0.1209 -0.3079
 2247TIP3    H128156   2.095   5.541   4.691  1.4158  0.0290  0.0937
 2247TIP3    H228157   2.230   5.586   4.639  0.7593  0.7939 -0.9962
 2248TIP3   OH228158   2.440   5.218  14.824 -0.2840  0.2204 -0.3848
 2248TIP3    H128159   2.484   5.139  14.856 -0.0371 -0.2521 -1.8243
 2248TIP3    H228160   2.353   5.215  14.864  0.1576 -0.1082  0.5746
 2249TIP3   OH228161   2.551   2.049  10.375 -0.2492 -0.3035 -0.0729
 2249TIP3    H128162   2.462   2.078  10.354 -0.3840 -0.7441 -0.1260
 2249TIP3    H228163   2.558   1.963  10.334  0.1942 -0.2805 -0.0451
 2250TIP3   OH228164   5.953   1.667  12.088 -0.2195  0.2415  0.0451
 2250TIP3    H128165   5.928   1.712  12.168  0.8646 -0.2365  0.6795
 2250TIP3    H228166   5.972   1.577  12.116  0.9214  0.2624 -0.5871
 2251TIP3   OH228167   7.090   4.966  11.112 -0.0251 -0.2056 -0.0164
 2251TIP3    H128168   7.008   4.932  11.146  0.5454 -2.6978 -0.8950
 2251TIP3    H228169   7.123   5.025  11.180 -2.1510  0.2589  0.6619
 2252TIP3   OH228170   6.306   5.680  11.860 -0.8214  0.4417  0.7054
 2252TIP3    H128171   6.383   5.626  11.878 -1.5816 -0.8956  0.1383
 2252TIP3    H228172   6.327   5.765  11.898  0.7669  0.0021  0.9080
 2253TIP3   OH228173   4.409   2.565   1.359 -0.0823  0.0556  0.3314
 2253TIP3    H128174   4.338   2.610   1.312 -1.0289 -1.6963 -0.0204
 2253TIP3    H228175   4.373   2.551   1.447  0.3401  0.2922  0.5420
 2254TIP3   OH228176   4.257   5.457  10.449  0.1228  0.4007  0.0237
 2254TIP3    H128177   4.296   5.394  10.388 -2.1395 -2.4196  1.2584
 2254TIP3    H228178   4.164   5.458  10.427 -0.3722  1.0909  1.9462
 2255TIP3   OH228179   5.185   3.672  11.168  0.0666 -0.1663  0.1962
 2255TIP3    H128180   5.143   3.739  11.223  0.3930 -0.6389  1.0389
 2255TIP3    H228181   5.255   3.719  11.123  0.2381  0.0920  0.7187
 2256TIP3   OH228182   5.758   6.154  14.352  0.5743 -0.0329 -0.6506
 2256TIP3    H128183   5.709   6.234  14.332  0.7400  0.1359 -0.3838
 2256TIP3    H228184   5.806   6.174  14.433  0.7955 -0.3226 -0.7071
 2257TIP3   OH228185   5.519   0.479  12.053  0.1598 -0.4038  0.0838
 2257TIP3    H128186   5.613   0.480  12.070  0.2398 -1.3371 -0.2595
 2257TIP3    H228187   5.488   0.564  12.086  1.4005  0.7016 -1.4588
 2258TIP3   OH228188   2.859   6.348  14.741  0.2729 -0.7746 -0.0225
 2258TIP3    H128189   2.951   6.360  14.715  1.0584 -3.5023  1.1959
 2258TIP3    H228190   2.863   6.294  14.820 -2.2608  2.4049  2.5602
 2259TIP3   OH228191   2.121   0.695  12.279 -0.0973  0.4054 -0.0969
 2259TIP3    H128192   2.182   0.743  12.222  1.6985  0.1943  1.5136
 2259TIP3    H228193   2.117   0.748  12.358 -1.1707 -0.1766  0.2478
 2260TIP3   OH228194   0.194   2.881  12.313  0.3002 -0.3074  0.0831
 2260TIP3    H128195   0.203   2.826  12.235  1.4169 -1.2424  0.8251
 2260TIP3    H228196   0.125   2.838  12.364 -0.0622  0.0028 -0.1412
 2261TIP3   OH228197   0.007   0.301   0.049 -0.8578  0.0635 -0.0309
 2261TIP3    H128198   0.053   0.218   0.060 -2.3480 -0.7604  0.2169
 2261TIP3    H228199   0.019   0.347   0.132 -1.3807 -0.6247  0.4379
 2262TIP3   OH228200   0.981   1.439  10.533  0.5679  0.3198 -0.1128
 2262TIP3    H128201   1.022   1.366  10.580  1.4305  1.2811  0.6986
 2262TIP3    H228202   0.935   1.488  10.602  0.0666  0.5824 -0.6294
 2263TIP3   OH228203   2.766   2.480  12.239 -0.7819 -0.3706  0.1685
 2263TIP3    H128204   2.691   2.459  12.295  0.3691 -1.5190  1.3683
 2263TIP3    H228205   2.842   2.457  12.293  0.4380  0.7927 -0.9983
 2264TIP3   OH228206   6.568   6.118  10.757 -0.1305  0.5086  0.1521
 2264TIP3    H128207   6.615   6.058  10.816 -3.3665 -1.4293  0.9921
 2264TIP3    H228208   6.576   6.077  10.671 -1.9591 -1.0371  0.6523
 2265TIP3   OH228209   1.392   0.799  10.040 -0.2568 -0.1082  0.1532
 2265TIP3    H128210   1.306   0.768  10.011 -0.1811  1.1012 -1.5190
 2265TIP3    H228211   1.449   0.785   9.965  1.1715 -1.3119  1.3855
 2266TIP3   OH228212   1.118   5.779  13.527 -0.3786  0.2287  0.2076
 2266TIP3    H128213   1.186   5.721  13.563  1.3010  0.4197 -2.4018
 2266TIP3    H228214   1.160   5.865  13.521 -1.1256  0.5513 -0.6275
 2267TIP3   OH228215   2.879   4.817  11.034 -0.5635 -0.3579 -0.0374
 2267TIP3    H128216   2.960   4.869  11.030 -0.2794 -0.8526 -1.2143
 2267TIP3    H228217   2.888   4.765  11.113 -1.7479  2.7479  2.3527
 2268TIP3   OH228218   1.603   6.721   9.788  0.2505 -0.4645  0.8674
 2268TIP3    H128219   1.566   6.637   9.761 -0.8001  0.4751 -0.7730
 2268TIP3    H228220   1.698   6.708   9.783  0.0981 -1.3066 -0.2395
 2269TIP3   OH228221   3.333   0.727  13.146  0.4762 -0.7030  0.1381
 2269TIP3    H128222   3.297   0.812  13.170  0.0309 -0.6441 -0.6895
 2269TIP3    H228223   3.277   0.663  13.191 -1.8030 -0.6794 -2.4029
 2270TIP3   OH228224   0.261   2.789  14.075 -0.3479 -0.7684  0.1255
 2270TIP3    H128225   0.322   2.754  14.139 -0.0228 -0.9511 -0.2803
 2270TIP3    H228226   0.201   2.844  14.126  1.3037  0.9661  0.2728
 2271TIP3   OH228227   2.604   3.868  12.104  0.0511 -0.3240  0.2928
 2271TIP3    H128228   2.566   3.930  12.167 -0.6852 -0.5266  0.0597
 2271TIP3    H228229   2.588   3.782  12.142 -1.7857 -0.5443 -0.8704
 2272TIP3   OH228230   0.961   6.374  11.537  0.3916 -0.2700  0.3892
 2272TIP3    H128231   0.870   6.402  11.549 -0.0659  0.2864 -3.2012
 2272TIP3    H228232   1.003   6.394  11.620 -2.4664  0.6363  1.7674
 2273TIP3   OH228233   1.310   5.377  12.219  0.1158 -0.5715  0.0121
 2273TIP3    H128234   1.364   5.300  12.237  0.9871  0.3587  1.5423
 2273TIP3    H228235   1.234   5.367  12.276  0.3039 -0.2408  0.3277
 2274TIP3   OH228236   0.522   7.012  13.010  0.0838  0.3020 -0.1070
 2274TIP3    H128237   0.525   7.039  12.918 -2.7069 -2.3623 -1.1646
 2274TIP3    H228238   0.558   6.923  13.010 -0.3642  0.1035  1.2863
 2275TIP3   OH228239   6.850   0.349  10.971  0.2471 -0.1526 -0.0158
 2275TIP3    H128240   6.886   0.325  10.886 -0.4758 -1.6526  0.0775
 2275TIP3    H228241   6.818   0.267  11.009 -0.4716  0.6495  1.2143
 2276TIP3   OH228242   2.480   1.969  11.836 -0.0240 -0.6158 -0.4761
 2276TIP3    H128243   2.445   2.052  11.806 -0.2804 -0.6667 -0.3263
 2276TIP3    H228244   2.570   1.988  11.862  0.6270 -0.8361 -2.4780
 2277TIP3   OH228245   6.333   1.130  13.995  0.1097 -0.6803 -0.1578
 2277TIP3    H128246   6.314   1.099  13.906  4.1043  0.2969 -1.5506
 2277TIP3    H228247   6.394   1.202  13.983  0.9975 -0.6543  3.4091
 2278TIP3   OH228248   4.624   5.460  12.053 -0.3761 -0.0558  0.1351
 2278TIP3    H128249   4.646   5.390  11.991  1.1202 -0.5516  1.1449
 2278TIP3    H228250   4.704   5.471  12.105 -0.5741  2.4177  0.0231
 2279TIP3   OH228251   4.645   4.320  10.112  0.1786 -0.4539 -0.0181
 2279TIP3    H128252   4.728   4.274  10.102  2.6034  3.2004  1.2059
 2279TIP3    H228253   4.652   4.395  10.052 -1.2918  1.0813  1.6025
 2280TIP3   OH228254   1.693   4.324  12.625  0.0965  0.2100 -0.0361
 2280TIP3    H128255   1.675   4.377  12.548  0.1903  1.5267  0.8083
 2280TIP3    H228256   1.633   4.250  12.619 -1.4022  1.4097 -0.2928
 2281TIP3   OH228257   1.040   4.443   0.408 -0.0330  0.5964 -0.1737
 2281TIP3    H128258   1.135   4.447   0.400  0.2455 -1.6054  1.1995
 2281TIP3    H228259   1.014   4.374   0.347 -0.4441 -0.4941  1.1952
 2282TIP3   OH228260   6.278   4.264  10.152 -0.2509 -0.1371 -0.1231
 2282TIP3    H128261   6.191   4.239  10.185  0.3441 -0.3823  1.3001
 2282TIP3    H228262   6.331   4.185  10.160  0.7421  0.6357  1.2700
 2283TIP3   OH228263   1.842   3.634  14.395  0.0837 -0.1394 -0.1010
 2283TIP3    H128264   1.809   3.544  14.397 -1.0947  0.2824  2.0868
 2283TIP3    H228265   1.765   3.689  14.410  0.9768  1.1848 -0.1304
 2284TIP3   OH228266   6.146   2.471   9.265 -0.0494  0.0188 -0.0060
 2284TIP3    H128267   6.234   2.436   9.282 -0.5551 -0.8746  0.8658
 2284TIP3    H228268   6.157   2.523   9.185  1.2600 -0.1031  0.0582
 2285TIP3   OH228269   5.593   2.167  12.186 -0.4645  0.3886  0.4544
 2285TIP3    H128270   5.564   2.238  12.243  1.5833  0.8866  0.9575
 2285TIP3    H228271   5.674   2.199  12.147 -0.7331 -0.7626 -1.1738
 2286TIP3   OH228272   7.048   3.368  14.730  0.1657 -0.7646  0.4502
 2286TIP3    H128273   7.013   3.281  14.707  0.7316 -0.8029 -0.3150
 2286TIP3    H228274   7.028   3.378  14.823 -1.0728 -1.1653  0.2505
 2287TIP3   OH228275   0.350   1.176  11.539  0.2963  0.2390 -0.7680
 2287TIP3    H128276   0.377   1.185  11.630 -0.3395 -0.8909 -0.4448
 2287TIP3    H228277   0.309   1.090  11.535 -0.7665  0.7625 -1.8503
 2288TIP3   OH228278   4.323   4.753  11.187 -0.4001 -0.3225 -0.3689
 2288TIP3    H128279   4.364   4.673  11.154  2.1896  0.0687  1.5955
 2288TIP3    H228280   4.391   4.820  11.178 -1.6436  1.1030  0.3400
 2289TIP3   OH228281   6.421   2.146   9.822  0.1521  0.3596  0.2288
 2289TIP3    H128282   6.414   2.051   9.824  1.7359  0.1768  2.9064
 2289TIP3    H228283   6.493   2.163   9.760 -0.4558 -0.1145 -0.6297
 2290TIP3   OH228284   5.055   7.123  12.506 -0.1155  0.0480 -0.5383
 2290TIP3    H128285   5.079   7.189  12.441  0.3910 -1.3138 -1.8015
 2290TIP3    H228286   4.982   7.162  12.555  0.5847  1.7698 -0.8153
 2291TIP3   OH228287   6.058   0.608   9.736  0.4729  0.2300 -0.3491
 2291TIP3    H128288   6.040   0.684   9.679  1.4494  0.5028 -0.3173
 2291TIP3    H228289   5.973   0.565   9.746  0.5447 -0.9820 -3.6654
 2292TIP3   OH228290   6.948   0.749  14.010 -0.0957 -0.1825  0.1304
 2292TIP3    H128291   6.864   0.762  14.055 -1.0777  1.6029 -1.9663
 2292TIP3    H228292   7.006   0.815  14.048 -0.1247 -0.3790  0.5163
 2293TIP3   OH228293   4.987   5.373  11.906 -0.0983 -0.2706  0.5577
 2293TIP3    H128294   4.917   5.392  11.844 -0.2322  0.6091  0.9639
 2293TIP3    H228295   4.947   5.387  11.992  0.8022  1.0597  0.7786
 2294TIP3   OH228296   0.016   6.398   9.943 -0.1822  0.6785  0.6331
 2294TIP3    H128297   0.030   6.490   9.921  1.8981  0.5377  1.1815
 2294TIP3    H228298   0.079   6.350   9.889 -3.0660 -0.7946 -1.7877
 2295TIP3   OH228299   6.285   7.158  11.706 -0.3623  0.5951  0.2262
 2295TIP3    H128300   6.303   7.200  11.790  2.1100  0.0953  0.0195
 2295TIP3    H228301   6.231   7.082  11.729 -0.2912  0.8455  1.2698
 2296TIP3   OH228302   5.246   6.234  11.108 -0.0143  0.5745  0.1278
 2296TIP3    H128303   5.175   6.217  11.170 -0.4730  0.6960 -0.3593
 2296TIP3    H228304   5.310   6.283  11.159 -1.2998  2.5234 -0.0039
 2297TIP3   OH228305   0.822   0.963  13.593  0.0886  0.0380 -0.2025
 2297TIP3    H128306   0.811   0.914  13.674 -0.7015 -1.4334 -1.1444
 2297TIP3    H228307   0.907   0.935  13.559  1.1563  1.8367  0.8386
 2298TIP3   OH228308   2.211   5.109  15.217 -0.4264 -0.6523  0.0735
 2298TIP3    H128309   2.261   5.165  15.159 -0.7540 -0.7050 -0.2654
 2298TIP3    H228310   2.265   5.100  15.296 -0.9631  1.2375  0.7088
 2299TIP3   OH228311   5.537   2.833   0.548 -0.0588 -0.3304  0.2221
 2299TIP3    H128312   5.506   2.764   0.606  0.9650 -0.1715  0.9878
 2299TIP3    H228313   5.539   2.793   0.461  0.2673 -1.1853  0.6149
 2300TIP3   OH228314   3.694   1.994  12.301  0.3023  0.0305 -0.1002
 2300TIP3    H128315   3.626   2.031  12.245  1.8506  0.9300 -1.4831
 2300TIP3    H228316   3.773   2.042  12.278  2.1359 -3.1081 -0.9577
 2301TIP3   OH228317   6.811   5.245  10.021  0.5756 -0.1216 -0.1993
 2301TIP3    H128318   6.763   5.249   9.938 -0.2513  0.3779  0.2845
 2301TIP3    H228319   6.752   5.199  10.081  1.9603 -2.2924 -0.3807
 2302TIP3   OH228320   1.065   4.574  13.275 -0.5036  0.9736  0.5741
 2302TIP3    H128321   1.037   4.497  13.225  1.4070  0.8188 -0.3886
 2302TIP3    H228322   1.062   4.546  13.367  0.9474 -0.5984  0.2008
 2303TIP3   OH228323   1.508   2.111  12.741  0.9331 -0.3857  0.8975
 2303TIP3    H128324   1.591   2.130  12.699  0.7421  0.3231  0.8299
 2303TIP3    H228325   1.476   2.196  12.772 -0.2585 -0.4850  0.0062
 2304TIP3   OH228326   3.153   0.109  11.061 -0.0285 -0.4206  0.0807
 2304TIP3    H128327   3.112   0.195  11.071  1.3234  0.2448  0.1244
 2304TIP3    H228328   3.081   0.051  11.037 -1.1745  0.4773  1.2053
 2305TIP3   OH228329   6.726   4.994  10.774  0.0764 -0.0405 -0.5415
 2305TIP3    H128330   6.794   5.060  10.790  0.4946 -0.6023  0.1131
 2305TIP3    H228331   6.768   4.930  10.716 -1.2201  1.6376 -3.5541
 2306TIP3   OH228332   1.594   5.674  10.510 -0.2716  0.3053 -0.0449
 2306TIP3    H128333   1.576   5.720  10.428  0.8362 -1.5928 -1.4278
 2306TIP3    H228334   1.521   5.614  10.521 -1.2702  1.7037  1.2944
 2307TIP3   OH228335   1.078   3.227  14.636  0.0554  0.5170  0.4804
 2307TIP3    H128336   1.083   3.185  14.722 -0.8788 -2.3225 -0.7234
 2307TIP3    H228337   1.039   3.312  14.653 -0.0511  0.0522  2.8796
 2308TIP3   OH228338   1.887   3.800  13.668  0.1433 -0.4066  0.2598
 2308TIP3    H128339   1.831   3.805  13.746  0.3352  0.0346  0.3704
 2308TIP3    H228340   1.974   3.823  13.700  0.0391  0.7918 -0.2759
 2309TIP3   OH228341   2.280   5.974  11.405  0.0939 -0.1586 -0.0678
 2309TIP3    H128342   2.322   5.972  11.491 -0.5288 -0.1018  0.2437
 2309TIP3    H228343   2.258   6.066  11.391 -1.0172 -0.3571  0.3174
 2310TIP3   OH228344   5.701   5.146  11.413 -0.0237  0.3964  0.1733
 2310TIP3    H128345   5.714   5.096  11.332  0.0140  1.3137 -0.4020
 2310TIP3    H228346   5.790   5.171  11.439  0.1098 -1.0856  1.3046
 2311TIP3   OH228347   3.704   0.853  14.995  0.7784  0.2784  0.0483
 2311TIP3    H128348   3.660   0.933  14.967 -2.0698 -1.3834 -0.6329
 2311TIP3    H228349   3.694   0.792  14.922  0.9803 -1.3637  1.3096
 2312TIP3   OH228350   2.870   1.322  13.599  0.5307 -0.4359 -0.0336
 2312TIP3    H128351   2.905   1.400  13.556 -0.3010 -0.2324 -0.3676
 2312TIP3    H228352   2.907   1.249  13.551 -2.1461 -0.2389 -2.7226
 2313TIP3   OH228353   1.677   5.939   5.114  0.5694  0.4888 -0.3445
 2313TIP3    H128354   1.635   6.020   5.086 -1.3406 -0.3165  0.0266
 2313TIP3    H228355   1.691   5.950   5.208  0.7117  0.5599 -0.3741
 2314TIP3   OH228356   4.671   0.345  10.281  0.2088 -0.3226  0.0889
 2314TIP3    H128357   4.581   0.316  10.263 -0.3988  1.4288  0.0409
 2314TIP3    H228358   4.716   0.341  10.197 -0.5109  0.9291 -0.3865
 2315TIP3   OH228359   4.029   3.950   2.252  0.6732  0.3140 -0.0169
 2315TIP3    H128360   4.065   3.864   2.228  1.1030  1.0805 -2.3772
 2315TIP3    H228361   4.001   3.988   2.169 -0.2864  2.1301  1.0812
 2316TIP3   OH228362   2.137   2.447  10.386 -0.1621  0.0407 -0.5735
 2316TIP3    H128363   2.080   2.505  10.437  0.0526 -0.2197 -0.0394
 2316TIP3    H228364   2.077   2.404  10.325 -0.5771 -0.3912  0.1312
 2317TIP3   OH228365   1.552   3.242  13.730  0.0671  0.1789  0.4084
 2317TIP3    H128366   1.552   3.147  13.733  0.7529  0.1670  0.1732
 2317TIP3    H228367   1.544   3.269  13.822  0.4031 -0.1057  0.5231
 2318TIP3   OH228368   5.298   4.578  12.109 -0.3103  0.5011  0.9247
 2318TIP3    H128369   5.300   4.491  12.149 -0.1427  0.2472  0.3794
 2318TIP3    H228370   5.216   4.579  12.059 -0.3868  0.7114  1.0560
 2319TIP3   OH228371   0.725   3.206  14.527 -0.1868 -0.2994 -0.0034
 2319TIP3    H128372   0.709   3.144  14.599 -0.7792  0.0051  0.1251
 2319TIP3    H228373   0.819   3.195  14.508  0.0591 -0.1335  1.0477
 2320TIP3   OH228374   5.762   7.084   1.348 -0.2955  0.3976  0.2916
 2320TIP3    H128375   5.765   7.090   1.252 -1.7572  0.7882  0.2397
 2320TIP3    H228376   5.680   7.127   1.371 -0.1920 -0.1298  1.6910
 2321TIP3   OH228377   4.231   0.620   1.895 -0.2523 -0.6611 -0.7368
 2321TIP3    H128378   4.244   0.712   1.917  1.3911 -0.7800 -1.0879
 2321TIP3    H228379   4.197   0.580   1.975  2.0792 -0.3578  0.4791
 2322TIP3   OH228380   3.414   1.593  13.582 -0.2393  0.8585  0.1849
 2322TIP3    H128381   3.502   1.603  13.546  1.6521 -0.5026  3.9360
 2322TIP3    H228382   3.365   1.548  13.513  2.4885  0.1575 -1.4457
 2323TIP3   OH228383   3.322   0.839  10.582 -0.1966 -0.2293 -0.2264
 2323TIP3    H128384   3.281   0.866  10.664  0.8589 -0.2376  0.3163
 2323TIP3    H228385   3.248   0.829  10.521 -1.0357 -0.5586  0.8039
 2324TIP3   OH228386   0.207   2.394  12.721  0.0871 -0.3852  0.3743
 2324TIP3    H128387   0.182   2.433  12.637  1.0545 -0.8305 -0.1388
 2324TIP3    H228388   0.227   2.303  12.701 -2.5961 -1.3482  1.6436
 2325TIP3   OH228389   0.288   2.688  14.750 -0.8716 -0.7331 -0.0425
 2325TIP3    H128390   0.384   2.695  14.747 -0.7495 -2.2032 -0.9738
 2325TIP3    H228391   0.257   2.763  14.701 -0.1990 -0.2104  0.3126
 2326TIP3   OH228392   2.425   5.923  13.608  0.2864  0.0345 -0.2207
 2326TIP3    H128393   2.355   5.858  13.610 -0.1239  0.4815  0.7305
 2326TIP3    H228394   2.503   5.875  13.580  0.1329 -1.0154  1.0571
 2327TIP3   OH228395   5.502   3.914  13.380  1.0338  0.6948 -0.0905
 2327TIP3    H128396   5.493   3.983  13.446  0.0642 -0.4013  0.9718
 2327TIP3    H228397   5.537   3.839  13.427  3.2759  0.7575 -1.4846
 2328TIP3   OH228398   0.997   4.918  10.078  0.2303 -0.5553 -0.8180
 2328TIP3    H128399   1.004   4.937   9.984 -0.7177 -0.0447 -0.7961
 2328TIP3    H228400   0.999   4.822  10.083  0.1752 -0.5907 -1.3726
 2329TIP3   OH228401   0.579   1.103  12.331 -0.2361 -0.3699  0.1429
 2329TIP3    H128402   0.611   1.029  12.280 -2.0605 -0.0612 -1.5495
 2329TIP3    H228403   0.658   1.156  12.348  0.9089 -2.0906  0.4660
 2330TIP3   OH228404   5.755   6.799  10.356 -0.6304  0.1578 -0.0527
 2330TIP3    H128405   5.735   6.705  10.361 -1.4995  0.2584 -1.2416
 2330TIP3    H228406   5.777   6.823  10.446 -1.3432 -0.9851  0.4546
 2331TIP3   OH228407   0.401   1.907  13.156 -0.7254 -0.0240  0.0039
 2331TIP3    H128408   0.366   1.985  13.199 -2.6100 -1.5321  1.3597
 2331TIP3    H228409   0.450   1.862  13.224 -0.2045 -0.3718 -0.5885
 2332TIP3   OH228410   5.745   1.552  10.405  0.6465  0.4650 -0.0684
 2332TIP3    H128411   5.728   1.458  10.402  0.3292  0.5031  0.4113
 2332TIP3    H228412   5.731   1.582  10.315 -0.3324  0.2399  0.0021
 2333TIP3   OH228413   1.829   6.492  12.490 -0.1024 -0.1583 -0.0347
 2333TIP3    H128414   1.834   6.410  12.538  1.8158  0.7194  1.3696
 2333TIP3    H228415   1.772   6.472  12.415 -0.7841 -2.3642  0.9868
 2334TIP3   OH228416   6.347   1.826  14.858  0.1731 -0.2478  0.1450
 2334TIP3    H128417   6.269   1.777  14.831 -1.1329  1.4083  0.7473
 2334TIP3    H228418   6.313   1.902  14.904  2.1790  0.3911  0.6860
 2335TIP3   OH228419   2.664   4.695  11.959  0.4980  0.1693  0.1540
 2335TIP3    H128420   2.585   4.743  11.982 -0.2930 -0.3003 -1.4406
 2335TIP3    H228421   2.711   4.754  11.900 -0.4331 -0.9200 -1.7358
 2336TIP3   OH228422   0.812   1.470   1.120  0.5028  0.0033 -0.3859
 2336TIP3    H128423   0.807   1.557   1.160  0.3415  0.4208 -1.2665
 2336TIP3    H228424   0.822   1.410   1.193 -0.1842  0.6958  0.3001
 2337TIP3   OH228425   2.463   4.203  10.293 -0.3618 -0.2210 -0.2888
 2337TIP3    H128426   2.468   4.144  10.368  3.3402 -1.7028 -1.4669
 2337TIP3    H228427   2.394   4.167  10.238 -1.0743 -0.8558  0.9646
 2338TIP3   OH228428   6.025   6.122   5.419  0.6820  0.5945 -0.4318
 2338TIP3    H128429   5.989   6.163   5.340  0.9318  0.2862 -0.7105
 2338TIP3    H228430   5.952   6.073   5.456  0.4974  0.9414 -0.3354
 2339TIP3   OH228431   4.512   1.291  10.348  0.0247  0.2628 -0.4407
 2339TIP3    H128432   4.478   1.326  10.430 -1.2225 -1.4979 -0.1416
 2339TIP3    H228433   4.568   1.360  10.313  0.6715  1.0158  1.9292
 2340TIP3   OH228434   2.808   1.044   0.829  1.0712 -0.0859  0.1235
 2340TIP3    H128435   2.790   0.988   0.754 -0.1620  0.0985  0.2659
 2340TIP3    H228436   2.900   1.069   0.818  0.7595  0.4444 -1.6642
 2341TIP3   OH228437   3.431   2.569  13.166 -0.2388  0.3310 -0.1014
 2341TIP3    H128438   3.512   2.528  13.193 -0.1846 -0.5713 -1.5266
 2341TIP3    H228439   3.457   2.634  13.100 -0.4704  1.6715  1.0755
 2342TIP3   OH228440   6.766   5.663  11.451  0.2468 -0.5048 -0.2830
 2342TIP3    H128441   6.858   5.665  11.475  0.7414  0.1141 -2.0369
 2342TIP3    H228442   6.744   5.570  11.446  0.9838 -0.6658 -0.5671
 2343TIP3   OH228443   4.015   5.795   9.639 -0.4993  0.2018 -0.1313
 2343TIP3    H128444   4.087   5.732   9.633 -1.8605 -1.4910  0.4729
 2343TIP3    H228445   4.021   5.847   9.558 -0.4290 -1.9625 -1.5919
 2344TIP3   OH228446   4.857   6.579   9.389 -0.6954 -0.0411 -0.2471
 2344TIP3    H128447   4.951   6.596   9.386 -0.6709 -0.1895 -0.3905
 2344TIP3    H228448   4.841   6.524   9.312 -0.5474 -1.7805  0.8979
 2345TIP3   OH228449   2.087   1.181   1.127  0.2691 -0.0955  0.5335
 2345TIP3    H128450   2.117   1.092   1.108 -0.7784 -0.6282  1.2740
 2345TIP3    H228451   2.036   1.173   1.208 -0.2414  1.0990  0.3595
 2346TIP3   OH228452   6.960   0.267  10.716  0.1151  0.2428 -0.2603
 2346TIP3    H128453   6.981   0.252  10.624  1.0407 -2.2729  0.2742
 2346TIP3    H228454   7.042   0.248  10.762 -0.4879  0.8817  1.1336
 2347TIP3   OH228455   4.670   4.437  14.646 -0.2043 -0.0415  0.7350
 2347TIP3    H128456   4.754   4.404  14.613  0.2258  0.8787  0.8842
 2347TIP3    H228457   4.622   4.463  14.567 -0.4686 -0.8109  0.6303
 2348TIP3   OH228458   0.177   6.006  12.203  0.4601 -0.0733 -0.1344
 2348TIP3    H128459   0.166   6.058  12.123 -2.0398 -1.5309 -0.8570
 2348TIP3    H228460   0.126   6.054  12.269  1.0445  0.1832  0.1424
 2349TIP3   OH228461   1.589   2.180  13.949 -0.1945 -0.4206 -0.7645
 2349TIP3    H128462   1.676   2.140  13.945 -0.0544 -0.0791 -1.3321
 2349TIP3    H228463   1.606   2.271  13.974 -0.5226 -0.7360  0.6956
 2350TIP3   OH228464   4.526   4.073  10.683  0.6774  0.5247 -0.3245
 2350TIP3    H128465   4.496   3.983  10.698  2.3298  0.1248  0.9154
 2350TIP3    H228466   4.562   4.072  10.595  3.0352 -0.8008  0.5556
 2351TIP3   OH228467   6.594   1.171  11.562 -0.2407  0.6474 -0.7458
 2351TIP3    H128468   6.645   1.210  11.491  2.5974 -1.5780 -0.1140
 2351TIP3    H228469   6.606   1.077  11.551 -2.1432  0.1303  1.0120
 2352TIP3   OH228470   0.555   5.562  14.132  0.4102  0.1089  0.0153
 2352TIP3    H128471   0.567   5.618  14.055  1.5830 -0.4319 -0.2132
 2352TIP3    H228472   0.615   5.597  14.197  1.2695 -0.9640 -0.1806
 2353TIP3   OH228473   0.927   2.275  10.091 -0.0370 -0.0342 -0.7072
 2353TIP3    H128474   0.960   2.224  10.017  0.0811 -1.1923  0.1140
 2353TIP3    H228475   1.003   2.284  10.149 -0.2068  0.6012 -0.5728
 2354TIP3   OH228476   5.997   6.071  10.804 -0.1812 -0.4795  0.1936
 2354TIP3    H128477   6.007   6.071  10.709  0.8073  2.6369  0.1803
 2354TIP3    H228478   6.000   5.978  10.828  0.3212 -1.3320 -2.7045
 2355TIP3   OH228479   7.020   1.746  12.236 -0.4773 -0.1641  0.2712
 2355TIP3    H128480   6.993   1.754  12.144  1.0402 -1.1572 -0.2927
 2355TIP3    H228481   7.028   1.837  12.266 -2.4549  0.1794 -0.0868
 2356TIP3   OH228482   0.357   5.514  10.714  0.0117 -0.4623  0.7413
 2356TIP3    H128483   0.363   5.568  10.793  0.3591  1.4512 -0.5122
 2356TIP3    H228484   0.268   5.528  10.683  0.3452  0.0760 -0.0173
 2357TIP3   OH228485   0.298   6.105  13.327  0.2915 -0.4716 -0.4699
 2357TIP3    H128486   0.306   6.191  13.286  0.3432 -0.4332 -0.3799
 2357TIP3    H228487   0.386   6.068  13.323 -0.1052 -1.3342 -2.2739
 2358TIP3   OH228488   4.459   0.134  10.521  0.1269  0.1077  0.8993
 2358TIP3    H128489   4.439   0.146  10.428 -0.9744  3.5181  1.4393
 2358TIP3    H228490   4.518   0.059  10.523 -1.1258 -1.1429 -2.3463
 2359TIP3   OH228491   3.453   2.741   9.996 -0.1147 -0.4265 -0.6400
 2359TIP3    H128492   3.439   2.831  10.024 -1.9386 -1.4543  2.2018
 2359TIP3    H228493   3.546   2.725  10.012  0.4488  1.1590 -2.0631
 2360TIP3   OH228494   0.952   6.157  14.804  0.1257 -0.0113  0.0939
 2360TIP3    H128495   0.960   6.196  14.716 -5.1183 -1.1032 -1.2330
 2360TIP3    H228496   0.963   6.063  14.790 -1.2967 -0.2480  0.4220
 2361TIP3   OH228497   6.894   2.358  13.831  0.2432 -0.2465  0.0262
 2361TIP3    H128498   6.959   2.319  13.772 -1.0075 -1.0034 -0.9157
 2361TIP3    H228499   6.878   2.445  13.795  0.7835 -0.0351  0.2986
 2362TIP3   OH228500   5.113   1.852  12.758  0.0682 -0.3613 -0.4232
 2362TIP3    H128501   5.193   1.903  12.774  0.6846 -1.6669  1.0034
 2362TIP3    H228502   5.058   1.870  12.834 -1.6603  1.5881 -2.0311
 2363TIP3   OH228503   2.139   6.756   0.308 -0.2979  0.0474  0.0670
 2363TIP3    H128504   2.144   6.744   0.213  0.2128  1.4621 -0.1122
 2363TIP3    H228505   2.230   6.755   0.337 -0.5138 -1.8690  0.7717
 2364TIP3   OH228506   2.308   0.067  15.224 -0.1293  0.0067  0.4428
 2364TIP3    H128507   2.242  -0.001  15.207  0.1779 -0.4008  0.8348
 2364TIP3    H228508   2.261   0.134  15.274 -0.3343 -0.1179  0.4203
 2365TIP3   OH228509   4.819   6.355  12.078  0.2514  0.1094  0.3062
 2365TIP3    H128510   4.724   6.341  12.071  0.4285 -0.4919 -1.5467
 2365TIP3    H228511   4.843   6.397  11.996  1.7501 -0.7718  0.2600
 2366TIP3   OH228512   4.731   2.965  11.910 -0.4422 -0.3653 -0.1649
 2366TIP3    H128513   4.743   2.915  11.829  0.0665 -0.4440 -0.0438
 2366TIP3    H228514   4.637   2.961  11.926 -0.6719  0.3584 -1.2074
 2367TIP3   OH228515   4.844   1.216   0.708  0.5072  0.2733 -0.1553
 2367TIP3    H128516   4.775   1.254   0.653  0.1697  1.4939  1.0445
 2367TIP3    H228517   4.852   1.126   0.678 -1.9161 -0.0431 -0.0873
 2368TIP3   OH228518   5.199   4.978  10.535 -0.0369  0.4220  0.2501
 2368TIP3    H128519   5.171   4.971  10.444  0.2585 -2.4473  0.2850
 2368TIP3    H228520   5.291   5.003  10.531 -0.8746  4.0084 -0.0267
 2369TIP3   OH228521   6.310   3.535   0.668 -0.0237 -0.1896 -0.2344
 2369TIP3    H128522   6.251   3.555   0.596  0.0509 -1.0127 -0.5298
 2369TIP3    H228523   6.386   3.591   0.653  0.7335 -1.5266 -1.7620
 2370TIP3   OH228524   6.124   6.429  14.254 -0.2805  0.4081 -0.0573
 2370TIP3    H128525   6.107   6.335  14.250 -1.3322  0.5604  0.5690
 2370TIP3    H228526   6.142   6.454  14.163  0.0081 -0.3925 -0.2281
 2371TIP3   OH228527   6.781   0.197   9.494  0.2868  0.0095  0.3069
 2371TIP3    H128528   6.831   0.116   9.482  2.0105  1.2743 -1.6379
 2371TIP3    H228529   6.729   0.205   9.414  0.3706  0.9950  0.3440
 2372TIP3   OH228530   3.883   0.202  12.629 -0.1896  0.0608 -0.4506
 2372TIP3    H128531   3.809   0.237  12.579  0.2068 -2.8004 -3.3484
 2372TIP3    H228532   3.915   0.129  12.577  1.2297 -2.3786  3.3977
 2373TIP3   OH228533   0.376   6.349  13.248  0.0801 -0.0146 -0.4077
 2373TIP3    H128534   0.464   6.386  13.237  0.8236 -1.6732 -0.3488
 2373TIP3    H228535   0.353   6.368  13.339  1.1757 -1.1538  0.1369
 2374TIP3   OH228536   3.085   2.481  15.091  0.0892  0.3840  0.0690
 2374TIP3    H128537   3.019   2.493  15.159  0.5203 -0.3126  0.6214
 2374TIP3    H228538   3.068   2.552  15.029 -1.6546 -0.2344 -0.2032
 2375TIP3   OH228539   4.508   0.577  10.629 -0.3771 -0.2796 -0.0564
 2375TIP3    H128540   4.452   0.541  10.561  1.4285  1.7967 -2.8633
 2375TIP3    H228541   4.560   0.503  10.660 -1.5670 -1.3529 -0.5540
 2376TIP3   OH228542   6.132   1.338  14.123  0.2637 -0.2323 -0.0843
 2376TIP3    H128543   6.227   1.327  14.123  0.5714  1.9269  1.1505
 2376TIP3    H228544   6.100   1.266  14.178  1.1977 -0.8197 -0.2954
 2377TIP3   OH228545   1.063   4.713  11.363 -0.4573 -0.1375 -0.1553
 2377TIP3    H128546   1.126   4.684  11.429  0.0245  1.6398  0.2255
 2377TIP3    H228547   1.110   4.705  11.280 -1.4473 -3.4755 -0.5189
 2378TIP3   OH228548   6.440   4.853  13.786  0.4131 -0.0845  0.5805
 2378TIP3    H128549   6.507   4.921  13.789  0.9675 -0.5590 -0.5670
 2378TIP3    H228550   6.408   4.856  13.695 -0.1782 -0.7658  0.7621
 2379TIP3   OH228551   3.049   2.537  10.509  0.1910  0.1268  0.1569
 2379TIP3    H128552   3.049   2.572  10.420  0.3270  1.0952  0.5243
 2379TIP3    H228553   2.997   2.600  10.559 -0.5578 -0.8345  0.6081
 2380TIP3   OH228554   3.655   2.689  12.452  0.7699  0.4779 -0.1335
 2380TIP3    H128555   3.716   2.663  12.522 -0.7832  1.6620  1.7736
 2380TIP3    H228556   3.590   2.619  12.451  0.1969  0.9872  0.4079
 2381TIP3   OH228557   3.513   1.176  11.107 -0.1990 -0.6060 -0.3289
 2381TIP3    H128558   3.559   1.133  11.179 -0.6329 -1.0284 -0.3019
 2381TIP3    H228559   3.514   1.269  11.130 -0.1267 -0.7121  0.1063
 2382TIP3   OH228560   5.637   3.900  12.603  0.5281  0.4106  0.1981
 2382TIP3    H128561   5.601   3.829  12.551  0.8140  1.2587 -1.2022
 2382TIP3    H228562   5.588   3.897  12.686 -0.5408 -0.4109 -0.4412
 2383TIP3   OH228563   2.638   2.199   3.743 -0.5080  0.4102  0.0401
 2383TIP3    H128564   2.615   2.134   3.810  0.3271 -1.0944 -1.0889
 2383TIP3    H228565   2.656   2.148   3.664  2.3029  1.7740 -0.3483
 2384TIP3   OH228566   0.580   2.976  14.054 -0.3507 -0.1105 -0.2369
 2384TIP3    H128567   0.586   3.071  14.052 -0.1694 -0.1215 -0.2321
 2384TIP3    H228568   0.517   2.957  14.123 -2.3795  0.1010 -1.9211
 2385TIP3   OH228569   3.005   3.863  14.293  0.2654 -0.4387 -0.0945
 2385TIP3    H128570   2.921   3.867  14.337  0.9052 -0.5887  1.1971
 2385TIP3    H228571   3.009   3.942  14.240 -0.1612  0.2078  0.8246
 2386TIP3   OH228572   4.669   0.845  14.216 -0.0292  0.4074 -0.3299
 2386TIP3    H128573   4.632   0.814  14.133 -1.4710  1.3479 -0.0722
 2386TIP3    H228574   4.745   0.789  14.231  0.1068  0.0569 -2.1545
 2387TIP3   OH228575   2.698   0.580  11.900  0.4433 -0.4319  0.2776
 2387TIP3    H128576   2.736   0.666  11.920 -3.1688  1.0526  1.6651
 2387TIP3    H228577   2.689   0.538  11.985  0.2782 -1.3506 -0.1815
 2388TIP3   OH228578   3.719   0.129  10.931 -0.7736  0.2155  0.4066
 2388TIP3    H128579   3.680   0.068  10.867  0.5224  1.9269 -2.1721
 2388TIP3    H228580   3.654   0.133  11.001 -3.9085  0.5896 -2.2265
 2389TIP3   OH228581   2.697   3.117  13.321  0.4447  0.5987  0.3499
 2389TIP3    H128582   2.766   3.104  13.255 -1.1487 -1.8989 -1.0161
 2389TIP3    H228583   2.672   3.028  13.346 -2.1878  1.3858  0.8480
 2390TIP3   OH228584   1.689   4.521  11.939  0.1083 -0.3950  0.2807
 2390TIP3    H128585   1.686   4.600  11.885 -0.3820 -1.2592 -1.0034
 2390TIP3    H228586   1.779   4.518  11.972  0.3009  0.3750 -0.1470
 2391TIP3   OH228587   2.363   0.660  11.515  0.1090  0.0725 -0.0301
 2391TIP3    H128588   2.401   0.746  11.497  1.6379 -0.4484  0.5102
 2391TIP3    H228589   2.402   0.634  11.599 -0.4318 -1.0765 -0.1119
 2392TIP3   OH228590   1.220   4.123  11.793 -0.0350  0.4456 -0.1592
 2392TIP3    H128591   1.151   4.185  11.816  0.3041  1.9637 -2.8619
 2392TIP3    H228592   1.274   4.116  11.873 -1.6823  1.3997  1.0891
 2393TIP3   OH228593   3.486   5.776   1.289 -0.1021 -0.0656  0.1624
 2393TIP3    H128594   3.550   5.827   1.240 -0.2992  0.0824  0.0586
 2393TIP3    H228595   3.536   5.736   1.359  0.4308 -1.2688 -0.8691
 2394TIP3   OH228596   6.016   1.548  10.586 -0.0605  0.4908  0.0516
 2394TIP3    H128597   5.974   1.542  10.672 -0.9149  2.1938 -0.2249
 2394TIP3    H228598   5.944   1.556  10.524  0.5477 -0.7486 -0.8586
 2395TIP3   OH228599   1.593   6.187  11.502 -1.4424  0.0059 -0.9824
 2395TIP3    H128600   1.688   6.196  11.500 -1.6262  2.5497 -1.3996
 2395TIP3    H228601   1.578   6.103  11.546  0.9727 -0.8294 -1.5790
 2396TIP3   OH228602   3.594   3.777  11.003 -0.0246  0.0166 -0.0533
 2396TIP3    H128603   3.595   3.693  10.956  2.1490  0.2575 -0.5145
 2396TIP3    H228604   3.631   3.840  10.942 -2.9621  1.7411 -0.2847
 2397TIP3   OH228605   3.174   5.137  10.546 -0.3247  0.3180  0.4518
 2397TIP3    H128606   3.254   5.089  10.566  1.2456  2.4613 -0.3707
 2397TIP3    H228607   3.113   5.113  10.616  1.3812 -0.5582  1.6990
 2398TIP3   OH228608   0.710   2.737  10.294 -0.3097 -0.8926 -0.1517
 2398TIP3    H128609   0.685   2.697  10.378  0.0721  1.4106  1.1460
 2398TIP3    H228610   0.698   2.831  10.308 -0.5077 -0.4471 -2.8150
 2399TIP3   OH228611   5.777   1.058   9.742 -0.0038 -0.1486  0.4408
 2399TIP3    H128612   5.691   1.084   9.710 -0.6382 -0.7266  1.6306
 2399TIP3    H228613   5.821   1.022   9.664 -0.7684  0.2781 -0.2102
 2400TIP3   OH228614   4.874   5.978  13.647 -0.1978  0.2944 -0.0355
 2400TIP3    H128615   4.907   5.888  13.645 -0.3348  0.2505 -0.3764
 2400TIP3    H228616   4.895   6.009  13.735 -0.7209 -0.2841  0.3047
 2401TIP3   OH228617   4.357   5.710  10.304  0.3627 -0.1319 -0.1486
 2401TIP3    H128618   4.292   5.742  10.367 -0.9732 -1.0980 -0.9685
 2401TIP3    H228619   4.345   5.615  10.304  1.0556 -0.2278 -1.0938
 2402TIP3   OH228620   0.707   2.731  14.990  0.0595 -0.0238 -0.6791
 2402TIP3    H128621   0.641   2.675  15.029  0.5752  0.1892  0.5602
 2402TIP3    H228622   0.754   2.769  15.065  1.1077  0.3883 -1.5092
 2403TIP3   OH228623   5.812   3.613  10.640  0.4980 -0.1456  0.0052
 2403TIP3    H128624   5.770   3.530  10.664  0.6995 -0.3812 -0.4280
 2403TIP3    H228625   5.877   3.588  10.574  1.9511  0.0878  1.2869
 2404TIP3   OH228626   1.656   2.733  13.357 -0.0361  0.1055  0.5008
 2404TIP3    H128627   1.571   2.765  13.385 -0.4049  0.2185 -0.6884
 2404TIP3    H228628   1.644   2.639  13.344 -1.0168  0.5477 -2.9553
 2405TIP3   OH228629   3.849   5.040   9.830 -0.3417 -0.6165 -0.4365
 2405TIP3    H128630   3.902   5.016   9.754  0.6432 -0.6324  0.2470
 2405TIP3    H228631   3.864   5.134   9.841  0.9033 -0.9183  0.7591
 2406TIP3   OH228632   0.377   5.207  10.076 -0.3850 -0.4326  0.3306
 2406TIP3    H128633   0.353   5.183   9.986  0.9962 -0.0286 -0.1652
 2406TIP3    H228634   0.419   5.293  10.067 -0.7578 -0.1158  1.4495
 2407TIP3   OH228635   2.062   5.403  12.660 -0.2467  0.4994  0.2793
 2407TIP3    H128636   2.003   5.338  12.623  0.2453  0.1590  0.0895
 2407TIP3    H228637   2.080   5.371  12.748 -1.2724  1.2143  0.7759
 2408TIP3   OH228638   6.302   0.796  12.441  0.0047 -0.3034 -0.0950
 2408TIP3    H128639   6.394   0.818  12.457 -0.4940  2.1717 -0.1965
 2408TIP3    H228640   6.282   0.728  12.504  1.2859  0.8464  1.6323
 2409TIP3   OH228641   1.526   4.248  13.111  0.7040 -0.2966  0.1315
 2409TIP3    H128642   1.588   4.302  13.062  0.8238  0.2309  0.8453
 2409TIP3    H228643   1.534   4.161  13.072 -0.2064  0.3849 -1.7018
 2410TIP3   OH228644   5.695   6.774  10.769  0.4840 -0.8040  0.4270
 2410TIP3    H128645   5.663   6.728  10.847  1.8847 -0.4594  1.2528
 2410TIP3    H228646   5.790   6.764  10.774  0.7264  1.0313 -0.1024
 2411TIP3   OH228647   4.361   6.134  11.610  0.0923  0.0478 -0.3051
 2411TIP3    H128648   4.359   6.215  11.660  0.1574  0.2668 -0.6565
 2411TIP3    H228649   4.366   6.065  11.677 -0.6588  0.2947  0.0214
 2412TIP3   OH228650   3.992   0.502  10.694 -0.4021 -0.0864 -0.3133
 2412TIP3    H128651   3.993   0.514  10.789 -0.8955 -1.1212 -0.1576
 2412TIP3    H228652   3.952   0.415  10.682  0.4829 -0.3529 -1.4279
 2413TIP3   OH228653   2.396   0.471   9.698 -1.4002 -0.0111 -0.0922
 2413TIP3    H128654   2.398   0.509   9.786 -1.1627 -0.1306 -0.0448
 2413TIP3    H228655   2.474   0.415   9.695 -1.4798 -0.1073 -0.3330
 2414TIP3   OH228656   5.179   2.923  10.784 -0.2564 -0.1856 -0.4370
 2414TIP3    H128657   5.222   2.974  10.852  1.4249  0.7224 -2.0750
 2414TIP3    H228658   5.245   2.860  10.756 -0.5869  0.0194 -1.7687
 2415TIP3   OH228659   0.776   0.691  14.982  0.4175 -0.0243  0.1080
 2415TIP3    H128660   0.717   0.616  14.979  1.2713 -0.7451  0.7638
 2415TIP3    H228661   0.832   0.675  15.057  1.5179  0.5858 -0.5486
 2416TIP3   OH228662   1.123   2.843  10.334 -0.2143 -0.4684  0.0297
 2416TIP3    H128663   1.044   2.891  10.308 -0.7797 -0.5815  1.4315
 2416TIP3    H228664   1.188   2.911  10.351  0.3389 -0.4113 -2.0823
 2417TIP3   OH228665   4.022   1.922   0.678 -0.4185 -0.6584 -0.0635
 2417TIP3    H128666   4.038   2.013   0.699 -1.0320 -0.7515  0.8338
 2417TIP3    H228667   4.024   1.919   0.582  1.9998 -0.1655 -0.0973
 2418TIP3   OH228668   6.670   5.795  12.288 -0.1579 -0.4137 -0.1374
 2418TIP3    H128669   6.594   5.808  12.345  0.7504  0.1832  0.9927
 2418TIP3    H228670   6.716   5.879  12.290  1.3597 -1.2048  0.4994
 2419TIP3   OH228671   4.224   1.309  11.599  0.4063 -0.0209 -0.5701
 2419TIP3    H128672   4.298   1.360  11.565 -0.0715 -0.5123 -2.4431
 2419TIP3    H228673   4.194   1.358  11.675  1.0386  1.5610 -1.2992
 2420TIP3   OH228674   2.770   4.464  10.749  0.4561  0.4361  0.3825
 2420TIP3    H128675   2.734   4.386  10.708 -1.0241  0.7239  1.0482
 2420TIP3    H228676   2.786   4.525  10.677  0.2785  0.0252 -0.0032
 2421TIP3   OH228677   1.039   1.408   0.385 -0.1493 -0.1032 -0.3536
 2421TIP3    H128678   1.028   1.457   0.303 -1.3429 -0.8837 -0.6959
 2421TIP3    H228679   0.965   1.347   0.386  0.7776 -1.2620  0.5047
 2422TIP3   OH228680   0.302   0.359  12.004 -0.3450 -0.2012 -0.2519
 2422TIP3    H128681   0.334   0.391  11.920  0.8601 -1.9516 -0.5094
 2422TIP3    H228682   0.229   0.301  11.981  1.1522 -2.1667 -0.3184
 2423TIP3   OH228683   6.551   2.483  13.277 -0.3232 -0.1014 -0.0879
 2423TIP3    H128684   6.528   2.437  13.357 -0.7683  0.6914  0.2510
 2423TIP3    H228685   6.635   2.447  13.251 -0.2581 -0.4790  0.6468
 2424TIP3   OH228686   0.500   6.765  12.004 -0.2943 -0.4280 -0.0762
 2424TIP3    H128687   0.540   6.753  12.090  0.3820  1.6473 -0.0489
 2424TIP3    H228688   0.411   6.732  12.014 -0.2814 -0.0464  1.4822
 2425TIP3   OH228689   1.916   2.993   0.324 -0.4910  0.0300  0.5166
 2425TIP3    H128690   1.857   2.978   0.398 -1.5899 -0.8717 -0.4998
 2425TIP3    H228691   1.862   2.976   0.247  0.9581 -0.3045 -0.4637
 2426TIP3   OH228692   5.938   3.169   0.582 -0.1694 -0.1500  0.1441
 2426TIP3    H128693   6.000   3.232   0.544 -0.2925  0.2698  0.6294
 2426TIP3    H228694   5.989   3.124   0.649  0.1018 -1.0228 -0.6369
 2427TIP3   OH228695   3.036   4.388  10.390  0.0321 -0.1181  0.2040
 2427TIP3    H128696   3.064   4.461  10.445  3.1098 -0.0828 -1.2306
 2427TIP3    H228697   3.023   4.316  10.451  0.6387  0.6535  1.2791
 2428TIP3   OH228698   3.859   1.774  12.237  0.4458 -0.2005  0.0446
 2428TIP3    H128699   3.848   1.764  12.142  1.0408  0.8017 -0.1463
 2428TIP3    H228700   3.797   1.843  12.261  0.4563 -0.2940  0.3446
 2429TIP3   OH228701   3.254   4.485  11.498  0.2543 -0.3054  0.2586
 2429TIP3    H128702   3.172   4.447  11.531 -0.0688 -1.0768 -1.3508
 2429TIP3    H228703   3.231   4.519  11.412  1.6078 -0.3697 -0.1376
 2430TIP3   OH228704   1.535   5.576   0.114 -0.0786  0.4756  0.8367
 2430TIP3    H128705   1.598   5.519   0.159 -0.2683 -0.0158  0.4838
 2430TIP3    H228706   1.583   5.610   0.038 -0.5598 -0.7600 -0.0479
 2431TIP3   OH228707   5.118   5.579  15.299 -0.5417  0.0054 -0.2567
 2431TIP3    H128708   5.096   5.526  15.222 -1.6225 -1.0024  0.7244
 2431TIP3    H228709   5.203   5.545  15.328  0.4721  1.1882 -1.6606
 2432TIP3   OH228710   1.247   6.650   9.370  0.0334 -0.1756 -0.1376
 2432TIP3    H128711   1.297   6.569   9.373 -0.3346 -0.3706  0.9890
 2432TIP3    H228712   1.312   6.719   9.360  0.6988 -0.3072  2.5318
 2433TIP3   OH228713   3.439   0.990  10.360 -0.8117 -0.3719 -0.3318
 2433TIP3    H128714   3.448   0.994  10.456 -0.0534 -0.2696 -0.4001
 2433TIP3    H228715   3.349   1.018  10.343 -0.6092  0.7008  0.2815
 2434TIP3   OH228716   0.927   3.273  13.828  0.2755 -0.0633  0.0604
 2434TIP3    H128717   0.881   3.195  13.860  3.8053 -1.6843  1.6140
 2434TIP3    H228718   0.912   3.339  13.895 -1.2304  0.0859 -0.3795
 2435TIP3   OH228719   2.373   7.022  13.065  0.1666  0.0842  0.3087
 2435TIP3    H128720   2.459   7.039  13.103 -0.0409  1.9383  0.0207
 2435TIP3    H228721   2.388   7.017  12.971 -0.2569  2.3027  0.0745
 2436TIP3   OH228722   1.118   1.241  10.646 -0.2434 -0.1985  0.1829
 2436TIP3    H128723   1.074   1.162  10.613 -1.4342  0.9560 -1.1486
 2436TIP3    H228724   1.208   1.233  10.615 -0.6366 -0.5176 -0.9437
 2437TIP3   OH228725   6.930   0.284  13.182  0.1047 -0.5021  0.6804
 2437TIP3    H128726   7.023   0.287  13.159  0.1626  0.3182  1.0272
 2437TIP3    H228727   6.916   0.195  13.214  1.0933 -0.1937  1.9980
 2438TIP3   OH228728   1.013   6.581   0.088 -0.2318 -0.0585  0.2177
 2438TIP3    H128729   1.005   6.540   0.174  0.4065  0.1454  0.3860
 2438TIP3    H228730   0.925   6.610   0.067 -0.6526 -1.3253  0.1827
 2439TIP3   OH228731   0.925   5.133  10.627  0.4168 -0.8610  0.6597
 2439TIP3    H128732   0.867   5.070  10.583  2.1167 -2.0691  0.0227
 2439TIP3    H228733   1.009   5.123  10.581  1.2564  0.4895  1.8418
 2440TIP3   OH228734   0.882   2.472  13.442 -0.7395 -0.3594  0.3576
 2440TIP3    H128735   0.795   2.469  13.483 -0.9597 -0.2793 -0.0978
 2440TIP3    H228736   0.864   2.477  13.348 -0.2348 -1.2157  0.2089
 2441TIP3   OH228737   1.386   5.742  12.754 -0.1078  0.0906 -0.2863
 2441TIP3    H128738   1.387   5.837  12.767  1.9474  0.1795 -0.8702
 2441TIP3    H228739   1.452   5.708  12.814  1.4309 -0.6089 -2.2561
 2442TIP3   OH228740   1.305   0.574  10.379  0.3136 -0.1791 -0.5589
 2442TIP3    H128741   1.239   0.513  10.345  0.4246 -1.8838  2.0673
 2442TIP3    H228742   1.259   0.622  10.448  1.3305 -0.0963  0.0717
 2443TIP3   OH228743   5.024   3.029  10.210  0.1771 -0.2806  0.9452
 2443TIP3    H128744   5.080   3.093  10.254  3.7374 -3.0218  0.9717
 2443TIP3    H228745   5.051   3.034  10.118 -0.1671 -1.0758  0.7952
 2444TIP3   OH228746   1.656   0.438  12.620  0.2717  0.5041 -0.0886
 2444TIP3    H128747   1.684   0.415  12.531  2.7083 -0.2464  0.8002
 2444TIP3    H228748   1.680   0.530  12.629  1.1574  0.2523  0.1834
 2445TIP3   OH228749   4.373   3.959   2.825 -0.6407  0.4514  0.0065
 2445TIP3    H128750   4.387   3.990   2.914  2.3812 -0.1141 -0.1640
 2445TIP3    H228751   4.352   3.866   2.835 -3.1844  0.9534  0.1705
 2446TIP3   OH228752   2.123   4.553  10.293 -0.2515 -0.0786 -0.0380
 2446TIP3    H128753   2.122   4.590  10.382 -2.9532 -0.0400  0.0141
 2446TIP3    H228754   2.143   4.627  10.236  0.8623  0.0305  0.4678
 2447TIP3   OH228755   6.185   3.945  14.219 -0.1140  0.9042  0.1023
 2447TIP3    H128756   6.106   3.997  14.207 -0.2760  0.7969  0.6648
 2447TIP3    H228757   6.233   3.954  14.137 -2.1822 -1.5424 -1.5399
 2448TIP3   OH228758   3.338   6.715  14.459 -0.1509 -0.3894  0.4279
 2448TIP3    H128759   3.286   6.693  14.382 -0.2817  3.5248 -0.8236
 2448TIP3    H228760   3.411   6.766  14.425 -0.0550  1.2348  2.8324
 2449TIP3   OH228761   5.468   4.823  13.198  0.0118 -0.3189 -0.1088
 2449TIP3    H128762   5.433   4.825  13.287 -2.0487  1.8188 -0.8625
 2449TIP3    H228763   5.557   4.788  13.208  0.9964  2.5560  3.2300
 2450TIP3   OH228764   0.765   4.645  13.734  0.5490  0.2792  0.3410
 2450TIP3    H128765   0.728   4.558  13.720  0.4091  0.3445  0.3108
 2450TIP3    H228766   0.854   4.639  13.699  1.3014 -0.4968  2.2321
 2451TIP3   OH228767   6.069   0.457   0.234  0.2363 -0.0961 -0.2047
 2451TIP3    H128768   6.047   0.364   0.234 -0.2254  0.0070 -0.2942
 2451TIP3    H228769   6.133   0.467   0.305 -0.6344 -0.2736  0.6345
 2452TIP3   OH228770   0.769   1.039  10.425 -0.2603 -0.3435  0.0092
 2452TIP3    H128771   0.683   1.005  10.400  0.7177 -1.2213 -2.5428
 2452TIP3    H228772   0.828   1.003  10.359  1.8459  1.4023  0.8442
 2453TIP3   OH228773   5.044   4.502   9.897 -0.4391 -0.0894 -0.4362
 2453TIP3    H128774   4.950   4.483   9.893  0.0848 -3.3735  0.1945
 2453TIP3    H228775   5.071   4.470   9.983  1.1971  1.4219 -0.3312
 2454TIP3   OH228776   4.840   1.493   2.557 -0.3054  0.3706 -0.1703
 2454TIP3    H128777   4.903   1.424   2.576 -0.1096  0.6097  0.0508
 2454TIP3    H228778   4.769   1.448   2.511  0.0952  0.1282 -0.5566
 2455TIP3   OH228779   3.934   3.764   0.248  0.5366 -0.1007  0.2776
 2455TIP3    H128780   3.865   3.725   0.302  0.8933 -1.4138 -0.1812
 2455TIP3    H228781   3.887   3.819   0.185 -0.0721 -0.7625  0.1480
 2456TIP3   OH228782   2.283   6.674  10.153 -0.3429  0.1092 -0.0282
 2456TIP3    H128783   2.240   6.592  10.126  1.8027 -1.8713  2.0265
 2456TIP3    H228784   2.264   6.736  10.083 -0.9240 -2.5803 -2.4296
 2457TIP3   OH228785   0.935   3.871  11.534  0.4256 -0.3718  0.0887
 2457TIP3    H128786   0.968   3.782  11.549  0.1340 -0.1657  2.2951
 2457TIP3    H228787   0.935   3.911  11.621 -0.4528  1.4411 -0.7071
 2458TIP3   OH228788   1.881   6.661   9.839 -0.4589 -0.0773  0.0679
 2458TIP3    H128789   1.868   6.578   9.886  1.4772 -0.4120  0.1092
 2458TIP3    H228790   1.976   6.669   9.831 -0.5982  2.2174  0.1546
 2459TIP3   OH228791   4.630   6.913   9.694 -0.0440  0.8897 -0.8993
 2459TIP3    H128792   4.711   6.941   9.736  0.3253  0.2934 -1.2054
 2459TIP3    H228793   4.641   6.819   9.678 -1.6493  0.3245  0.9515
 2460TIP3   OH228794   3.197   2.345   0.308  0.5985 -0.2685 -0.0199
 2460TIP3    H128795   3.161   2.313   0.391 -1.0984  0.1672 -0.5653
 2460TIP3    H228796   3.258   2.415   0.334 -2.3136  2.1779  0.8005
 2461TIP3   OH228797   6.980   5.352  11.425 -0.1177 -0.3083  0.2827
 2461TIP3    H128798   6.931   5.281  11.383  0.8252 -0.4038 -0.6927
 2461TIP3    H228799   7.031   5.308  11.493 -1.9035 -0.1097  1.8479
 2462TIP3   OH228800   2.307   1.076  15.467 -0.3899  0.0892 -0.5607
 2462TIP3    H128801   2.319   1.142  15.399 -1.0612  0.1200 -0.6526
 2462TIP3    H228802   2.394   1.066  15.506 -0.2854  1.0388 -0.5291
 2463TIP3   OH228803   5.241   5.072  11.076  0.3751  0.1650  0.2961
 2463TIP3    H128804   5.243   5.042  10.985 -0.2179 -0.0980  0.3644
 2463TIP3    H228805   5.191   5.153  11.074  0.9712  0.5365  0.2867
 2464TIP3   OH228806   0.078   1.569  12.171 -0.3423  0.5839  0.5591
 2464TIP3    H128807   0.122   1.552  12.254  1.2201  2.9059  0.3197
 2464TIP3    H228808   0.017   1.640  12.190 -1.1038  0.0832  0.0360
 2465TIP3   OH228809   1.547   3.693   2.067 -0.2026 -0.2138  0.4613
 2465TIP3    H128810   1.634   3.679   2.031 -0.0525  1.1146  0.2386
 2465TIP3    H228811   1.562   3.733   2.152 -0.5798  0.5497  0.1853
 2466TIP3   OH228812   4.125   5.893  11.881 -0.6178 -0.5770  0.2220
 2466TIP3    H128813   4.076   5.942  11.947 -0.3949 -0.1521  0.0765
 2466TIP3    H228814   4.138   5.955  11.809  0.7155 -0.4537  0.5388
 2467TIP3   OH228815   5.171   6.392  11.956 -0.0710  0.5814  0.1745
 2467TIP3    H128816   5.121   6.423  11.880  1.0186 -0.0716 -0.8525
 2467TIP3    H228817   5.200   6.304  11.931 -0.2046  0.0924  1.6177
 2468TIP3   OH228818   4.515   2.153   0.555 -0.3575 -0.5922 -0.0502
 2468TIP3    H128819   4.538   2.084   0.493  2.1006 -0.7874  0.9497
 2468TIP3    H228820   4.547   2.234   0.514 -1.9039 -0.2089 -0.5619
 2469TIP3   OH228821   6.439   5.764   9.167 -0.1445 -0.0445 -0.4987
 2469TIP3    H128822   6.389   5.774   9.086  0.3285  0.6833 -0.7019
 2469TIP3    H228823   6.530   5.775   9.140  0.0086  0.2736  0.1462
 2470TIP3   OH228824   4.165   4.768  11.452 -0.2074  0.0366 -0.5494
 2470TIP3    H128825   4.196   4.781  11.363 -0.7886 -1.5075 -1.0122
 2470TIP3    H228826   4.071   4.788  11.448 -0.3953 -0.7863 -0.4897
 2471TIP3   OH228827   3.142   1.445   2.189 -0.0735  0.2308  0.1316
 2471TIP3    H128828   3.069   1.399   2.229 -0.3291  0.9546  0.5186
 2471TIP3    H228829   3.169   1.510   2.254 -0.1573  1.0764 -0.6507
 2472TIP3   OH228830   5.700   3.798  12.934  0.1813  0.0851  0.6021
 2472TIP3    H128831   5.788   3.801  12.896  0.0034  0.1782  0.1978
 2472TIP3    H228832   5.704   3.858  13.008  0.6595 -0.4368  1.0045
 2473TIP3   OH228833   2.769   4.890  12.151  0.4367 -0.0208 -0.0115
 2473TIP3    H128834   2.759   4.889  12.246 -0.3311 -1.2302 -0.0862
 2473TIP3    H228835   2.681   4.908  12.117  0.4665 -0.7418 -0.5049
 2474TIP3   OH228836   0.010   2.131  14.940  0.0765 -0.0280  0.0134
 2474TIP3    H128837  -0.059   2.197  14.944 -0.6182 -0.5202 -2.3091
 2474TIP3    H228838   0.061   2.155  14.863  2.5534  0.2975  1.6561
 2475TIP3   OH228839   4.125   0.338  10.263  0.1569 -0.2777  0.2384
 2475TIP3    H128840   4.153   0.430  10.260 -0.3819 -0.1255 -0.2119
 2475TIP3    H228841   4.063   0.329  10.191 -0.3461 -0.8160  0.7303
 2476TIP3   OH228842   4.221   4.156  11.639  0.2540 -0.1071 -0.5316
 2476TIP3    H128843   4.303   4.202  11.622  1.8329 -2.6352 -0.2906
 2476TIP3    H228844   4.208   4.102  11.562  0.3484 -1.8049  0.5998
 2477TIP3   OH228845   0.955   4.323  12.255  0.2041  0.3852 -0.0559
 2477TIP3    H128846   0.866   4.294  12.233  0.4571 -1.1087  0.7157
 2477TIP3    H228847   0.944   4.413  12.285 -1.0272  0.2826 -0.1420
 2478TIP3   OH228848   0.200   5.028  10.339  0.2226 -0.0672 -0.1390
 2478TIP3    H128849   0.136   4.992  10.277 -0.4000 -0.5003  0.7280
 2478TIP3    H228850   0.222   4.954  10.396  1.3160  0.1471 -0.2665
 2479TIP3   OH228851   5.672   1.300  11.271 -0.7539  0.0263  0.2008
 2479TIP3    H128852   5.674   1.220  11.324 -0.5893  0.0763  0.2710
 2479TIP3    H228853   5.680   1.270  11.181 -0.2548 -0.0093  0.2555
 2480TIP3   OH228854   1.168   3.784  14.179  0.3904 -0.2722  0.2134
 2480TIP3    H128855   1.188   3.738  14.097 -2.4340 -2.3063  0.5065
 2480TIP3    H228856   1.200   3.727  14.248 -0.6928 -0.5080  0.5467
 2481TIP3   OH228857   3.016   5.874  10.643  0.2992 -0.3046  0.1604
 2481TIP3    H128858   3.108   5.869  10.617 -0.0457  0.6284 -1.3678
 2481TIP3    H228859   2.970   5.897  10.563 -1.3775 -1.5022  0.7362
 2482TIP3   OH228860   6.301   5.734  12.196 -0.4520 -0.4843  0.1155
 2482TIP3    H128861   6.328   5.789  12.122 -2.0654 -0.5382 -0.5537
 2482TIP3    H228862   6.353   5.766  12.270  0.4264  0.2832 -0.8001
 2483TIP3   OH228863   6.268   5.960  13.702  0.1241 -0.3077  0.3287
 2483TIP3    H128864   6.217   6.014  13.762  0.6111 -0.1878  0.6438
 2483TIP3    H228865   6.308   5.893  13.758  1.0023  0.1188  0.2300
 2484TIP3   OH228866   6.977   1.568  12.899 -0.5757  0.7047  0.2767
 2484TIP3    H128867   6.933   1.652  12.890 -0.9085  1.3874  5.2355
 2484TIP3    H228868   7.030   1.577  12.978 -0.0473 -3.5365  0.6578
 2485TIP3   OH228869   1.773   1.144  12.304 -0.3081  0.2675  0.4884
 2485TIP3    H128870   1.789   1.059  12.343 -1.2370  0.9941  2.6267
 2485TIP3    H228871   1.859   1.177  12.279 -0.0902 -2.0529 -2.2695
 2486TIP3   OH228872   0.719   3.030  11.385 -0.1106  0.4159 -0.0078
 2486TIP3    H128873   0.804   3.057  11.350  0.1212 -0.0104  0.2245
 2486TIP3    H228874   0.661   3.031  11.308  0.4243 -0.6444 -0.4500
 2487TIP3   OH228875   6.251   2.347  10.124 -0.1215  0.3416 -0.5046
 2487TIP3    H128876   6.186   2.412  10.152 -0.2122  0.4265 -0.9094
 2487TIP3    H228877   6.201   2.267  10.110  0.2064 -0.2692  1.5116
 2488TIP3   OH228878   0.094   0.510  14.341 -0.2585  0.4650  0.0582
 2488TIP3    H128879   0.064   0.510  14.250  0.9823 -1.4087 -0.4118
 2488TIP3    H228880   0.014   0.524  14.392 -1.2560 -0.1072 -1.2805
 2489TIP3   OH228881   3.069   6.281   0.179 -0.0990 -0.2454  0.0098
 2489TIP3    H128882   3.059   6.188   0.159  0.4955 -0.1102 -0.9949
 2489TIP3    H228883   3.154   6.286   0.224  2.1586  0.2802 -3.8446
 2490TIP3   OH228884   6.939   4.399  10.575  0.1238  0.4233  0.0152
 2490TIP3    H128885   6.974   4.311  10.562 -1.2032 -0.5355  2.2903
 2490TIP3    H228886   6.853   4.398  10.533 -1.5690 -0.7360  3.2056
 2491TIP3   OH228887   0.672   5.168  12.881 -0.1104 -0.2762  0.4754
 2491TIP3    H128888   0.719   5.124  12.811 -1.0317  0.3689 -0.5912
 2491TIP3    H228889   0.729   5.160  12.958  1.1524 -0.5616 -0.4609
 2492TIP3   OH228890   6.002   6.350  13.743 -0.7525  0.2489 -0.3528
 2492TIP3    H128891   6.013   6.303  13.661 -0.2906 -0.7004  0.2258
 2492TIP3    H228892   5.991   6.281  13.809  0.5410  0.9035  0.6110
 2493TIP3   OH228893   3.617   2.367   3.583 -0.3621  0.2237 -0.2202
 2493TIP3    H128894   3.707   2.337   3.590 -0.3254  0.5303  0.7853
 2493TIP3    H228895   3.570   2.316   3.649 -0.5723  1.3436  0.5080
 2494TIP3   OH228896   5.704   2.267  10.160  0.0516  0.5351  0.2008
 2494TIP3    H128897   5.640   2.300  10.096  0.4511 -1.1359 -1.1180
 2494TIP3    H228898   5.776   2.234  10.106  0.1366 -1.4714  1.4778
 2495TIP3   OH228899   4.807   4.479  14.284  0.0764 -0.0051 -0.1270
 2495TIP3    H128900   4.749   4.510  14.214 -0.1524 -0.0951  0.0214
 2495TIP3    H228901   4.891   4.467  14.241 -0.2495 -0.8060 -0.5655
 2496TIP3   OH228902   6.365   5.279  13.900 -0.1400  0.6002  0.1229
 2496TIP3    H128903   6.282   5.283  13.947 -0.5194  2.4901 -0.6304
 2496TIP3    H228904   6.340   5.265  13.808  0.4758 -0.5446  0.1121
 2497TIP3   OH228905   6.633   4.908  11.013  0.4283 -0.2048  0.6836
 2497TIP3    H128906   6.575   4.983  11.027 -0.7340 -0.2175 -3.0380
 2497TIP3    H228907   6.664   4.918  10.924  1.1131 -3.5836  0.4050
 2498TIP3   OH228908   5.822   2.629  15.262 -0.3867  0.1863  0.7523
 2498TIP3    H128909   5.739   2.635  15.310 -2.1958  2.1563 -2.3268
 2498TIP3    H228910   5.865   2.713  15.277  0.5295 -0.3567  1.3118
 2499TIP3   OH228911   2.005   4.084  10.139 -0.1406 -0.0084 -0.2022
 2499TIP3    H128912   1.952   4.041  10.207 -0.9506  0.7639 -0.3331
 2499TIP3    H228913   1.975   4.046  10.057  0.0501 -0.1211 -0.2215
 2500TIP3   OH228914   1.552   5.620  11.231 -0.3259 -0.3070  0.5772
 2500TIP3    H128915   1.565   5.703  11.277 -1.0261  0.2179 -0.1502
 2500TIP3    H228916   1.472   5.585  11.268  0.3473 -1.0332  1.3968
 2501TIP3   OH228917   6.459   5.258  12.938 -0.3276  0.6675  0.5567
 2501TIP3    H128918   6.366   5.238  12.939 -0.3664  0.5188 -1.6936
 2501TIP3    H228919   6.502   5.173  12.955 -0.6024 -0.0005 -1.7566
 2502TIP3   OH228920   4.957   1.419  11.418  0.4018 -0.1117  0.0436
 2502TIP3    H128921   5.011   1.359  11.470 -0.3347 -0.6282  0.2291
 2502TIP3    H228922   4.924   1.365  11.346 -0.9164 -0.1614  0.6519
 2503TIP3   OH228923   5.884   4.060   2.308  0.0086  0.7176 -0.5492
 2503TIP3    H128924   5.814   4.011   2.264 -0.1471  1.4945 -1.1983
 2503TIP3    H228925   5.849   4.080   2.395 -0.5352  1.0002 -0.8292
 2504TIP3   OH228926   1.416   3.142   1.459 -0.4407 -0.2399  0.0439
 2504TIP3    H128927   1.509   3.160   1.473 -0.5982  0.0143  0.8033
 2504TIP3    H228928   1.370   3.206   1.514 -1.0671 -0.3021 -0.3950
 2505TIP3   OH228929   4.215   1.525  14.689  1.0766 -0.2015 -0.1734
 2505TIP3    H128930   4.127   1.563  14.691  0.5124 -1.4577 -0.1242
 2505TIP3    H228931   4.255   1.554  14.771  1.7442  2.6495 -1.4018
 2506TIP3   OH228932   1.431   6.999  12.634  0.7827 -0.3202 -0.6549
 2506TIP3    H128933   1.471   7.045  12.560 -1.0649  0.1628 -1.4063
 2506TIP3    H228934   1.365   6.942  12.594  1.9233 -2.4895  0.3930
 2507TIP3   OH228935   2.061   5.166   1.514 -0.2994  0.3608  0.1601
 2507TIP3    H128936   2.054   5.256   1.545 -1.5497 -0.0886  1.2939
 2507TIP3    H228937   2.154   5.156   1.491 -0.2945  2.1617 -0.7823
 2508TIP3   OH228938   6.047   3.298  11.489 -0.3705  0.1118  0.1178
 2508TIP3    H128939   6.089   3.383  11.472 -0.0617  0.2964  1.6093
 2508TIP3    H228940   6.065   3.246  11.411 -0.7768  1.4904 -0.9249
 2509TIP3   OH228941   2.573   3.417  12.610 -0.0071  0.1668  0.0194
 2509TIP3    H128942   2.620   3.431  12.528  0.7276 -2.2154 -0.0723
 2509TIP3    H228943   2.637   3.437  12.678 -0.7131  2.4493  0.0879
 2510TIP3   OH228944   0.774   5.256  11.372  0.3745  0.3664  0.1347
 2510TIP3    H128945   0.754   5.349  11.369  1.2249  0.5237 -1.9243
 2510TIP3    H228946   0.690   5.213  11.355  0.5051  0.8713 -2.0892
 2511TIP3   OH228947   2.698   2.304  10.531  0.3632  0.3240 -0.0189
 2511TIP3    H128948   2.603   2.305  10.532  0.2508 -1.5116 -1.8795
 2511TIP3    H228949   2.724   2.304  10.623 -1.3448  2.1617  0.5245
 2512TIP3   OH228950   1.090   3.317  12.215  0.1700 -0.0747  0.0317
 2512TIP3    H128951   1.012   3.344  12.167  0.0379  0.2077  0.3977
 2512TIP3    H228952   1.109   3.391  12.273  0.9409  0.0195 -0.3368
 2513TIP3   OH228953   0.165   4.602  11.161 -0.8528 -0.1809 -0.3910
 2513TIP3    H128954   0.240   4.557  11.200 -1.7653 -0.6550  0.9188
 2513TIP3    H228955   0.089   4.553  11.194 -1.7203 -0.1343 -2.2204
 2514TIP3   OH228956   4.612   3.394  14.513 -0.1337 -0.2439  0.2156
 2514TIP3    H128957   4.550   3.380  14.441 -1.4487  1.1558  0.9939
 2514TIP3    H228958   4.694   3.356  14.483 -0.3799  1.0650 -2.4290
 2515TIP3   OH228959   1.628   2.798  11.948 -0.1516  0.1151  0.2904
 2515TIP3    H128960   1.571   2.721  11.954  0.9090 -0.9134 -1.5592
 2515TIP3    H228961   1.575   2.863  11.902  0.0154 -0.7305 -1.1663
 2516TIP3   OH228962   2.577   1.276   2.119  0.0791  0.0701  0.3256
 2516TIP3    H128963   2.534   1.194   2.145 -1.5254  0.2912 -1.3759
 2516TIP3    H228964   2.595   1.265   2.026  4.5793 -0.2804  1.0110
 2517TIP3   OH228965   1.911   5.747  12.456  0.2867  0.3802 -0.9457
 2517TIP3    H128966   1.887   5.684  12.523  0.9324  0.5717 -0.5286
 2517TIP3    H228967   2.005   5.736  12.444  0.1136  0.0462 -2.1390
 2518TIP3   OH228968   0.869   1.437  14.164  0.3113  0.0017 -0.4100
 2518TIP3    H128969   0.922   1.441  14.085  1.2706  0.0726  0.2148
 2518TIP3    H228970   0.892   1.353  14.204 -1.3002 -0.7418 -0.9604
 2519TIP3   OH228971   5.946   6.407   3.980 -0.2196  0.8307 -0.3745
 2519TIP3    H128972   5.961   6.467   4.053 -0.8074  0.5231  0.0092
 2519TIP3    H228973   5.954   6.320   4.019 -0.8837  0.6638 -0.6052
 2520TIP3   OH228974   2.107   5.563  12.033 -0.6861 -0.0424  0.1265
 2520TIP3    H128975   2.091   5.579  11.940 -2.9394  0.7059  0.5690
 2520TIP3    H228976   2.028   5.517  12.062  1.1650 -2.8672  1.1264
 2521TIP3   OH228977   5.185   3.643  12.572 -0.2814  0.3061 -0.2930
 2521TIP3    H128978   5.095   3.620  12.596 -0.2000 -0.2717 -0.5392
 2521TIP3    H228979   5.215   3.699  12.644 -0.5031 -0.2971  0.2777
 2522TIP3   OH228980   3.805   0.570   1.630  0.3000  0.2018 -0.3056
 2522TIP3    H128981   3.893   0.600   1.608  0.4573  0.0851  0.1468
 2522TIP3    H228982   3.814   0.533   1.718  0.4825 -2.6269 -1.4026
 2523TIP3   OH228983   6.934   5.614  11.723  0.8661  0.2633 -0.1615
 2523TIP3    H128984   6.981   5.664  11.655  1.6597  1.2938  1.0862
 2523TIP3    H228985   6.962   5.654  11.805 -0.8597 -0.2857  0.7391
 2524TIP3   OH228986   4.898   0.431  11.242  0.3869  0.2335 -0.2439
 2524TIP3    H128987   4.822   0.403  11.192 -0.5281  0.7207  0.8351
 2524TIP3    H228988   4.885   0.525  11.256 -0.7090 -0.2884  3.0118
 2525TIP3   OH228989   0.852   2.427  10.502  0.1874 -1.0204 -1.0057
 2525TIP3    H128990   0.933   2.463  10.539  0.4708 -0.2216 -2.3270
 2525TIP3    H228991   0.820   2.366  10.568  2.4977 -2.2545 -0.9409
 2526TIP3   OH228992   5.866   3.820   5.547  0.1761  0.2868 -0.3157
 2526TIP3    H128993   5.793   3.873   5.582 -0.0134 -0.1877  0.0078
 2526TIP3    H228994   5.944   3.868   5.573  0.0476  3.2053 -4.2166
 2527TIP3   OH228995   1.474   0.563  10.158 -0.6077  0.0654 -0.4485
 2527TIP3    H128996   1.444   0.632  10.099  0.5852  0.4462 -0.6395
 2527TIP3    H228997   1.421   0.574  10.237 -0.5805  1.0787 -0.5597
 2528TIP3   OH228998   2.115   1.900  11.349 -0.3032  0.1305  0.4553
 2528TIP3    H128999   2.160   1.877  11.430  0.8359 -1.6077 -0.5955
 2528TIP3    H229000   2.174   1.870  11.280 -1.0510  1.8994 -1.0576
 2529TIP3   OH229001   2.313   5.965  10.472 -0.1813 -0.1621 -0.1950
 2529TIP3    H129002   2.223   5.933  10.467  0.4963 -2.4484  1.1688
 2529TIP3    H229003   2.311   6.029  10.544 -0.3246 -1.8021  1.3194
 2530TIP3   OH229004   3.663   0.361  11.329  0.0817  0.3367 -0.4215
 2530TIP3    H129005   3.682   0.267  11.326 -2.0390 -0.2111  1.0444
 2530TIP3    H229006   3.662   0.382  11.422  0.7714  1.9221 -0.7275
 2531TIP3   OH229007   4.742   4.484   9.582  0.3781  0.1294 -0.2468
 2531TIP3    H129008   4.672   4.509   9.523  1.6438  1.2248 -1.3466
 2531TIP3    H229009   4.774   4.400   9.548  0.3275  0.1768 -0.4107
 2532TIP3   OH229010   0.804   6.110   5.433 -0.0115  0.3230  0.6903
 2532TIP3    H129011   0.804   6.190   5.380  0.5285  0.7792  1.3672
 2532TIP3    H229012   0.872   6.124   5.498 -0.3278 -0.4401  1.1996
 2533TIP3   OH229013   5.793   1.173  14.528 -0.3057  0.9098  0.2738
 2533TIP3    H129014   5.719   1.229  14.552 -2.1801 -1.7031  1.1316
 2533TIP3    H229015   5.802   1.113  14.602  1.0550 -0.3935 -0.8997
 2534TIP3   OH229016   4.318   5.949  13.721  0.3245  0.4243  0.1855
 2534TIP3    H129017   4.301   5.878  13.783  0.5846  0.6320  0.4996
 2534TIP3    H229018   4.411   5.968  13.733  1.0586 -1.3069 -2.1335
 2535TIP3   OH229019   2.303   3.794  10.556  0.2117 -0.2313  0.4615
 2535TIP3    H129020   2.235   3.777  10.621 -0.2266  0.8629  0.3148
 2535TIP3    H229021   2.366   3.723  10.568 -0.3281 -0.5658  1.4455
 2536TIP3   OH229022   3.924   4.889  11.694  0.1487  0.1746 -0.3735
 2536TIP3    H129023   3.936   4.829  11.768  2.3200 -0.4497 -1.1491
 2536TIP3    H229024   3.914   4.832  11.618  0.4997  0.7837 -0.8908
 2537TIP3   OH229025   5.638   6.025   0.773 -0.4860 -0.2578  0.5134
 2537TIP3    H129026   5.611   5.968   0.846  1.7737 -0.6835  1.0993
 2537TIP3    H229027   5.639   6.113   0.811 -2.7995  0.0954 -0.0641
 2538TIP3   OH229028   3.243   5.259  12.481 -0.1648 -0.4840 -0.3905
 2538TIP3    H129029   3.184   5.198  12.437  0.2963  0.5061 -2.5332
 2538TIP3    H229030   3.322   5.208  12.497 -0.6043 -1.0656 -0.0226
 2539TIP3   OH229031   3.538   2.973  11.508 -0.0158  0.2639 -0.5442
 2539TIP3    H129032   3.533   3.066  11.528 -1.5238  0.0176  0.3574
 2539TIP3    H229033   3.510   2.929  11.588  0.4495 -0.9680 -1.0270
 2540TIP3   OH229034   4.309   1.021  11.889  0.1552 -0.3284 -0.0464
 2540TIP3    H129035   4.305   1.061  11.976 -1.1849  2.0851 -1.1142
 2540TIP3    H229036   4.267   0.936  11.900 -1.2081  0.4750  1.4324
 2541TIP3   OH229037   3.243   2.921  13.538 -0.2278 -0.2022  0.1350
 2541TIP3    H129038   3.150   2.897  13.541 -0.6185  1.3002  1.6258
 2541TIP3    H229039   3.250   2.982  13.465 -0.7795  0.9100  0.9758
 2542TIP3   OH229040   4.457   1.895  12.568  0.0977 -0.1861  0.5994
 2542TIP3    H129041   4.425   1.848  12.645 -0.5711  0.5454  0.7712
 2542TIP3    H229042   4.546   1.860  12.555 -0.5960 -1.9803  0.3152
 2543TIP3   OH229043   6.104   2.401  13.156  0.3098 -0.3042  0.2214
 2543TIP3    H129044   6.195   2.390  13.131  0.0603  0.8281 -1.3786
 2543TIP3    H229045   6.069   2.312  13.162  1.4496 -0.7380  0.6714
 2544TIP3   OH229046   5.704   4.824   3.870 -0.3548  0.0205  0.6214
 2544TIP3    H129047   5.631   4.885   3.863 -1.7742 -1.3998  2.1904
 2544TIP3    H229048   5.721   4.797   3.780 -0.7503  1.4890  0.0777
 2545TIP3   OH229049   5.625   1.072  12.219 -0.0701 -0.3667  0.3379
 2545TIP3    H129050   5.700   1.091  12.162  0.0289 -1.6488  0.0147
 2545TIP3    H229051   5.654   0.999  12.274 -1.1961 -1.1354 -0.0535
 2546TIP3   OH229052   2.582   6.456   2.438 -0.1805  0.3103  0.7276
 2546TIP3    H129053   2.655   6.397   2.454  1.0469  2.2135  2.7085
 2546TIP3    H229054   2.511   6.421   2.492 -0.7022 -1.3257 -0.9121
 2547TIP3   OH229055   5.570   3.147  15.253 -0.0635 -0.2726  0.1042
 2547TIP3    H129056   5.598   3.235  15.279  0.5813 -0.1507 -0.9456
 2547TIP3    H229057   5.636   3.090  15.292  0.7620 -0.1083 -1.0055
 2548TIP3   OH229058   0.603   2.833  12.580  0.3605  0.1837  0.4133
 2548TIP3    H129059   0.622   2.745  12.546 -0.2561 -0.5959  2.0062
 2548TIP3    H229060   0.513   2.850  12.555  0.9863  1.1252 -1.3869
 2549TIP3   OH229061   6.371   2.341  13.120 -0.5157  0.3462  0.0008
 2549TIP3    H129062   6.413   2.369  13.038  2.3098  1.3938  1.6615
 2549TIP3    H229063   6.433   2.366  13.188 -2.5845 -0.8357  2.4756
 2550TIP3   OH229064   1.334   0.287   3.167 -0.2553  0.1105  0.0366
 2550TIP3    H129065   1.368   0.339   3.239  0.4219  0.4080 -0.4938
 2550TIP3    H229066   1.263   0.341   3.130  0.1427  0.4616 -0.2244
 2551TIP3   OH229067   5.379   0.012  10.053  0.0660  0.0140  0.1410
 2551TIP3    H129068   5.305   0.066  10.082 -0.7160 -1.2224  0.5506
 2551TIP3    H229069   5.348  -0.078  10.065  0.5768 -0.5603 -2.4050
 2552TIP3   OH229070   3.019   6.219  10.797 -0.1040 -0.3632 -0.2583
 2552TIP3    H129071   3.094   6.162  10.778 -0.2585 -1.4615  2.0590
 2552TIP3    H229072   2.953   6.195  10.731 -0.1283 -2.8864  0.5665
 2553TIP3   OH229073   0.073   5.214  10.515 -0.7013 -0.0516 -0.0433
 2553TIP3    H129074   0.148   5.161  10.487 -0.3668  0.8458 -0.8959
 2553TIP3    H229075   0.016   5.152  10.559  0.6072 -0.7391  0.7616
 2554TIP3   OH229076   5.086   3.937  12.665  0.9391  0.1241 -0.3642
 2554TIP3    H129077   5.153   3.988  12.711  0.6047 -0.1657  0.4756
 2554TIP3    H229078   5.018   3.922  12.731  1.5844 -2.4842 -0.1830
 2555TIP3   OH229079   6.681   6.656   2.551 -0.1867 -1.0038  0.3485
 2555TIP3    H129080   6.618   6.728   2.553 -0.1554 -0.9887  0.7734
 2555TIP3    H229081   6.737   6.675   2.475 -0.3221 -0.7046  0.3231
 2556TIP3   OH229082   0.836   2.909  12.429  0.2852  0.1543 -0.3691
 2556TIP3    H129083   0.891   2.839  12.466 -0.8960 -0.0597  1.0651
 2556TIP3    H229084   0.747   2.884  12.453 -0.1829  2.0169 -0.0615
 2557TIP3   OH229085   4.500   1.026  12.365 -0.0488 -0.0820 -0.8204
 2557TIP3    H129086   4.570   1.091  12.371  1.9328 -2.1862  3.1846
 2557TIP3    H229087   4.506   0.992  12.276  1.0944  2.7403 -1.9244
 2558TIP3   OH229088   1.682   2.430  13.377 -0.2568 -0.3281  0.0055
 2558TIP3    H129089   1.763   2.386  13.353 -1.2805 -1.5682 -1.3317
 2558TIP3    H229090   1.618   2.360  13.387 -1.3108  0.6614  0.4525
 2559TIP3   OH229091   5.584   5.924  12.547  0.4539  0.3452 -0.0103
 2559TIP3    H129092   5.555   5.902  12.635 -0.8757  1.5742 -0.0989
 2559TIP3    H229093   5.580   5.842  12.499 -0.1098 -0.0768  0.7351
 2560TIP3   OH229094   1.372   6.704   1.168  0.3475 -0.0758 -0.2558
 2560TIP3    H129095   1.467   6.697   1.156  0.4093  0.5149 -0.1483
 2560TIP3    H229096   1.340   6.737   1.085  0.2374 -0.2430 -0.2798
 2561TIP3   OH229097   0.980   3.958  11.781  0.0219 -0.1535  0.0501
 2561TIP3    H129098   1.065   4.001  11.776 -0.2727  0.3126 -3.0298
 2561TIP3    H229099   0.979   3.916  11.867  2.3959  1.7237  1.1117
 2562TIP3   OH229100   6.920   5.727  10.548  0.0234  0.1865  0.0401
 2562TIP3    H129101   6.883   5.656  10.602 -0.5592  0.5227  0.0902
 2562TIP3    H229102   6.855   5.741  10.480  0.2044  0.5810 -0.0519
 2563TIP3   OH229103   3.141   3.738  12.809 -0.5059 -0.0171  0.2849
 2563TIP3    H129104   3.168   3.706  12.894  0.3033 -2.2408 -0.7390
 2563TIP3    H229105   3.222   3.768  12.767 -0.4746 -1.3606 -0.6520
 2564TIP3   OH229106   0.099   5.957  11.368  0.1657 -0.4503 -0.2945
 2564TIP3    H129107   0.103   6.005  11.285 -1.5045 -0.9856 -0.7231
 2564TIP3    H229108   0.148   6.011  11.430 -1.3258  1.6416 -0.8344
 2565TIP3   OH229109   0.515   4.510  11.874 -0.1841  0.4959  0.2486
 2565TIP3    H129110   0.513   4.420  11.842  0.1877 -0.1927  2.0862
 2565TIP3    H229111   0.576   4.509  11.947  0.5673  2.4642 -0.2802
 2566TIP3   OH229112   2.106   6.536  12.472 -0.0875 -0.5264  0.4109
 2566TIP3    H129113   2.021   6.537  12.516  0.1082 -1.1044  0.8166
 2566TIP3    H229114   2.103   6.610  12.412 -0.1399  0.6944  1.8467
 2567TIP3   OH229115   2.939   6.412   2.053 -0.6242 -0.2843 -0.2169
 2567TIP3    H129116   2.844   6.413   2.058 -0.6192  0.1337 -0.1903
 2567TIP3    H229117   2.962   6.491   2.005 -0.1836  0.9245  1.8273
 2568TIP3   OH229118   5.508   6.132  12.148  0.1636 -0.0281  0.3369
 2568TIP3    H129119   5.487   6.052  12.196  1.6635  0.3892  1.7886
 2568TIP3    H229120   5.603   6.139  12.153  0.0030  2.5886  1.5589
 2569TIP3   OH229121   4.458   2.171   0.222  0.5303  0.4840  0.1214
 2569TIP3    H129122   4.365   2.153   0.232  0.2464  0.6696 -1.8773
 2569TIP3    H229123   4.476   2.238   0.287 -0.8209  0.7359  0.2676
 2570TIP3   OH229124   3.863   2.033   4.325  0.0332 -0.0806 -0.1654
 2570TIP3    H129125   3.874   1.994   4.411 -0.3978 -0.8265 -0.4473
 2570TIP3    H229126   3.949   2.073   4.306  0.0188  0.4106  0.7517
 2571TIP3   OH229127   3.039   3.406   3.340  0.2172 -0.2062 -0.6990
 2571TIP3    H129128   2.991   3.484   3.311  1.3198  0.9395  0.4717
 2571TIP3    H229129   3.105   3.392   3.272  0.1552 -0.0117 -0.8009
 2572TIP3   OH229130   7.117   0.210  13.395 -0.0699  0.2575 -0.6673
 2572TIP3    H129131   7.152   0.160  13.468  0.3565  0.8914 -0.4297
 2572TIP3    H229132   7.144   0.161  13.317 -1.5633 -1.0795 -0.3905
 2573TIP3   OH229133   6.143   6.173   3.092  0.2713 -0.0436  0.1193
 2573TIP3    H129134   6.210   6.199   3.155  0.6306  1.0617 -0.6908
 2573TIP3    H229135   6.061   6.201   3.131  0.6009  1.8455 -0.4600
 2574TIP3   OH229136   3.588   6.788  12.611  0.6246  0.5091 -0.6021
 2574TIP3    H129137   3.653   6.848  12.649  0.8149  0.3096 -0.6092
 2574TIP3    H229138   3.505   6.814  12.651  0.9241 -0.1243  0.4795
 2575TIP3   OH229139   0.077   6.274  10.204 -0.4772 -0.1163 -0.3677
 2575TIP3    H129140   0.085   6.328  10.125  0.3034 -1.1779 -1.0429
 2575TIP3    H229141   0.015   6.205  10.179  1.1063 -1.4810 -0.6761
 2576TIP3   OH229142   0.950   3.483  12.774  0.3101  0.6834  0.0031
 2576TIP3    H129143   0.998   3.431  12.839  1.0817  2.1177  0.6424
 2576TIP3    H229144   1.012   3.492  12.701 -0.2796 -0.2948 -0.6394
 2577TIP3   OH229145   1.677   4.856  10.517  0.0987  0.0318  0.4235
 2577TIP3    H129146   1.704   4.895  10.434  0.6567  0.7493  0.9297
 2577TIP3    H229147   1.641   4.929  10.567 -2.4967 -0.7907 -0.0707
 2578TIP3   OH229148   0.065   4.403  11.323  0.0074  0.2724  0.2479
 2578TIP3    H129149   0.050   4.320  11.368 -1.7112  0.9364  0.9933
 2578TIP3    H229150   0.077   4.467  11.394  1.9306  0.6036 -0.3110
 2579TIP3   OH229151   0.700   3.015  15.154 -0.1842  0.3182  0.0665
 2579TIP3    H129152   0.634   3.078  15.182 -0.2122  0.1863  0.3043
 2579TIP3    H229153   0.709   2.955  15.229  1.9204  1.7056  1.0305
 2580TIP3   OH229154   1.739   0.887  11.456  0.1955 -0.6207 -0.7228
 2580TIP3    H129155   1.832   0.893  11.476 -0.0139  1.3854 -0.0867
 2580TIP3    H229156   1.733   0.899  11.362  0.4332  2.7648 -0.4187
 2581TIP3   OH229157   4.430   1.013   0.678 -0.4299 -0.4048 -0.6934
 2581TIP3    H129158   4.360   1.067   0.641  0.9562  3.4016  1.6498
 2581TIP3    H229159   4.386   0.961   0.745 -1.3476  0.3053 -0.7214
 2582TIP3   OH229160   0.446   0.088  10.380 -0.1373 -0.0328  0.6977
 2582TIP3    H129161   0.488   0.108  10.297  0.0285  2.2011  1.2595
 2582TIP3    H229162   0.501   0.020  10.419  1.9554  1.5281  0.6137
 2583TIP3   OH229163   0.988   0.992   0.402  0.0931  0.2076  0.1325
 2583TIP3    H129164   1.070   1.008   0.355  0.1136 -0.5265 -0.0827
 2583TIP3    H229165   1.006   1.023   0.491  1.7084 -2.7936  0.9833
 2584TIP3   OH229166   0.099   2.239   3.708  0.2981  0.5557  0.6016
 2584TIP3    H129167   0.058   2.316   3.749 -0.6251  0.3866  0.0278
 2584TIP3    H229168   0.072   2.165   3.763 -1.6410  0.2132 -0.7035
 2585TIP3   OH229169   2.633   5.427   1.911 -0.3265 -0.4434 -0.6006
 2585TIP3    H129170   2.712   5.394   1.869  0.2502  0.4159 -0.1994
 2585TIP3    H229171   2.573   5.351   1.911  0.4139 -1.0415 -1.0762
 2586TIP3   OH229172   5.876   4.426   3.276 -0.3330 -0.3601  0.2641
 2586TIP3    H129173   5.879   4.332   3.297  0.7606 -0.2556  0.6124
 2586TIP3    H229174   5.869   4.429   3.181 -0.1906 -0.7949  0.2365
 2587TIP3   OH229175   6.676   5.402  13.117 -1.1163 -0.4395 -0.3733
 2587TIP3    H129176   6.701   5.349  13.193  0.3633  0.6046 -0.0825
 2587TIP3    H229177   6.603   5.354  13.077 -1.6574 -1.2403  1.4517
 2588TIP3   OH229178   1.620   1.199  15.167 -0.2728  0.0611 -0.6890
 2588TIP3    H129179   1.547   1.237  15.215  0.2459  1.0615 -0.6679
 2588TIP3    H229180   1.631   1.112  15.206 -0.6642  0.3702  0.1437
 2589TIP3   OH229181   3.915   3.999  11.708 -0.1039  0.3913  0.4484
 2589TIP3    H129182   3.969   3.956  11.642 -0.9774  0.6719 -0.4736
 2589TIP3    H229183   3.959   3.981  11.791  2.0320  1.5245 -0.3508
 2590TIP3   OH229184   6.983   4.931  13.401 -0.4039  0.5221  0.3830
 2590TIP3    H129185   7.044   4.904  13.331 -2.0925 -2.5649 -0.0845
 2590TIP3    H229186   6.955   5.019  13.375  2.3834  1.3276 -0.3226
 2591TIP3   OH229187   1.632   3.035  12.665  0.8361 -0.2771 -0.3152
 2591TIP3    H129188   1.686   2.983  12.605  1.4086 -1.4509  1.1495
 2591TIP3    H229189   1.693   3.065  12.732  0.1281  0.6200 -0.0537
 2592TIP3   OH229190   1.802   1.633   2.885 -0.4941  0.8925  0.0468
 2592TIP3    H129191   1.765   1.695   2.821 -2.4906  0.5166  0.7569
 2592TIP3    H229192   1.752   1.649   2.965  1.3803  0.7705  1.3130
 2593TIP3   OH229193   4.379   4.725  12.632  0.5122  0.1879  0.5594
 2593TIP3    H129194   4.353   4.645  12.587  1.3834 -0.5941  1.3963
 2593TIP3    H229195   4.374   4.793  12.565 -0.2279 -0.5655 -0.1730
 2594TIP3   OH229196   5.650   3.118  12.085 -0.7225 -0.4738 -0.3852
 2594TIP3    H129197   5.695   3.158  12.159 -1.2081  0.3942 -0.5522
 2594TIP3    H229198   5.651   3.185  12.017  0.0017 -1.3745 -1.2962
 2595TIP3   OH229199   6.965   6.145   9.930  0.1958 -0.4576  0.0327
 2595TIP3    H129200   7.058   6.132   9.911  0.3460 -0.4479  0.7320
 2595TIP3    H229201   6.919   6.104   9.856  0.7566  0.0460 -0.6100
 2596TIP3   OH229202   1.705   6.098   2.211  0.3409  0.6059 -0.1760
 2596TIP3    H129203   1.616   6.064   2.219  0.5212  0.0885 -0.3391
 2596TIP3    H229204   1.694   6.192   2.197 -0.3776  0.0307 -4.8909
 2597TIP3   OH229205   4.395   2.168  13.548 -0.1398 -0.2363  0.4899
 2597TIP3    H129206   4.375   2.255  13.513  0.0416  0.4996  2.1291
 2597TIP3    H229207   4.447   2.185  13.626  3.0389 -1.9196 -1.0685
 2598TIP3   OH229208   0.929   0.820  14.591 -0.3302 -0.6244 -0.3647
 2598TIP3    H129209   0.928   0.727  14.614 -0.6519 -0.7113 -0.7163
 2598TIP3    H229210   0.997   0.827  14.523  0.3844 -0.4261  0.3482
 2599TIP3   OH229211   3.575   2.500   0.861  0.4111 -0.6460 -0.3461
 2599TIP3    H129212   3.497   2.468   0.906  0.8367 -3.2782 -1.2469
 2599TIP3    H229213   3.624   2.549   0.928 -0.2520 -2.1200  1.2997
 2600TIP3   OH229214   6.277   5.983  10.300 -0.6094  0.1731 -0.1379
 2600TIP3    H129215   6.315   6.036  10.231  0.1395 -0.9274 -0.5933
 2600TIP3    H229216   6.186   5.968  10.271 -0.7673  1.0339 -0.0946
 2601TIP3   OH229217   6.723   5.608  15.106 -0.0363  0.4101  0.5649
 2601TIP3    H129218   6.709   5.579  15.196 -1.4567  1.1451  0.6082
 2601TIP3    H229219   6.709   5.703  15.109  1.1911  0.6351 -0.1928
 2602TIP3   OH229220   2.061   6.356  10.947 -0.1792 -0.2261 -0.2264
 2602TIP3    H129221   2.030   6.430  10.999  0.9977 -0.2407  0.5436
 2602TIP3    H229222   1.988   6.335  10.889 -1.6694 -0.3787  1.5994
 2603TIP3   OH229223   1.906   2.389  11.354  0.0677 -0.1782 -0.4248
 2603TIP3    H129224   1.932   2.301  11.329  1.1360 -0.7665  2.3976
 2603TIP3    H229225   1.812   2.383  11.372  0.1736 -0.8122 -0.0546
 2604TIP3   OH229226   2.403   1.443  10.739 -0.4791 -0.1856 -0.5042
 2604TIP3    H129227   2.428   1.351  10.751  1.2590  0.1867 -0.9455
 2604TIP3    H229228   2.336   1.441  10.671  0.3685 -1.0401 -1.3496
 2605TIP3   OH229229   0.895   0.637  13.285  0.4461  1.1278  0.4534
 2605TIP3    H129230   0.986   0.630  13.257 -0.2344 -0.3901 -1.6491
 2605TIP3    H229231   0.862   0.714  13.239 -0.2595 -0.4812 -1.8943
 2606TIP3   OH229232   5.158   0.141  14.666 -0.4686  0.0530  0.2741
 2606TIP3    H129233   5.081   0.149  14.610 -0.9863  2.1114  1.1688
 2606TIP3    H229234   5.213   0.216  14.642  1.1288 -1.1986 -0.1202
 2607TIP3   OH229235   4.706   5.585  10.416 -0.2357  0.2154 -0.6458
 2607TIP3    H129236   4.677   5.592  10.325  0.6653 -0.7825 -1.0201
 2607TIP3    H229237   4.655   5.652  10.462  1.2537  2.6825 -2.3483
 2608TIP3   OH229238   0.528   6.254   9.259  0.2021  0.2743  0.0574
 2608TIP3    H129239   0.615   6.270   9.296  0.8043  0.4671 -1.3689
 2608TIP3    H229240   0.478   6.332   9.284  0.1978 -0.1548  1.4917
 2609TIP3   OH229241   4.068   2.127   1.235 -0.1328  0.2085 -0.7010
 2609TIP3    H129242   4.008   2.067   1.192  0.4940  0.4294 -1.9257
 2609TIP3    H229243   4.135   2.146   1.169  0.4066  1.2145  0.0997
 2610TIP3   OH229244   3.911   4.073  12.192  0.2144  0.5102  0.1414
 2610TIP3    H129245   3.886   4.057  12.283  1.0930  0.0235  0.3164
 2610TIP3    H229246   3.829   4.067  12.143  0.2185 -4.6120  0.1681
 2611TIP3   OH229247   0.834   1.206  11.909  0.1997  0.1458 -0.2532
 2611TIP3    H129248   0.778   1.262  11.855 -1.5165 -1.3164 -0.0804
 2611TIP3    H229249   0.828   1.120  11.868  1.3925 -0.3051  0.4851
 2612TIP3   OH229250   3.456   0.964   3.504  0.3451 -0.0514 -0.4217
 2612TIP3    H129251   3.366   0.949   3.474  0.7897 -1.0581 -1.3069
 2612TIP3    H229252   3.507   0.975   3.424  1.1650 -0.3694  0.0410
 2613TIP3   OH229253   5.462   2.222  14.141 -0.2950  0.0640 -0.5779
 2613TIP3    H129254   5.487   2.177  14.061 -0.2656 -1.5163  0.2774
 2613TIP3    H229255   5.496   2.167  14.211 -0.1432  1.5182  0.5328
 2614TIP3   OH229256   5.665   6.192  10.288  0.5553 -0.1611 -0.1575
 2614TIP3    H129257   5.651   6.163  10.378  0.4483 -0.6646 -0.3291
 2614TIP3    H229258   5.581   6.232  10.262 -1.0095 -3.7994 -1.4132
 2615TIP3   OH229259   4.864   6.961   0.990  0.2374  0.4662 -0.1576
 2615TIP3    H129260   4.830   7.035   1.041  0.8304 -0.3879  1.5605
 2615TIP3    H229261   4.808   6.957   0.913 -0.9437  1.5968  0.6010
 2616TIP3   OH229262   0.722   2.614  12.359 -0.1365  0.2788 -0.3185
 2616TIP3    H129263   0.731   2.521  12.382 -1.0408  0.1283 -0.5173
 2616TIP3    H229264   0.782   2.627  12.287  0.0586 -0.1355 -0.2352
 2617TIP3   OH229265   2.995   4.942  14.194  0.5998 -0.1421  0.3695
 2617TIP3    H129266   2.989   5.037  14.204 -1.7329 -0.2609  0.6972
 2617TIP3    H229267   2.941   4.907  14.265 -0.4928 -1.6101 -1.0936
 2618TIP3   OH229268   5.648   3.389  10.669  0.4780  0.7589 -0.1002
 2618TIP3    H129269   5.563   3.356  10.699  1.0102  1.4028  2.2897
 2618TIP3    H229270   5.705   3.312  10.668  0.7198  0.8878  1.6696
 2619TIP3   OH229271   0.328   5.239   0.076  0.2411  0.4686 -0.7538
 2619TIP3    H129272   0.301   5.211  -0.011  1.0979  0.4075 -1.0028
 2619TIP3    H229273   0.385   5.314   0.061 -1.2971  1.8268 -0.1376
 2620TIP3   OH229274   0.062   3.768   1.964  0.4538  0.5531 -0.4922
 2620TIP3    H129275  -0.008   3.791   2.026  1.1897  1.2980  0.0996
 2620TIP3    H229276   0.029   3.797   1.879 -1.2742 -1.9882 -0.7684
 2621TIP3   OH229277   1.927   2.748  13.769 -0.1239  0.0261  0.3875
 2621TIP3    H129278   1.949   2.840  13.759 -0.1883 -0.2088 -3.1846
 2621TIP3    H229279   1.840   2.747  13.809  0.4569  1.4009  1.7834
 2622TIP3   OH229280   2.431   3.532  11.439 -0.3435  0.0625 -0.0127
 2622TIP3    H129281   2.474   3.447  11.452 -1.0306 -0.5661 -1.5533
 2622TIP3    H229282   2.489   3.579  11.380 -0.0672  0.5994  0.6774
 2623TIP3   OH229283   0.746   6.632  15.049  0.1206  0.1305 -0.0307
 2623TIP3    H129284   0.750   6.583  14.967  0.8751  0.2191 -0.0496
 2623TIP3    H229285   0.765   6.568  15.117  0.5084  0.2659 -0.0087
 2624TIP3   OH229286   0.719   0.349   0.043 -0.0278 -0.0897  0.6855
 2624TIP3    H129287   0.681   0.262   0.057  0.0313 -0.3315 -0.5768
 2624TIP3    H229288   0.713   0.363  -0.051 -0.4420  1.4692  0.9101
 2625TIP3   OH229289   4.850   2.975   3.425  0.7738  0.4385 -0.3957
 2625TIP3    H129290   4.878   3.020   3.505  0.3416 -0.7375  0.4402
 2625TIP3    H229291   4.852   2.882   3.448 -2.6220  0.1731 -0.6339
 2626TIP3   OH229292   1.138   5.572   9.527 -0.2502  0.0508  0.1582
 2626TIP3    H129293   1.063   5.518   9.500  0.2409 -0.2668 -0.5737
 2626TIP3    H229294   1.159   5.540   9.615 -1.3402  0.5389  0.6152
 2627TIP3   OH229295   3.184   3.407  12.642 -0.6684  0.1504 -0.5627
 2627TIP3    H129296   3.257   3.390  12.702 -1.1413 -0.5671 -0.1807
 2627TIP3    H229297   3.216   3.477  12.585 -0.1292  0.7133  0.3952
 2628TIP3   OH229298   4.930   6.679  10.050  0.2568  0.2389  0.7160
 2628TIP3    H129299   4.958   6.686   9.959 -0.1358  0.5103  0.6117
 2628TIP3    H229300   4.876   6.600  10.052  2.1607 -1.1175  1.2269
 2629TIP3   OH229301   0.528   0.472  13.464 -0.2706 -0.3498 -0.1563
 2629TIP3    H129302   0.511   0.528  13.539 -0.5205 -0.3916 -0.1822
 2629TIP3    H229303   0.499   0.385  13.491 -1.3695 -0.1615 -0.6804
 2630TIP3   OH229304   1.880   5.803  14.520 -0.5103 -0.0936 -0.1084
 2630TIP3    H129305   1.931   5.723  14.513  0.9727  0.6943  1.1372
 2630TIP3    H229306   1.917   5.860  14.452  1.4170  1.0164  1.7440
 2631TIP3   OH229307   0.429   5.798  14.594  0.0842 -0.3061 -0.8603
 2631TIP3    H129308   0.399   5.714  14.559  1.5646 -1.2930  0.1096
 2631TIP3    H229309   0.524   5.788  14.600  0.1587  0.9934  0.4273
 2632TIP3   OH229310   6.387   4.155  10.483 -0.4900 -0.0776 -0.2604
 2632TIP3    H129311   6.365   4.068  10.449 -0.3778 -0.2938  0.2034
 2632TIP3    H229312   6.480   4.166  10.461 -0.8734  0.5495 -1.6172
 2633TIP3   OH229313   6.338   5.986  11.696  0.5378 -0.3142 -0.0481
 2633TIP3    H129314   6.292   5.960  11.617 -0.8946 -1.7811  1.1966
 2633TIP3    H229315   6.423   5.943  11.690  0.3013 -0.7093 -0.6065
 2634TIP3   OH229316   1.755   0.808   9.392  0.0024  0.3979  0.2307
 2634TIP3    H129317   1.807   0.841   9.465  1.4948  1.2666 -1.1763
 2634TIP3    H229318   1.816   0.802   9.319 -1.5663  0.0712 -1.1156
 2635TIP3   OH229319   2.915   6.124  11.396 -0.1634 -0.0405 -0.2484
 2635TIP3    H129320   2.855   6.179  11.346  0.3162 -0.7830 -1.6867
 2635TIP3    H229321   2.933   6.174  11.476 -0.4141  1.4855 -1.1187
 2636TIP3   OH229322   7.156   6.903  10.728  0.4450  0.0933  0.2073
 2636TIP3    H129323   7.144   6.970  10.661  3.0475  0.8758  0.4107
 2636TIP3    H229324   7.129   6.822  10.686 -0.3334  0.9115 -0.9286
 2637TIP3   OH229325   4.436   3.208   9.957  0.1869  0.8934 -0.3178
 2637TIP3    H129326   4.424   3.229   9.864  0.4928  0.8280 -0.3707
 2637TIP3    H229327   4.434   3.112   9.960 -0.2737  0.9032 -0.1965
 2638TIP3   OH229328   5.942   5.604  13.838 -0.0232  0.2764 -0.2611
 2638TIP3    H129329   5.976   5.545  13.905 -0.6594  1.3434  1.0676
 2638TIP3    H229330   5.862   5.640  13.877  0.0659  1.5912 -1.2271
 2639TIP3   OH229331   6.663   1.108  13.382 -0.3571 -0.1971 -0.4851
 2639TIP3    H129332   6.740   1.098  13.327 -0.6609 -0.2904 -0.9060
 2639TIP3    H229333   6.693   1.155  13.459  0.0264  0.1550 -0.8501
 2640TIP3   OH229334   3.698   2.216  10.917 -0.0080  0.0450 -0.3101
 2640TIP3    H129335   3.628   2.269  10.880  0.8173  0.8829 -0.6956
 2640TIP3    H229336   3.778   2.259  10.889  0.6630 -0.5483  0.6440
 2641TIP3   OH229337   5.661   0.666  12.899 -0.1749  0.1236  0.4829
 2641TIP3    H129338   5.589   0.603  12.889 -1.4860  1.6914 -0.2947
 2641TIP3    H229339   5.655   0.695  12.990 -0.5796  0.3117  0.3973
 2642TIP3   OH229340   5.940   2.260   9.698  0.6239  0.3620 -0.2436
 2642TIP3    H129341   5.860   2.311   9.711 -0.1287 -0.1384 -2.3632
 2642TIP3    H229342   5.984   2.302   9.625  0.1530 -1.7149 -1.8372
 2643TIP3   OH229343   2.068   6.590  12.870 -0.0765  0.4345 -0.2868
 2643TIP3    H129344   2.114   6.532  12.931 -1.9011 -1.0362 -0.2134
 2643TIP3    H229345   2.129   6.600  12.796  0.7958 -0.5557  0.2638
 2644TIP3   OH229346   6.898   5.737  13.729  0.2129 -0.5338 -0.0500
 2644TIP3    H129347   6.899   5.645  13.702  0.2574 -0.8992  1.1523
 2644TIP3    H229348   6.856   5.737  13.815  0.3326  0.5588  0.0283
 2645TIP3   OH229349   6.669   6.733  14.506  0.2811 -0.3131  0.4507
 2645TIP3    H129350   6.671   6.771  14.419  3.1321 -0.6294  0.3020
 2645TIP3    H229351   6.672   6.808  14.565  1.7636 -0.1411  0.1969
 2646TIP3   OH229352   0.653   5.632  13.704 -0.3284 -0.1566  0.7157
 2646TIP3    H129353   0.620   5.628  13.614  0.2242  1.9101  0.3776
 2646TIP3    H229354   0.617   5.554  13.746 -0.9401 -0.9495 -1.1756
 2647TIP3   OH229355   4.830   0.722  11.240 -0.2083  0.2340 -0.5478
 2647TIP3    H129356   4.880   0.746  11.162 -0.5264  2.0490 -0.2531
 2647TIP3    H229357   4.744   0.763  11.228 -0.0779  1.0552  0.9716
 2648TIP3   OH229358   5.645   4.892  10.004  0.0081  0.1955  0.1117
 2648TIP3    H129359   5.674   4.907  10.094 -0.0335  0.9801  0.0037
 2648TIP3    H229360   5.646   4.797   9.993  1.6095  0.1617  0.4087
 2649TIP3   OH229361   0.098   5.497  10.588  0.2662 -0.3460 -0.3190
 2649TIP3    H129362   0.021   5.488  10.643  1.8200 -0.3037  1.9958
 2649TIP3    H229363   0.108   5.411  10.547 -0.5025 -0.6220  0.0503
 2650TIP3   OH229364   6.406   5.165   0.714  0.0272 -0.0959  0.2862
 2650TIP3    H129365   6.396   5.225   0.640  0.8890  1.7073  1.5627
 2650TIP3    H229366   6.481   5.110   0.689  0.2824  0.4568 -0.2140
 2651TIP3   OH229367   5.833   4.474  10.559 -0.1982  0.1700 -0.5529
 2651TIP3    H129368   5.806   4.405  10.620  2.5541  0.8281  1.6490
 2651TIP3    H229369   5.794   4.554  10.595 -1.6354  0.1308 -1.8989
 2652TIP3   OH229370   2.899   4.223  12.337 -0.3633 -0.0921  0.2502
 2652TIP3    H129371   2.860   4.212  12.250 -0.5413 -2.5218  0.5507
 2652TIP3    H229372   2.828   4.258  12.391 -0.1551  1.7675 -0.5990
 2653TIP3   OH229373   3.020   4.051  11.818  0.4812 -0.9354  0.0972
 2653TIP3    H129374   3.102   4.097  11.836 -0.4841  0.7712  0.4005
 2653TIP3    H229375   2.984   4.032  11.904 -0.8728  1.0839  0.0282
 2654TIP3   OH229376   6.071   6.519  13.988  0.2811  0.8527  0.1516
 2654TIP3    H129377   5.995   6.501  14.042  1.7019  0.1177  2.0162
 2654TIP3    H229378   6.067   6.454  13.918  0.9949 -1.5540  2.2189
 2655TIP3   OH229379   0.248   6.790   3.228 -0.5623 -0.6729  0.6767
 2655TIP3    H129380   0.339   6.806   3.203 -0.0298 -2.1173  1.5378
 2655TIP3    H229381   0.249   6.796   3.324 -1.6098  0.3201  0.6450
 2656TIP3   OH229382   4.747   4.218  13.329  0.3267 -0.4623  0.6637
 2656TIP3    H129383   4.824   4.274  13.325  0.5337 -0.8117 -2.0780
 2656TIP3    H229384   4.778   4.132  13.301 -0.9515 -0.6807 -0.2009
 2657TIP3   OH229385   0.422   6.938  12.388  0.0535  0.0288 -0.1668
 2657TIP3    H129386   0.399   6.993  12.314 -0.0000  0.4524  0.1595
 2657TIP3    H229387   0.511   6.965  12.411 -0.4478  0.9175  0.8176
 2658TIP3   OH229388   6.329   4.893  13.196  0.1939 -0.2252  0.7175
 2658TIP3    H129389   6.387   4.876  13.122  0.0923 -1.4558  0.8904
 2658TIP3    H229390   6.242   4.905  13.157  0.3921  0.6987  0.5319
 2659TIP3   OH229391   4.059   1.316  13.532 -0.1364 -1.2795  0.2683
 2659TIP3    H129392   4.132   1.332  13.472 -1.1181 -0.2795 -0.6916
 2659TIP3    H229393   3.982   1.308  13.476 -1.4753  1.8921  1.4254
 2660TIP3   OH229394   0.339   2.865  11.885  0.5499  0.0827  0.2558
 2660TIP3    H129395   0.272   2.798  11.875 -0.4968  1.0570  0.5636
 2660TIP3    H229396   0.400   2.849  11.813  0.3354 -1.2043  0.3422
 2661TIP3   OH229397   2.344   2.009   1.963  0.2269 -0.1279  0.0423
 2661TIP3    H129398   2.309   1.923   1.939  0.4551 -0.2298  0.0771
 2661TIP3    H229399   2.357   2.054   1.880  3.7761 -1.5119 -0.3404
 2662TIP3   OH229400   0.971   6.907  10.173 -0.4995 -0.0633 -0.1246
 2662TIP3    H129401   1.037   6.976  10.169 -1.1193  0.5779  0.3387
 2662TIP3    H229402   0.967   6.872  10.084  0.3856 -0.0537 -0.1798
 2663TIP3   OH229403   3.540   6.250  13.269 -0.3672  0.2093  0.4337
 2663TIP3    H129404   3.474   6.277  13.204 -0.6955  1.2794  1.1857
 2663TIP3    H229405   3.495   6.259  13.353  0.6708  0.7312  0.9415
 2664TIP3   OH229406   3.666   4.887  10.932  0.5142  0.0587  0.0844
 2664TIP3    H129407   3.660   4.907  10.838 -0.7941  0.6260  0.2711
 2664TIP3    H229408   3.670   4.791  10.935  0.1264  0.0162 -0.5284
 2665TIP3   OH229409   5.600   0.809   0.228  0.4965  0.0810  0.2943
 2665TIP3    H129410   5.570   0.747   0.294 -2.3404 -0.0013 -0.9399
 2665TIP3    H229411   5.552   0.785   0.149 -0.6777  3.7802 -0.2645
 2666TIP3   OH229412   0.295   2.548   2.574  0.2680 -0.2513 -0.1527
 2666TIP3    H129413   0.291   2.510   2.662 -0.6976 -0.4407 -0.2641
 2666TIP3    H229414   0.349   2.626   2.585  1.9597 -1.4015  0.1569
 2667TIP3   OH229415   5.763   0.520  10.225  0.2718  0.3898  0.0009
 2667TIP3    H129416   5.854   0.540  10.203  0.2253  0.0322 -0.5480
 2667TIP3    H229417   5.712   0.557  10.153 -0.1196  1.5368  0.8364
 2668TIP3   OH229418   6.775   0.184   9.775 -0.3178 -0.0833 -0.4399
 2668TIP3    H129419   6.796   0.204   9.683  0.1803  1.0172 -0.0967
 2668TIP3    H229420   6.726   0.102   9.770 -0.8423  0.2797 -1.7469
 2669TIP3   OH229421   2.404   6.691   1.933  0.3264 -0.3574  0.2254
 2669TIP3    H129422   2.345   6.748   1.884  1.6533  0.5676 -0.3649
 2669TIP3    H229423   2.369   6.603   1.920 -2.9848  0.3674  2.8269
 2670TIP3   OH229424   0.094   1.246   9.767  0.1588 -0.3988 -0.5838
 2670TIP3    H129425   0.095   1.151   9.768  1.6426 -0.4092  0.2472
 2670TIP3    H229426   0.050   1.269   9.685 -0.4181 -1.7806 -0.6902
 2671TIP3   OH229427   2.557   2.012   9.337  0.5381  0.3199  0.3981
 2671TIP3    H129428   2.635   2.066   9.348  0.3381  0.4558  1.2464
 2671TIP3    H229429   2.575   1.932   9.386 -0.3920  0.9412  1.7969
 2672TIP3   OH229430   5.474   5.130  13.545  0.0125  0.8721  0.6988
 2672TIP3    H129431   5.457   5.182  13.624  0.6071  1.3177  0.5504
 2672TIP3    H229432   5.556   5.166  13.511 -0.5909  1.1722 -0.5142
 2673TIP3   OH229433   2.925   1.038   3.067  0.0463  0.5284  0.1987
 2673TIP3    H129434   2.868   1.004   3.136  2.4861 -0.4420  1.8773
 2673TIP3    H229435   2.937   0.964   3.007 -1.2861  1.0723 -0.7770
 2674TIP3   OH229436   6.453   5.328  14.212  0.5982 -0.0677  0.2623
 2674TIP3    H129437   6.490   5.417  14.204 -2.4460  1.4568  1.4453
 2674TIP3    H229438   6.464   5.307  14.305 -0.8169  0.1491  0.4962
 2675TIP3   OH229439   1.981   4.395  11.532  0.1810 -0.5815  1.1543
 2675TIP3    H129440   1.890   4.416  11.512  1.2666  0.7092 -3.5656
 2675TIP3    H229441   2.018   4.478  11.565 -0.0556 -0.8745  2.2184
 2676TIP3   OH229442   0.435   3.331  13.891  0.4321 -0.3182 -0.0996
 2676TIP3    H129443   0.499   3.304  13.957  1.2465  0.4457 -0.5594
 2676TIP3    H229444   0.358   3.275  13.908  1.1997 -1.2307  0.4719
 2677TIP3   OH229445   2.749   0.454   0.801  0.0793 -0.1478 -0.1239
 2677TIP3    H129446   2.687   0.399   0.753 -1.6319  1.3865  0.2170
 2677TIP3    H229447   2.762   0.410   0.885 -0.5468 -0.4994 -0.2114
 2678TIP3   OH229448   1.082   5.833  11.056 -0.2776  0.3427 -0.1311
 2678TIP3    H129449   1.073   5.767  11.124 -1.1487  0.6003  0.0138
 2678TIP3    H229450   1.176   5.845  11.046 -0.1263 -0.4499  0.2923
 2679TIP3   OH229451   5.558   6.634  11.247  0.6926 -0.2945 -0.2553
 2679TIP3    H129452   5.650   6.653  11.232  0.6473  0.2276  0.0998
 2679TIP3    H229453   5.555   6.596  11.335  0.7820 -1.9886 -0.9509
 2680TIP3   OH229454   5.537   6.841  13.886 -0.1757  0.2975  0.3040
 2680TIP3    H129455   5.471   6.819  13.820  0.0095  1.2433 -0.2240
 2680TIP3    H229456   5.521   6.780  13.958 -1.7592  0.6314  0.2740
 2681TIP3   OH229457   0.007   5.148   9.491 -0.6433 -0.0813 -0.6943
 2681TIP3    H129458   0.059   5.227   9.510 -0.5356  0.0566 -1.5314
 2681TIP3    H229459  -0.045   5.171   9.414 -0.6203 -0.8191 -0.9404
 2682TIP3   OH229460   1.166   6.832  15.186  0.2158  0.7488 -0.1322
 2682TIP3    H129461   1.144   6.797  15.273  0.0884  1.0052 -0.0598
 2682TIP3    H229462   1.081   6.859  15.149  0.2312  0.3483 -0.4650
 2683TIP3   OH229463   1.289   6.510  11.356 -0.1475 -0.6619  0.3449
 2683TIP3    H129464   1.368   6.481  11.310  0.2571 -0.7248  1.0477
 2683TIP3    H229465   1.222   6.446  11.332 -0.4543  0.3241 -1.5706
 2684TIP3   OH229466   4.668   2.779   0.166  0.0055 -0.3047 -0.0658
 2684TIP3    H129467   4.651   2.737   0.082 -1.1743  0.0560 -0.0217
 2684TIP3    H229468   4.584   2.814   0.193  0.7516  1.2229  0.3740
 2685TIP3   OH229469   5.925   3.000   5.090  0.7011 -0.0587  0.2112
 2685TIP3    H129470   5.856   2.983   5.025  0.0657  2.3247  0.1753
 2685TIP3    H229471   6.006   2.979   5.044  0.1518 -0.4400 -0.6235
 2686TIP3   OH229472   2.051   5.851  10.393 -0.0872  0.9033 -0.1658
 2686TIP3    H129473   2.013   5.887  10.312 -1.3248 -1.1518 -0.5697
 2686TIP3    H229474   1.975   5.830  10.447  0.5540 -1.0331  0.0432
 2687TIP3   OH229475   1.152   0.842   9.763  0.3369  0.0972  0.0494
 2687TIP3    H129476   1.094   0.902   9.811  1.1503  0.3923  0.6832
 2687TIP3    H229477   1.217   0.899   9.723  1.4388 -0.3918  1.1001
 2688TIP3   OH229478   4.134   3.454  14.530 -0.1877  0.0389  0.1057
 2688TIP3    H129479   4.115   3.450  14.623 -1.9101 -0.4426 -0.2260
 2688TIP3    H229480   4.149   3.364  14.504 -0.0637  0.1304 -0.1421
 2689TIP3   OH229481   3.436   1.523  14.473 -0.3774 -0.4160  0.0888
 2689TIP3    H129482   3.342   1.539  14.483 -0.0018  2.5916 -0.0927
 2689TIP3    H229483   3.452   1.534  14.380  0.0626 -1.8173 -0.0177
 2690TIP3   OH229484   1.661   6.174   0.457  0.3985 -0.4539  0.0198
 2690TIP3    H129485   1.589   6.221   0.417 -0.6339 -1.7192  0.3161
 2690TIP3    H229486   1.619   6.113   0.518  1.7179 -1.1207  0.3026
 2691TIP3   OH229487   2.560   7.030  12.240  0.0661 -0.1103 -0.3894
 2691TIP3    H129488   2.572   6.960  12.176  0.7560  0.7218 -1.1961
 2691TIP3    H229489   2.648   7.054  12.268 -0.1049  0.9495 -0.6999
 2692TIP3   OH229490   1.310   5.610  13.628  0.2877  0.3035 -0.5966
 2692TIP3    H129491   1.397   5.633  13.660  0.8818 -1.3718 -0.8880
 2692TIP3    H229492   1.325   5.536  13.569 -1.4701 -0.9605  0.4237
 2693TIP3   OH229493   1.460   0.612  13.987 -0.1966 -0.1571 -0.2466
 2693TIP3    H129494   1.406   0.535  14.004 -1.5775  1.0961  1.4257
 2693TIP3    H229495   1.403   0.686  14.010  1.3947  1.3336 -0.8984
 2694TIP3   OH229496   3.668   0.717  14.565 -0.3999  0.2361  0.3712
 2694TIP3    H129497   3.662   0.700  14.659 -1.4642  0.9811  0.4443
 2694TIP3    H229498   3.635   0.637  14.524  3.6273 -1.7703  0.4637
 2695TIP3   OH229499   0.487   5.553  10.473  0.6732  0.2890 -0.2152
 2695TIP3    H129500   0.509   5.472  10.428 -2.9327 -1.1179  0.2520
 2695TIP3    H229501   0.490   5.531  10.566 -1.0373  0.4156 -0.0983
 2696TIP3   OH229502   6.973   4.314  11.160 -0.2674 -0.2269  0.0605
 2696TIP3    H129503   7.041   4.265  11.206 -1.3731 -0.1925  1.7896
 2696TIP3    H229504   6.968   4.272  11.074  0.6525 -1.4063  0.5544
 2697TIP3   OH229505   1.109   0.830   9.448 -0.4964  0.2052 -0.4017
 2697TIP3    H129506   1.138   0.786   9.528 -2.5899  0.0413  0.3339
 2697TIP3    H229507   1.119   0.764   9.379 -0.4337 -0.2870  0.0769
 2698TIP3   OH229508   3.951   2.420  11.050 -0.2400 -0.5412 -0.4058
 2698TIP3    H129509   3.973   2.335  11.012 -1.4441 -0.8526 -0.4418
 2698TIP3    H229510   3.877   2.451  10.997  0.2584  0.5830 -0.4663
 2699TIP3   OH229511   2.624   6.867   0.756 -1.0320 -0.6418  0.0781
 2699TIP3    H129512   2.631   6.866   0.661  0.2961  2.2555  0.0399
 2699TIP3    H229513   2.694   6.810   0.787  0.9149  1.2092 -0.7196
 2700TIP3   OH229514   4.256   2.334  14.402 -0.5714  0.0778  0.8665
 2700TIP3    H129515   4.181   2.384  14.368 -0.4542 -0.4601 -0.2619
 2700TIP3    H229516   4.226   2.243  14.399 -0.3346 -0.0271  1.6735
 2701TIP3   OH229517   6.358   5.659   9.421 -0.2763 -0.2062  0.1012
 2701TIP3    H129518   6.378   5.657   9.327 -1.9762 -0.1411 -0.3048
 2701TIP3    H229519   6.354   5.752   9.442  1.9045 -0.1988  0.7055
 2702TIP3   OH229520   0.283   4.223  12.285 -0.1939 -0.5531 -0.3207
 2702TIP3    H129521   0.290   4.177  12.201 -0.0557 -0.3054 -0.4474
 2702TIP3    H229522   0.330   4.167  12.347  0.2816 -0.4137 -0.5446
 2703TIP3   OH229523   6.824   6.906  10.958  0.2293  0.2672 -0.3418
 2703TIP3    H129524   6.758   6.972  10.937 -0.5570 -0.3302  0.2270
 2703TIP3    H229525   6.779   6.844  11.014  1.4574  0.1840  0.5836
 2704TIP3   OH229526   1.132   6.543  13.703 -0.1050  0.0558 -0.1471
 2704TIP3    H129527   1.072   6.523  13.631 -1.3141  0.9367  0.5578
 2704TIP3    H229528   1.202   6.593  13.663 -0.5002  0.0911 -0.8077
 2705TIP3   OH229529   3.621   1.962  13.726 -0.5088 -0.0916 -0.4771
 2705TIP3    H129530   3.693   1.912  13.765 -1.4602  0.0806  1.5934
 2705TIP3    H229531   3.656   1.991  13.641  1.2072 -1.5078 -0.3111
 2706TIP3   OH229532   6.577   4.207  11.052  0.0679 -0.4170 -0.1716
 2706TIP3    H129533   6.554   4.171  11.137 -0.6359  0.1437 -0.1261
 2706TIP3    H229534   6.495   4.239  11.015  0.7937  2.2698  0.3022
 2707TIP3   OH229535   2.085   3.989  11.236 -0.3190  0.5979 -0.1758
 2707TIP3    H129536   2.065   4.044  11.311  1.3602 -0.0686  0.8002
 2707TIP3    H229537   2.109   3.904  11.274 -1.3455 -0.3791 -1.5685
 2708TIP3   OH229538   1.941   0.265   9.810  0.1376  0.1840  0.6773
 2708TIP3    H129539   1.877   0.208   9.767  0.4655  0.6081 -0.4025
 2708TIP3    H229540   1.890   0.338   9.844 -0.1379 -0.1971  1.0908
 2709TIP3   OH229541   6.795   4.169  11.548  0.4614  0.7727 -0.1824
 2709TIP3    H129542   6.742   4.202  11.475  3.1707  0.9159 -2.2506
 2709TIP3    H229543   6.757   4.209  11.626 -1.6965  1.7647 -1.6549
 2710TIP3   OH229544   6.777   4.825  12.440 -0.3056  0.0592  0.3875
 2710TIP3    H129545   6.776   4.920  12.456 -0.7246  0.1784 -0.2879
 2710TIP3    H229546   6.797   4.818  12.346 -0.3807 -0.5218  0.4150
 2711TIP3   OH229547   0.786   2.256  12.898 -1.0263  0.0840 -0.7524
 2711TIP3    H129548   0.700   2.218  12.880 -1.6217  1.0707 -0.0908
 2711TIP3    H229549   0.801   2.239  12.991 -0.2332 -0.5876 -0.9885
 2712TIP3   OH229550   0.020   1.790  10.466 -0.1777  0.4614 -0.1345
 2712TIP3    H129551   0.107   1.830  10.473  1.0227 -1.5406 -2.0149
 2712TIP3    H229552   0.020   1.750  10.379 -2.8574  0.0248  0.0019
 2713TIP3   OH229553   2.162   4.850  14.168  0.0338 -0.0923 -0.3058
 2713TIP3    H129554   2.109   4.891  14.100  1.2494  0.3045 -1.0257
 2713TIP3    H229555   2.243   4.824  14.124  1.1248  0.7702  1.1153
 2714TIP3   OH229556   6.977   3.317   9.969 -0.0832  0.5866  0.1888
 2714TIP3    H129557   6.911   3.252   9.993  0.4632 -0.1916 -0.3494
 2714TIP3    H229558   6.946   3.354   9.886  0.5135 -0.3291 -0.4641
 2715TIP3   OH229559   2.101   0.086  11.911 -0.3149 -0.0837 -0.2923
 2715TIP3    H129560   2.120   0.144  11.985  0.9746 -0.3923 -0.3496
 2715TIP3    H229561   2.178   0.029  11.904  0.0749  0.5887 -2.4841
 2716TIP3   OH229562   5.649   1.289  11.582  0.7890  0.0643  0.2557
 2716TIP3    H129563   5.673   1.197  11.590  1.3909 -0.1474 -2.8416
 2716TIP3    H229564   5.731   1.335  11.566  0.2707  0.8020 -0.3921
 2717TIP3   OH229565   2.436   2.720  11.695  0.1230  0.0283 -0.5664
 2717TIP3    H129566   2.432   2.798  11.751  0.9501 -0.0662 -0.3719
 2717TIP3    H229567   2.458   2.649  11.754  2.6685  0.1808 -1.2078
 2718TIP3   OH229568   2.334   3.435  10.756  0.4887  0.3993  0.0811
 2718TIP3    H129569   2.400   3.454  10.689  0.7984  0.0614  0.2888
 2718TIP3    H229570   2.384   3.408  10.832  0.0925 -0.3234  0.0943
 2719TIP3   OH229571   0.978   5.837  11.479  0.0300 -0.1037  0.0191
 2719TIP3    H129572   1.063   5.863  11.444  0.0104  0.6987  0.5526
 2719TIP3    H229573   0.936   5.791  11.406  0.3741  0.6974 -0.7000
 2720TIP3   OH229574   4.588   3.768  10.956  0.0243 -1.0173  0.3667
 2720TIP3    H129575   4.646   3.699  10.990  0.4885 -0.2520  1.1761
 2720TIP3    H229576   4.563   3.818  11.033  1.6166  1.1600 -0.4089
 2721TIP3   OH229577   6.675   3.286  10.928  0.1439 -0.1796 -0.5492
 2721TIP3    H129578   6.682   3.365  10.875 -0.4041 -0.2037 -0.6638
 2721TIP3    H229579   6.761   3.276  10.969  0.5876 -0.1796 -1.4613
 2722TIP3   OH229580   4.993   6.564  13.921  0.1644  0.1207 -0.2640
 2722TIP3    H129581   4.909   6.606  13.907  0.0256 -0.8006 -2.6300
 2722TIP3    H229582   5.046   6.630  13.967 -1.5767  0.9670  0.6095
 2723TIP3   OH229583   3.801   4.504  14.038 -0.2327 -0.3249  0.0526
 2723TIP3    H129584   3.875   4.452  14.069  0.1127  0.3594  0.4014
 2723TIP3    H229585   3.841   4.580  13.996 -0.7112  1.2929  2.3783
 2724TIP3   OH229586   0.821   3.517  11.082  0.2000 -0.1493  0.7995
 2724TIP3    H129587   0.729   3.541  11.074  0.1818 -0.6675 -0.8165
 2724TIP3    H229588   0.837   3.457  11.009  1.6388 -0.6366  1.4820
 2725TIP3   OH229589   5.177   2.385   0.646  0.5482 -0.6119 -0.1265
 2725TIP3    H129590   5.150   2.336   0.724 -0.9577 -0.9582 -0.8325
 2725TIP3    H229591   5.185   2.476   0.677 -2.1179 -0.3620  0.0193
 2726TIP3   OH229592   1.478   3.355  11.706 -0.2799 -0.5677  0.2965
 2726TIP3    H129593   1.519   3.273  11.678 -1.9887 -1.0618 -0.9970
 2726TIP3    H229594   1.387   3.331  11.723 -0.2419  0.5947  2.4288
 2727TIP3   OH229595   5.670   5.053  13.272  0.2800 -0.0832 -0.4576
 2727TIP3    H129596   5.717   5.003  13.205  0.8446 -1.7825  1.1056
 2727TIP3    H229597   5.585   5.071  13.233  1.0590  0.1704 -2.1174
 2728TIP3   OH229598   1.068   6.416  13.466 -0.2665  0.0408  0.4777
 2728TIP3    H129599   1.022   6.386  13.388  1.2642  1.6265 -1.1418
 2728TIP3    H229600   1.160   6.396  13.449 -0.0217 -0.6863  2.4463
 2729TIP3   OH229601   0.966   6.865  13.486  0.1533 -0.1976  0.5072
 2729TIP3    H129602   0.877   6.882  13.456  0.5081  2.0706  0.5087
 2729TIP3    H229603   0.955   6.829  13.574 -0.7884  0.8515  0.8473
 2730TIP3   OH229604   2.958   5.492  10.745 -0.1885 -0.2164  0.2590
 2730TIP3    H129605   3.027   5.532  10.798  1.2452 -0.5397 -1.2989
 2730TIP3    H229606   2.947   5.404  10.783 -0.0811 -0.0025  0.7965
 2731TIP3   OH229607   5.775   0.122  13.163  0.0850  0.2877  0.2863
 2731TIP3    H129608   5.693   0.127  13.212 -0.0070 -0.1729  0.1889
 2731TIP3    H229609   5.790   0.211  13.131  0.4943  0.7581  1.6947
 2732TIP3   OH229610   4.437   7.007  10.946  0.0139 -0.2139 -0.6097
 2732TIP3    H129611   4.467   7.029  11.034 -0.0231  1.3494 -0.9508
 2732TIP3    H229612   4.357   7.058  10.935  0.8667  0.8868 -2.0980
 2733TIP3   OH229613   7.010   5.735   2.282  0.0282  0.0653 -0.2757
 2733TIP3    H129614   6.989   5.816   2.236  0.0468  0.0182 -0.3680
 2733TIP3    H229615   7.025   5.762   2.372 -1.2427 -0.0152 -0.0240
 2734TIP3   OH229616   1.890   0.477  14.165  0.1011 -0.0586  0.1033
 2734TIP3    H129617   1.805   0.482  14.208 -1.4633  0.3099 -2.8147
 2734TIP3    H229618   1.909   0.383  14.158 -1.3772 -0.2714 -1.5277
 2735TIP3   OH229619   1.865   4.366   9.062  0.0999 -0.0153 -0.5831
 2735TIP3    H129620   1.880   4.369   9.156 -0.2135  1.6103 -0.5546
 2735TIP3    H229621   1.774   4.396   9.052  0.9344  2.4771 -1.5324
 2736TIP3   OH229622   4.822   6.429  11.126  0.0542  0.8373  0.1828
 2736TIP3    H129623   4.898   6.380  11.158  1.1844  2.2344 -0.2403
 2736TIP3    H229624   4.779   6.462  11.205  1.6646  2.5576  0.4409
 2737TIP3   OH229625   0.549   5.513  11.453 -0.0445 -0.4443  0.2931
 2737TIP3    H129626   0.490   5.567  11.505 -0.4757 -1.6523  1.0961
 2737TIP3    H229627   0.494   5.442  11.419  0.8384 -1.4000  0.7736
 2738TIP3   OH229628   4.349   0.009  11.718  0.3990  0.0672  0.6251
 2738TIP3    H129629   4.311  -0.061  11.771 -0.4860 -0.0912 -0.1921
 2738TIP3    H229630   4.443  -0.011  11.716  0.1135 -1.3256  0.0895
 2739TIP3   OH229631   0.364   3.478  12.633  0.0204 -0.2826 -0.2072
 2739TIP3    H129632   0.310   3.432  12.568  0.9176 -2.6287  0.6145
 2739TIP3    H229633   0.452   3.477  12.595 -0.0517  1.4783 -0.4955
 2740TIP3   OH229634   0.320   4.497  15.259 -0.0943  0.2368 -0.5413
 2740TIP3    H129635   0.401   4.447  15.272 -0.5680 -0.2941  0.5491
 2740TIP3    H229636   0.349   4.583  15.230  1.1914  1.4148  3.5365
 2741TIP3   OH229637   4.697   6.220  11.508  0.0679 -0.4407 -0.1350
 2741TIP3    H129638   4.763   6.155  11.485 -1.1559 -1.1037 -2.0649
 2741TIP3    H229639   4.619   6.168  11.528 -0.1936  0.3582  0.9648
 2742TIP3   OH229640   2.354   2.746  10.154 -0.0112 -0.4665  0.0882
 2742TIP3    H129641   2.431   2.780  10.107 -0.9773  0.2884 -1.0050
 2742TIP3    H229642   2.324   2.673  10.101 -1.5378  0.8397 -0.9418
 2743TIP3   OH229643   3.947   6.233  12.004 -0.5673 -0.0739  0.0825
 2743TIP3    H129644   3.926   6.164  12.067 -0.4769 -0.3277 -0.1597
 2743TIP3    H229645   3.892   6.307  12.029  0.8953  0.5318  1.6874
 2744TIP3   OH229646   2.258   6.871  13.268  0.0690  0.2126  0.1990
 2744TIP3    H129647   2.289   6.928  13.198  1.3674 -0.1652  0.4428
 2744TIP3    H229648   2.335   6.820  13.294 -1.0738 -1.8171 -0.1460
 2745TIP3   OH229649   2.262   5.571  11.314 -0.1774 -0.3983  0.0591
 2745TIP3    H129650   2.228   5.661  11.309  0.8119 -0.0746 -2.0198
 2745TIP3    H229651   2.316   5.570  11.393  0.8483  1.2470 -0.5762
 2746TIP3   OH229652   5.979   1.367  14.855  0.3651  0.1220 -0.1180
 2746TIP3    H129653   6.012   1.391  14.768  0.0299  1.2615  0.0526
 2746TIP3    H229654   5.958   1.274  14.848 -0.9234  0.4857 -1.6793
 2747TIP3   OH229655   4.166   6.876  15.438  0.0795 -0.1047 -1.2904
 2747TIP3    H129656   4.226   6.847  15.508 -2.1961 -0.0554  0.8172
 2747TIP3    H229657   4.141   6.795  15.394 -0.8255 -0.5892  0.0231
 2748TIP3   OH229658   2.786   6.213   0.589  0.1226  0.5535 -0.1704
 2748TIP3    H129659   2.817   6.194   0.678 -1.2395 -2.1778 -0.1891
 2748TIP3    H229660   2.691   6.204   0.594  0.0273  0.2259 -1.9540
 2749TIP3   OH229661   0.771   4.324  11.773  0.2672 -0.3459 -0.3264
 2749TIP3    H129662   0.799   4.328  11.682 -2.1089 -0.1957 -1.1168
 2749TIP3    H229663   0.719   4.244  11.779  1.7425 -1.2486  1.3559
 2750TIP3   OH229664   6.357   5.189  13.621 -0.6936  0.0847 -0.2164
 2750TIP3    H129665   6.377   5.114  13.565 -1.1675  0.2751 -0.6425
 2750TIP3    H229666   6.443   5.227  13.642 -0.5447  0.4254 -1.3757
 2751TIP3   OH229667   1.194   2.530   9.305 -0.5584  0.2696  0.2343
 2751TIP3    H129668   1.157   2.482   9.231  0.7116  0.0399 -0.2787
 2751TIP3    H229669   1.189   2.469   9.379 -0.4202 -0.0676 -0.0355
 2752TIP3   OH229670   4.135   5.938  13.141 -0.0592  0.1654 -0.3851
 2752TIP3    H129671   4.229   5.957  13.141 -0.4348  2.2813  0.1777
 2752TIP3    H229672   4.128   5.850  13.103  2.1312 -0.0435 -0.4274
 2753TIP3   OH229673   2.302   4.598  10.559 -0.7743 -0.5237  0.2871
 2753TIP3    H129674   2.358   4.633  10.628  1.3043  0.2963 -1.6885
 2753TIP3    H229675   2.358   4.536  10.512 -2.1043 -1.0143 -0.7350
 2754TIP3   OH229676   2.421   1.148  14.429  0.2633 -0.0947 -0.3085
 2754TIP3    H129677   2.362   1.223  14.426  0.1352 -0.1766  0.1090
 2754TIP3    H229678   2.503   1.180  14.390  0.4624  0.4935  0.5598
 2755TIP3   OH229679   0.654   7.076   9.603 -0.4075 -0.0811 -0.3890
 2755TIP3    H129680   0.726   7.119   9.556 -0.8307 -0.5452 -1.4879
 2755TIP3    H229681   0.586   7.143   9.609  0.5351  0.7857  1.7830
 2756TIP3   OH229682   4.990   1.513   9.520  0.0517  0.4902  0.2557
 2756TIP3    H129683   4.990   1.487   9.428 -1.1000 -1.5028  0.7539
 2756TIP3    H229684   5.071   1.475   9.555 -0.5509 -0.5970  0.5033
 2757TIP3   OH229685   1.311   1.814  14.189  0.4846  0.5606 -0.1088
 2757TIP3    H129686   1.356   1.769  14.118  1.4768  1.2939  0.0333
 2757TIP3    H229687   1.315   1.752  14.262  1.9459  0.8907  0.1233
 2758TIP3   OH229688   6.898   0.730  13.440  0.7023 -0.1377  0.0964
 2758TIP3    H129689   6.925   0.693  13.525  0.6592 -3.0316 -1.0280
 2758TIP3    H229690   6.812   0.691  13.424  0.8305  0.1612 -1.3712
 2759TIP3   OH229691   1.456   0.927  11.150 -0.8983 -0.4631  0.1320
 2759TIP3    H129692   1.372   0.951  11.188 -0.1544  0.4251  1.2839
 2759TIP3    H229693   1.452   0.959  11.060 -0.3695  3.2597  1.2557
 2760TIP3   OH229694   0.257   2.901  14.955  0.3458 -0.2190  0.0201
 2760TIP3    H129695   0.281   2.870  14.867  0.5540 -0.7139  0.2461
 2760TIP3    H229696   0.220   2.988  14.940  2.9393  0.9371 -0.3040
 2761TIP3   OH229697   6.620   1.299  10.009  0.2374  0.8703  0.1457
 2761TIP3    H129698   6.697   1.260  10.050 -0.2277  0.7088  0.8929
 2761TIP3    H229699   6.630   1.280   9.916 -0.6286 -2.2962  0.5855
 2762TIP3   OH229700   5.720   4.862  14.413 -0.6109  0.6715 -0.3070
 2762TIP3    H129701   5.666   4.815  14.350  1.0028 -0.3786 -0.9666
 2762TIP3    H229702   5.793   4.896  14.362 -0.3585  1.6185  0.6489
 2763TIP3   OH229703   2.770   5.256  11.927  0.3209  0.9940  0.2954
 2763TIP3    H129704   2.784   5.170  11.968 -1.8815  0.4892  0.0756
 2763TIP3    H229705   2.858   5.283  11.900  1.3884 -0.1790  2.3034
 2764TIP3   OH229706   6.669   4.396  14.742  0.4994  0.7738  0.3621
 2764TIP3    H129707   6.754   4.359  14.766  0.5675  0.9609  0.4075
 2764TIP3    H229708   6.671   4.485  14.777  0.2943  0.7866  0.3412
 2765TIP3   OH229709   1.064   4.932   0.467 -0.0648  0.7002 -0.2008
 2765TIP3    H129710   1.002   4.973   0.527  1.0934  2.6713 -0.3051
 2765TIP3    H229711   1.016   4.856   0.432 -2.0391  1.5833  0.4757
 2766TIP3   OH229712   0.219   0.339  13.237 -0.0862  0.0520  0.6654
 2766TIP3    H129713   0.299   0.391  13.246  0.2703 -0.7460  3.0764
 2766TIP3    H229714   0.188   0.327  13.328 -1.5094 -1.8344  0.0092
 2767TIP3   OH229715   6.618   4.249   3.440  0.5996  0.5854  0.1096
 2767TIP3    H129716   6.664   4.267   3.523 -0.9947  1.1298  0.9163
 2767TIP3    H229717   6.539   4.201   3.466  0.7913 -0.5486 -1.2684
 2768TIP3   OH229718   2.779   3.114  13.593  0.0494  0.4447 -0.5884
 2768TIP3    H129719   2.834   3.177  13.639 -0.2357 -0.6933  1.4045
 2768TIP3    H229720   2.773   3.148  13.504  1.0078  2.4833  0.0749
 2769TIP3   OH229721   0.369   3.558  14.850 -0.2102 -0.4611 -0.3451
 2769TIP3    H129722   0.343   3.649  14.837 -1.4469 -0.8572 -0.7540
 2769TIP3    H229723   0.451   3.549  14.801  1.8233  1.2880  2.4402
 2770TIP3   OH229724   2.400   3.458   2.182  0.6926  0.5837 -0.2428
 2770TIP3    H129725   2.377   3.548   2.158  2.0060  1.2186  0.7596
 2770TIP3    H229726   2.365   3.447   2.271 -0.2676 -0.2306 -0.7022
 2771TIP3   OH229727   4.162   5.641  11.810  0.3431  0.3061  0.3796
 2771TIP3    H129728   4.069   5.616  11.804  0.6639 -1.0899  0.8153
 2771TIP3    H229729   4.161   5.728  11.850 -0.7262 -0.4163  2.0567
 2772TIP3   OH229730   7.007   5.469  14.377 -0.0202 -0.5810  0.0064
 2772TIP3    H129731   6.926   5.443  14.421  1.4838 -3.9713  1.0891
 2772TIP3    H229732   6.980   5.491  14.288 -2.1698 -1.3665  0.4069
 2773TIP3   OH229733   2.245   6.347   1.157  0.6417 -0.0461 -0.0600
 2773TIP3    H129734   2.308   6.278   1.177  0.1009 -0.3414  0.6272
 2773TIP3    H229735   2.160   6.311   1.182  0.3302  0.7851  0.1102
 2774TIP3   OH229736   1.882   1.032   0.347 -0.4241  0.9812 -0.7243
 2774TIP3    H129737   1.826   0.977   0.401  0.8566  1.2324  0.9467
 2774TIP3    H229738   1.923   0.972   0.285  1.4225 -0.1738  1.4545
 2775TIP3   OH229739   3.573   4.500  13.438  0.6083  0.5486 -0.1703
 2775TIP3    H129740   3.495   4.550  13.414  0.7294  0.4087 -0.8569
 2775TIP3    H229741   3.599   4.456  13.358  1.1132  0.2049  0.1778
 2776TIP3   OH229742   1.420   6.232  13.825  0.0383 -0.1778 -0.2971
 2776TIP3    H129743   1.353   6.290  13.860  1.0955  1.0847 -0.2891
 2776TIP3    H229744   1.429   6.259  13.734 -1.8315 -2.6265 -1.2987
 2777TIP3   OH229745   0.542   6.154  12.657 -0.4670  0.0905  0.4097
 2777TIP3    H129746   0.491   6.216  12.708  0.2928  0.5437  0.6386
 2777TIP3    H229747   0.533   6.071  12.705  2.7961  1.1221  3.2506
 2778TIP3   OH229748   4.463   2.025  10.847 -0.0964  0.0671 -0.0124
 2778TIP3    H129749   4.536   2.074  10.884  1.2255 -2.0952  0.4069
 2778TIP3    H229750   4.387   2.055  10.896 -0.0346  4.0087 -1.9409
 2779TIP3   OH229751   2.354   3.873   0.823  0.2210 -0.0302 -0.7181
 2779TIP3    H129752   2.341   3.968   0.815  0.1232 -0.1458 -2.0282
 2779TIP3    H229753   2.403   3.863   0.905  2.2160  1.3586 -1.6486
 2780TIP3   OH229754   3.801   7.128   2.292 -0.3481 -0.3439 -0.2421
 2780TIP3    H129755   3.892   7.104   2.276  0.4971  2.3680 -0.0356
 2780TIP3    H229756   3.778   7.183   2.217 -2.2108 -1.7972 -0.8165
 2781TIP3   OH229757   4.388   1.585  14.122 -0.3610  0.4270 -0.4302
 2781TIP3    H129758   4.483   1.586  14.115 -0.4159  1.5513 -1.3238
 2781TIP3    H229759   4.364   1.493  14.114  0.5854  0.2400 -1.3285
 2782TIP3   OH229760   2.577   4.653   0.428 -0.3578 -0.1883  0.1370
 2782TIP3    H129761   2.541   4.727   0.477 -1.0274 -0.1014 -0.4574
 2782TIP3    H229762   2.665   4.641   0.463 -0.7794 -0.0636  1.2654
 2783TIP3   OH229763   2.668   3.208  12.255 -0.1084  0.2336  0.2863
 2783TIP3    H129764   2.644   3.131  12.306  0.7299 -0.1067  0.1968
 2783TIP3    H229765   2.701   3.172  12.172  3.2257  0.4322  1.3690
 2784TIP3   OH229766   5.771   1.768  13.053 -0.0306 -0.6844 -0.3827
 2784TIP3    H129767   5.709   1.753  13.124  0.9800 -0.6565  0.5393
 2784TIP3    H229768   5.736   1.843  13.005  1.1882  1.8862  2.4088
 2785TIP3   OH229769   1.241   1.651  12.534 -0.4494 -0.1938  0.1742
 2785TIP3    H129770   1.189   1.660  12.615  0.0945 -0.7838  0.6030
 2785TIP3    H229771   1.178   1.666  12.464 -1.5757 -2.3830  0.6298
 2786TIP3   OH229772   1.178   5.033  11.158 -0.0878 -0.1788  0.7370
 2786TIP3    H129773   1.255   4.990  11.195 -0.8191 -0.5947  1.8418
 2786TIP3    H229774   1.138   5.078  11.232 -0.9681 -0.0694  0.2109
 2787TIP3   OH229775   5.591   6.787  13.531 -0.6846  0.9751  0.4822
 2787TIP3    H129776   5.530   6.832  13.590 -1.7627 -1.0710  1.0001
 2787TIP3    H229777   5.628   6.717  13.584 -0.9159 -0.2963 -0.9756
 2788TIP3   OH229778   3.304   4.106  14.740 -0.0905  0.5030  0.1696
 2788TIP3    H129779   3.396   4.121  14.758 -0.0776 -0.4409  0.9931
 2788TIP3    H229780   3.304   4.039  14.671 -0.1465  0.0637  0.5870
 2789TIP3   OH229781   1.579   1.199  14.460  0.1750  0.4016 -0.3068
 2789TIP3    H129782   1.602   1.273  14.515 -3.2109  0.4909  1.2555
 2789TIP3    H229783   1.551   1.238  14.377 -0.6596  0.8426  0.1687
 2790TIP3   OH229784   3.312   3.902  12.633  0.2793  0.5865  0.5577
 2790TIP3    H129785   3.290   3.991  12.607  1.1921  0.8220  0.5559
 2790TIP3    H229786   3.408   3.900  12.633  0.2807 -0.8717 -1.0341
 2791TIP3   OH229787   0.529   1.692  11.164 -0.8393  0.1577  0.0413
 2791TIP3    H129788   0.474   1.769  11.148 -0.1827  0.3908 -1.2364
 2791TIP3    H229789   0.476   1.619  11.133 -0.1324  0.4735 -2.1387
 2792TIP3   OH229790   2.517   2.739   0.764 -0.5220  0.4860 -0.6023
 2792TIP3    H129791   2.553   2.784   0.840 -1.9334  3.1713 -1.4034
 2792TIP3    H229792   2.423   2.741   0.777 -0.6979 -1.2808 -1.2682
 2793TIP3   OH229793   1.172   1.287  14.480  0.0781  0.2115 -0.3712
 2793TIP3    H129794   1.142   1.281  14.390  0.7308 -2.3527 -0.4822
 2793TIP3    H229795   1.098   1.326  14.527 -2.2786 -2.9245 -1.2044
 2794TIP3   OH229796   2.806   3.751  12.468  0.2171  0.7623 -0.4069
 2794TIP3    H129797   2.899   3.774  12.457  0.2581  1.0566  0.4420
 2794TIP3    H229798   2.795   3.671  12.416  1.5281 -0.5776  1.2388
 2795TIP3   OH229799   0.551   6.718  14.577 -0.3127 -0.7981 -0.2043
 2795TIP3    H129800   0.498   6.739  14.654  1.2738 -2.0037  1.2845
 2795TIP3    H229801   0.488   6.685  14.513 -1.7413  0.7245  0.3470
 2796TIP3   OH229802   6.997   2.838  13.448 -0.2925 -0.8732  0.1326
 2796TIP3    H129803   7.030   2.805  13.531 -1.4302 -1.9804  0.1801
 2796TIP3    H229804   7.046   2.790  13.381 -0.0862 -0.7214  0.1743
 2797TIP3   OH229805   1.872   0.495  10.282  0.7834  0.4729  0.1474
 2797TIP3    H129806   1.813   0.557  10.323  0.8421  0.3277  0.4540
 2797TIP3    H229807   1.959   0.531  10.296  0.8166  0.3309  0.3122
 2798TIP3   OH229808   5.244   6.329  10.856  0.1774 -0.1812 -1.0392
 2798TIP3    H129809   5.151   6.350  10.859  0.0486 -0.7805 -0.2735
 2798TIP3    H229810   5.263   6.294  10.943  0.7317 -1.6215 -1.6972
 2799TIP3   OH229811   5.552   4.666  11.821  0.3915  0.5178 -0.8560
 2799TIP3    H129812   5.568   4.594  11.881  0.7867  0.6858 -0.7595
 2799TIP3    H229813   5.465   4.648  11.785  0.0813  0.4922 -0.1257
 2800TIP3   OH229814   0.545   0.020   1.822  0.3316  0.4661 -0.2040
 2800TIP3    H129815   0.536   0.083   1.750 -0.1906  0.6138 -0.0086
 2800TIP3    H229816   0.603   0.063   1.884 -0.1653  0.8287  0.0097
 2801TIP3   OH229817   6.395   4.747   9.839 -0.2891  0.4396 -0.2920
 2801TIP3    H129818   6.364   4.678   9.897 -0.4988  1.3247  0.6618
 2801TIP3    H229819   6.477   4.713   9.803  0.5640  0.4196  1.5751
 2802TIP3   OH229820   3.165   1.136   1.591  0.2125 -0.0576  0.6254
 2802TIP3    H129821   3.115   1.197   1.645  0.1786 -1.1351  1.8579
 2802TIP3    H229822   3.248   1.126   1.637  1.6457  1.6788 -1.3714
 2803TIP3   OH229823   7.046   5.726  14.079 -0.5759 -0.1872  0.4168
 2803TIP3    H129824   7.034   5.754  14.170 -2.0421 -0.6599  0.4077
 2803TIP3    H229825   7.051   5.807  14.029 -0.8279  0.0757  0.8091
 2804TIP3   OH229826   6.291   3.874  11.018 -0.2786  0.4339  0.1590
 2804TIP3    H129827   6.234   3.949  11.001 -1.5003 -0.3322  0.7361
 2804TIP3    H229828   6.233   3.798  11.017  0.3734 -0.1903  2.5508
 2805TIP3   OH229829   1.133   0.932  12.456  0.3339  0.3355  0.3934
 2805TIP3    H129830   1.148   1.002  12.519  2.1030 -0.7817  1.2934
 2805TIP3    H229831   1.094   0.861  12.507 -1.7093  0.6781 -0.5598
 2806TIP3   OH229832   3.181   3.851  13.162 -0.3472 -0.4473  0.4926
 2806TIP3    H129833   3.125   3.808  13.228  0.2662 -1.6486  0.2584
 2806TIP3    H229834   3.127   3.853  13.083 -0.2649 -1.1344  0.4086
 2807TIP3   OH229835   0.320   5.256  10.693 -0.5081  0.0167  0.1444
 2807TIP3    H129836   0.336   5.349  10.708 -2.0135  0.3238  0.0114
 2807TIP3    H229837   0.236   5.239  10.734 -2.5847 -0.1870 -3.6992
 2808TIP3   OH229838   2.837   6.396  11.735 -0.5272  0.0158 -0.0936
 2808TIP3    H129839   2.903   6.461  11.712  1.3010 -1.9737 -0.9024
 2808TIP3    H229840   2.755   6.445  11.741  0.4434  2.1099 -2.2970
 2809TIP3   OH229841   0.293   6.059  11.520 -0.4110 -0.0743 -0.1549
 2809TIP3    H129842   0.294   6.049  11.615 -1.4261 -0.1212 -0.1402
 2809TIP3    H229843   0.294   6.154  11.506 -2.6193  0.0241 -0.0170
 2810TIP3   OH229844   5.454   3.616  11.919  0.2943 -0.5134 -0.1975
 2810TIP3    H129845   5.366   3.650  11.906  0.5302  0.2636  0.1662
 2810TIP3    H229846   5.499   3.631  11.836  0.2689 -0.3250 -0.1783
 2811TIP3   OH229847   0.767   4.039  10.454  1.0196  0.3475  0.1566
 2811TIP3    H129848   0.782   3.999  10.539  0.8651  0.0588  0.0486
 2811TIP3    H229849   0.714   4.116  10.473 -0.6561 -0.7350  0.1408
 2812TIP3   OH229850   2.155   0.217  12.181 -0.5429  0.3777  0.2768
 2812TIP3    H129851   2.142   0.275  12.256  1.7425 -0.1126  1.1617
 2812TIP3    H229852   2.108   0.137  12.204 -0.6367  0.5667  0.7510
 2813TIP3   OH229853   5.947   4.270  11.510  0.0986  0.3911  0.0685
 2813TIP3    H129854   6.012   4.244  11.576  0.6494 -0.5583 -0.8268
 2813TIP3    H229855   5.998   4.314  11.442 -0.3842  0.8093 -0.0300
 2814TIP3   OH229856   5.476   0.727  12.206 -0.0611  0.0474 -0.2433
 2814TIP3    H129857   5.439   0.813  12.226 -0.9396 -0.4114  0.1353
 2814TIP3    H229858   5.556   0.722  12.259  0.3873  0.9111 -0.8168
 2815TIP3   OH229859   6.921   0.005  10.474  0.5683  0.7776 -0.1026
 2815TIP3    H129860   6.945   0.097  10.480 -0.0107  0.8564  1.2521
 2815TIP3    H229861   6.996  -0.036  10.429  0.1533  2.1096 -2.1736
 2816TIP3   OH229862   1.379   0.467   9.395  0.1542  0.4804  0.1440
 2816TIP3    H129863   1.404   0.554   9.427  0.7091  1.1081 -1.8016
 2816TIP3    H229864   1.462   0.419   9.390  0.0454  0.3106 -0.0382
 2817TIP3   OH229865   1.541   6.948   9.179 -0.2410 -0.3312  0.1954
 2817TIP3    H129866   1.553   7.041   9.163 -1.4842  0.0749  1.4116
 2817TIP3    H229867   1.513   6.912   9.095 -2.3223  0.9057  0.3007
 2818TIP3   OH229868   4.118   2.955  12.509  0.6277 -0.4226  0.8350
 2818TIP3    H129869   4.076   3.021  12.564  0.6195 -0.5454  0.9765
 2818TIP3    H229870   4.175   2.907  12.569  1.4244  0.1237  0.5275
 2819TIP3   OH229871   1.232   0.217   1.145  0.1175 -0.8047  0.2290
 2819TIP3    H129872   1.186   0.231   1.062  0.7143 -0.0443  0.0115
 2819TIP3    H229873   1.310   0.272   1.138  0.5281 -1.2805  1.0131
 2820TIP3   OH229874   0.801   4.484  11.977 -0.1872  0.1174 -0.3686
 2820TIP3    H129875   0.889   4.461  12.006 -0.3683 -0.0639  0.0430
 2820TIP3    H229876   0.785   4.429  11.901  0.9066  1.7156 -1.8210
 2821TIP3   OH229877   6.213   3.106  14.671  0.2201  0.7922 -0.2181
 2821TIP3    H129878   6.149   3.152  14.725 -2.6227 -2.0709 -0.8387
 2821TIP3    H229879   6.242   3.172  14.607 -2.1327  2.2723  0.0909
 2822TIP3   OH229880   0.532   0.190   9.872  0.3675  0.0699  0.1663
 2822TIP3    H129881   0.548   0.103   9.910 -1.7275  0.1140  1.3451
 2822TIP3    H229882   0.557   0.181   9.780  1.6135 -1.3220  0.5888
 2823TIP3   OH229883   2.456   3.784  14.073  0.0130 -0.0268 -0.2362
 2823TIP3    H129884   2.382   3.810  14.128 -0.4059  1.3391 -1.3871
 2823TIP3    H229885   2.521   3.749  14.135 -1.5244 -1.1600  0.8065
 2824TIP3   OH229886   3.113   4.281  14.579  0.0763  0.1437 -0.7323
 2824TIP3    H129887   3.167   4.360  14.590  1.2003 -0.9438  3.3965
 2824TIP3    H229888   3.162   4.212  14.625 -1.7614 -2.5594 -2.5274
 2825TIP3   OH229889   2.048   5.801   9.366  0.3835  0.1349 -0.2091
 2825TIP3    H129890   2.092   5.816   9.450 -0.6515 -0.2858  0.4214
 2825TIP3    H229891   1.964   5.846   9.374  0.3294  0.2145 -1.0889
 2826TIP3   OH229892   2.143   3.041  11.485 -0.1598  0.1118  0.1476
 2826TIP3    H129893   2.173   3.120  11.530 -1.0084 -0.2204  1.3601
 2826TIP3    H229894   2.173   3.052  11.395  4.2193 -0.4849  1.2598
 2827TIP3   OH229895   0.273   4.048  12.043  0.5650  0.5803 -0.0322
 2827TIP3    H129896   0.231   3.962  12.047  1.3920  0.1257 -0.8697
 2827TIP3    H229897   0.215   4.100  11.987 -0.9439  1.1885  1.9642
 2828TIP3   OH229898   5.320   4.411  12.338  0.0534 -0.3538 -0.2061
 2828TIP3    H129899   5.258   4.339  12.348  1.0393 -1.0656  1.2282
 2828TIP3    H229900   5.281   4.483  12.387  0.5315 -0.9426  1.0851
 2829TIP3   OH229901   3.355   6.873  12.736  0.0200  0.1185  0.0171
 2829TIP3    H129902   3.321   6.796  12.782  0.8177  0.3293  1.0009
 2829TIP3    H229903   3.371   6.938  12.805 -0.5554  1.1434 -0.7869
 2830TIP3   OH229904   2.778   6.809  14.221  0.3550 -0.2092  0.9573
 2830TIP3    H129905   2.766   6.750  14.295 -0.0764  1.0773  1.9530
 2830TIP3    H229906   2.848   6.869  14.248  0.7015 -0.1638  0.0261
 2831TIP3   OH229907   6.692   4.500  13.731 -0.7481 -0.3885  0.6016
 2831TIP3    H129908   6.768   4.547  13.765 -0.6256 -0.6358  0.6690
 2831TIP3    H229909   6.690   4.417  13.779 -0.4528 -0.8299 -0.1316
 2832TIP3   OH229910   5.173   4.970   2.520  0.3513 -0.0861 -0.5370
 2832TIP3    H129911   5.104   4.906   2.504  1.0873 -0.8689 -0.6819
 2832TIP3    H229912   5.220   4.977   2.437  1.1756 -0.4713 -0.1126
 2833TIP3   OH229913   2.271   2.561   9.976 -0.8497  0.5773 -0.1392
 2833TIP3    H129914   2.269   2.596   9.887  2.0969 -1.4749 -1.1457
 2833TIP3    H229915   2.209   2.488   9.976 -0.9012  0.6226 -0.4700
 2834TIP3   OH229916   1.688   2.397  15.461 -0.4006  0.1583 -0.0315
 2834TIP3    H129917   1.641   2.470  15.502 -0.0800  1.0586 -1.1895
 2834TIP3    H229918   1.780   2.420  15.470 -0.2489 -0.7125  0.6558
 2835TIP3   OH229919   3.018   0.584  10.305  0.2800  0.0865 -0.3180
 2835TIP3    H129920   3.034   0.496  10.271 -0.1719 -0.6166  1.2012
 2835TIP3    H229921   2.924   0.597  10.293  0.2024  0.0219  0.1761
 2836TIP3   OH229922   6.959   0.783   9.768 -0.2102 -0.0613  0.4514
 2836TIP3    H129923   7.047   0.787   9.805 -0.5165  0.7362  1.1390
 2836TIP3    H229924   6.947   0.867   9.724 -1.8902  1.4747  3.4725
 2837TIP3   OH229925   3.645   3.601  10.763  0.4494  0.2049  0.0191
 2837TIP3    H129926   3.739   3.594  10.747  0.3723 -0.6421 -0.0881
 2837TIP3    H229927   3.606   3.537  10.704 -0.2920  1.3499 -0.7735
 2838TIP3   OH229928   4.777   0.070  10.328 -0.1169 -0.1460 -0.3164
 2838TIP3    H129929   4.711   0.039  10.390 -0.1503 -0.7610 -0.6543
 2838TIP3    H229930   4.792   0.162  10.353  0.4488 -0.5904  1.0858
 2839TIP3   OH229931   0.901   3.696  10.539  0.5481 -0.5165  0.1777
 2839TIP3    H129932   0.835   3.642  10.496  0.3408 -0.7906  0.8275
 2839TIP3    H229933   0.963   3.718  10.469  0.0620 -0.7021 -0.3225
 2840TIP3   OH229934   2.692   1.324  12.200 -0.2586  0.3652 -0.2288
 2840TIP3    H129935   2.665   1.267  12.272  1.3469 -0.0136  0.0983
 2840TIP3    H229936   2.609   1.360  12.167 -1.0832  0.1218  1.4316
 2841TIP3   OH229937   1.763   3.975  14.918 -0.3726  0.0087 -0.3201
 2841TIP3    H129938   1.685   4.019  14.883 -1.3574 -0.6651  0.9279
 2841TIP3    H229939   1.755   3.885  14.887 -0.5821 -0.2791  0.5387
 2842TIP3   OH229940   1.500   5.431  10.896  0.4441  0.1365 -0.4156
 2842TIP3    H129941   1.555   5.370  10.945  0.0641  0.8489  0.9438
 2842TIP3    H229942   1.425   5.447  10.952  0.0605  1.0983 -1.1676
 2843TIP3   OH229943   6.010   0.236   9.786  0.1361  0.4017  0.1662
 2843TIP3    H129944   6.089   0.290   9.795  0.8597 -0.2443 -1.8281
 2843TIP3    H229945   5.946   0.294   9.746  0.6705  0.0599 -1.2532
 2844TIP3   OH229946   1.579   7.074   1.685  0.0909 -0.5010 -0.4221
 2844TIP3    H129947   1.501   7.056   1.633  0.2822  1.1178 -1.3307
 2844TIP3    H229948   1.637   6.999   1.669  0.0899 -0.1174 -2.4702
 2845TIP3   OH229949   6.372   2.128   0.192 -0.0073  0.0986  0.1974
 2845TIP3    H129950   6.417   2.201   0.233 -1.1113  0.3219  1.0603
 2845TIP3    H229951   6.358   2.156   0.102  0.5062  0.5115  0.2438
 2846TIP3   OH229952   6.009   5.991  10.304  0.2919  0.1262  0.0545
 2846TIP3    H129953   5.933   5.970  10.357  0.2626  1.4476  0.5687
 2846TIP3    H229954   5.974   6.008  10.216  0.1707 -0.6181 -0.0465
 2847TIP3   OH229955   3.336   4.646   0.580  0.0560  0.7163 -0.5540
 2847TIP3    H129956   3.412   4.622   0.632 -1.8683 -0.4535  1.9789
 2847TIP3    H229957   3.342   4.591   0.502  0.2779 -1.7681  1.0809
 2848TIP3   OH229958   3.411   6.210  12.412 -0.5702  0.4912 -0.0951
 2848TIP3    H129959   3.485   6.266  12.389 -0.4689  0.6691  0.6210
 2848TIP3    H229960   3.448   6.143  12.469 -0.7962  0.0302 -0.4798
 2849TIP3   OH229961   0.420   7.004  15.012  0.0576 -0.1702 -0.7254
 2849TIP3    H129962   0.421   6.910  15.029 -0.4652  0.3561  3.1136
 2849TIP3    H229963   0.511   7.025  14.990  0.2685 -1.4611 -1.1957
 2850TIP3   OH229964   5.127   4.275  14.369 -0.5206 -0.2820 -0.0045
 2850TIP3    H129965   5.086   4.345  14.319 -0.6425 -0.2518  0.1353
 2850TIP3    H229966   5.211   4.312  14.397 -1.7444  0.8816  2.4723
 2851TIP3   OH229967   6.949   2.808  11.787 -0.1334 -0.2474 -0.0358
 2851TIP3    H129968   6.964   2.788  11.694  0.5505  0.6409 -0.1301
 2851TIP3    H229969   6.911   2.896  11.786 -2.2923 -1.1104  0.4092
 2852TIP3   OH229970   6.011   2.811   9.558  0.0609 -0.6785 -0.8192
 2852TIP3    H129971   6.090   2.782   9.513  0.7297 -1.2850  0.6657
 2852TIP3    H229972   5.968   2.731   9.587 -0.0614 -0.3123  0.0712
 2853TIP3   OH229973   6.440   2.712  10.833 -0.3780 -0.3700 -0.8167
 2853TIP3    H129974   6.490   2.787  10.865 -0.9273  0.4068 -1.7299
 2853TIP3    H229975   6.506   2.653  10.797  0.0659 -0.3850 -0.0112
 2854TIP3   OH229976   6.408   2.096  10.097  0.3517  0.1632  0.2132
 2854TIP3    H129977   6.395   2.002  10.089 -1.6648  0.4078  0.2096
 2854TIP3    H229978   6.411   2.128  10.006  2.6335 -0.0180  0.1447
 2855TIP3   OH229979   4.001   2.647   0.985 -0.8983  0.1612 -0.2520
 2855TIP3    H129980   4.038   2.736   0.986 -1.6413  0.4757 -0.3721
 2855TIP3    H229981   3.956   2.640   0.901 -1.2767 -0.1490 -0.0278
 2856TIP3   OH229982   4.866   5.811  12.850  0.2136 -0.6490  0.8890
 2856TIP3    H129983   4.944   5.781  12.803 -1.1956  0.5007 -2.4888
 2856TIP3    H229984   4.876   5.906  12.856 -0.8880 -0.4872  0.4229
 2857TIP3   OH229985   1.982   3.416  13.030  0.2238  0.2386 -0.8015
 2857TIP3    H129986   1.952   3.474  13.100 -1.6870  1.0279 -2.1929
 2857TIP3    H229987   2.072   3.394  13.054  0.0953  1.6048  1.1563
 2858TIP3   OH229988   3.900   1.114  11.459  0.6955  0.1056 -0.0863
 2858TIP3    H129989   3.988   1.107  11.496  0.1987 -0.1103  1.0913
 2858TIP3    H229990   3.914   1.111  11.364  1.9013 -0.6543  0.0886
 2859TIP3   OH229991   2.279   3.250  11.585 -0.0604  0.4084 -0.4602
 2859TIP3    H129992   2.286   3.293  11.670  0.4862 -0.0430 -0.2675
 2859TIP3    H229993   2.368   3.219  11.567  0.4426  2.6263 -2.3512
 2860TIP3   OH229994   4.653   6.763  11.202 -0.3506  0.1030 -0.0637
 2860TIP3    H129995   4.600   6.754  11.124  1.8936 -0.5703 -1.6149
 2860TIP3    H229996   4.691   6.676  11.216  3.1031  1.2475 -1.2404
 2861TIP3   OH229997   6.715   3.288  14.059 -0.4240 -0.1925 -0.2177
 2861TIP3    H129998   6.635   3.238  14.044 -0.9184  0.0674  1.3531
 2861TIP3    H229999   6.785   3.223  14.059 -0.9125 -0.7438  0.5779
 2862TIP3   OH230000   5.691   3.157   1.527 -0.0364 -0.0321 -0.7777
 2862TIP3    H130001   5.665   3.244   1.495 -0.7386 -0.4389 -1.3207
 2862TIP3    H230002   5.638   3.096   1.477  1.3774 -0.8615 -1.3393
 2863TIP3   OH230003   2.173   0.505   0.349 -0.5699  0.2949  0.0720
 2863TIP3    H130004   2.168   0.583   0.405 -0.2964  0.2292  0.1890
 2863TIP3    H230005   2.143   0.433   0.404 -2.8407  0.6070 -0.6448
 2864TIP3   OH230006   4.408   0.222  10.004  0.0292  0.4116  0.1831
 2864TIP3    H130007   4.365   0.281   9.942 -1.4098 -0.3047  0.4484
 2864TIP3    H230008   4.411   0.138   9.958 -0.3820  0.0541  0.7948
 2865TIP3   OH230009   4.301   0.521   0.715 -0.5469 -0.2909  0.3283
 2865TIP3    H130010   4.347   0.437   0.722 -1.6201 -1.0534 -1.3784
 2865TIP3    H230011   4.306   0.557   0.803 -0.1356 -2.1751  1.1345
 2866TIP3   OH230012   5.581   5.632   0.661  0.0641  0.6175 -0.1841
 2866TIP3    H130013   5.663   5.681   0.659  0.1239  0.5547  0.3458
 2866TIP3    H230014   5.592   5.571   0.735  0.1055 -0.3852 -1.0010
 2867TIP3   OH230015   3.124   5.835  10.961 -0.2581 -0.8680 -0.2194
 2867TIP3    H130016   3.120   5.841  10.865 -0.6631  0.3014 -0.1416
 2867TIP3    H230017   3.142   5.924  10.990 -0.3124 -1.1797  0.8040
 2868TIP3   OH230018   2.185   6.823  10.656  0.0955 -0.4799 -0.1721
 2868TIP3    H130019   2.220   6.739  10.685  1.7194 -0.0411 -0.7658
 2868TIP3    H230020   2.153   6.806  10.568 -1.6342 -0.9717  0.5050
 2869TIP3   OH230021   1.313   2.755  15.338 -0.1406  0.1480 -0.1153
 2869TIP3    H130022   1.229   2.799  15.348 -0.6578 -0.7283 -0.4931
 2869TIP3    H230023   1.325   2.748  15.243  0.3249  0.2060 -0.0640
 2870TIP3   OH230024   4.434   5.756  14.719  0.3002 -0.3382  0.4294
 2870TIP3    H130025   4.355   5.738  14.771  1.1468  1.8668  2.6374
 2870TIP3    H230026   4.471   5.669  14.704 -0.8737 -1.2104  2.1123
 2871TIP3   OH230027   4.480   2.850  10.796 -0.3081  0.0171 -0.0068
 2871TIP3    H130028   4.477   2.790  10.722  1.1402  0.1546 -0.1923
 2871TIP3    H230029   4.458   2.795  10.872 -1.0138 -0.2861 -0.4152
 2872TIP3   OH230030   5.329   1.675  11.315  0.7311  0.1455  0.5592
 2872TIP3    H130031   5.352   1.586  11.341  0.1272  0.0480  0.7647
 2872TIP3    H230032   5.305   1.668  11.222  1.1394  0.1769  0.4509
 2873TIP3   OH230033   5.226   0.488  12.882 -0.3368 -0.3899  0.4079
 2873TIP3    H130034   5.288   0.543  12.930  1.0942 -1.7470  0.1803
 2873TIP3    H230035   5.239   0.512  12.790  1.6586 -2.3549  0.1143
 2874TIP3   OH230036   4.413   5.606  10.923 -0.2837  0.0713  0.5466
 2874TIP3    H130037   4.372   5.617  10.837 -2.1283  0.3415  1.3933
 2874TIP3    H230038   4.406   5.513  10.941 -1.5925  0.2608  1.1446
 2875TIP3   OH230039   4.538   6.086  14.415 -0.2853 -0.0453  0.0719
 2875TIP3    H130040   4.507   5.996  14.426  2.7439 -1.2510 -0.2118
 2875TIP3    H230041   4.511   6.130  14.496 -0.8618 -1.5077  0.7210
 2876TIP3   OH230042   3.717   2.077  13.497 -0.4427 -0.0466  0.5531
 2876TIP3    H130043   3.704   2.167  13.526 -0.9245 -0.2088  0.8612
 2876TIP3    H230044   3.711   2.081  13.401 -1.1019  0.1515  0.5989
 2877TIP3   OH230045   7.012   3.885  12.690 -0.6577 -0.1091  0.5981
 2877TIP3    H130046   6.946   3.915  12.753 -2.1875 -1.7230 -0.1427
 2877TIP3    H230047   7.047   3.965  12.652 -3.9612  0.8655 -0.7144
 2878TIP3   OH230048   1.565   0.006  12.472 -0.6057 -0.2623  0.3447
 2878TIP3    H130049   1.583   0.077  12.410 -1.9569 -1.3772 -1.4311
 2878TIP3    H230050   1.605   0.035  12.554  1.3626  1.2558 -1.0410
 2879TIP3   OH230051   2.071   2.616  13.592  0.5767 -0.3546  0.3456
 2879TIP3    H130052   2.021   2.668  13.655  0.3976 -0.1739  0.0608
 2879TIP3    H230053   2.036   2.528  13.600 -0.9756  0.0835 -1.0124
 2880TIP3   OH230054   6.185   4.810   9.406 -0.0630 -0.1465  0.3428
 2880TIP3    H130055   6.201   4.737   9.466  0.4347  0.4299  0.9297
 2880TIP3    H230056   6.253   4.873   9.427 -1.1387  0.9670  0.6162
 2881TIP3   OH230057   2.725   4.173  13.683  0.2797 -0.0833  0.9503
 2881TIP3    H130058   2.800   4.114  13.688  2.7628  2.7540  0.2902
 2881TIP3    H230059   2.672   4.138  13.610  1.8851 -1.1971  0.2644
 2882TIP3   OH230060   1.566   3.706  13.035  0.0423  0.6105 -0.2678
 2882TIP3    H130061   1.638   3.712  12.973  0.1103  2.5810 -0.0362
 2882TIP3    H230062   1.604   3.667  13.114  0.4950  0.3173 -0.6282
 2883TIP3   OH230063   1.181   2.323   2.981 -0.2274 -0.1329  0.9429
 2883TIP3    H130064   1.208   2.283   2.899 -0.6563 -0.1621  0.8168
 2883TIP3    H230065   1.195   2.417   2.968 -0.1450 -0.1520  0.8951
 2884TIP3   OH230066   5.221   4.428  13.666  0.1820 -0.0250 -0.5245
 2884TIP3    H130067   5.144   4.444  13.721 -0.3842  0.1308 -1.3459
 2884TIP3    H230068   5.296   4.442  13.724 -0.4079 -1.1535  0.5631
 2885TIP3   OH230069   2.270   4.945  14.802  0.0396 -0.1520 -0.2727
 2885TIP3    H130070   2.320   4.903  14.872  0.9009 -1.2573 -1.4858
 2885TIP3    H230071   2.189   4.973  14.843  0.7872 -0.1784  1.2994
 2886TIP3   OH230072   1.385   2.064  11.326  0.3823  0.3035  0.0750
 2886TIP3    H130073   1.454   1.997  11.325  1.2793  1.1834 -1.9032
 2886TIP3    H230074   1.324   2.037  11.257  0.0648  0.8495  0.1365
 2887TIP3   OH230075   5.574   0.212  12.102 -0.1033 -0.0952  0.0323
 2887TIP3    H130076   5.533   0.291  12.066 -1.0779  0.3072  1.9239
 2887TIP3    H230077   5.533   0.200  12.187 -0.1218 -2.7976 -0.2820
 2888TIP3   OH230078   0.417   3.878  11.000 -0.1721  0.7999  0.6698
 2888TIP3    H130079   0.349   3.932  11.040 -0.1870  2.0416 -0.9433
 2888TIP3    H230080   0.474   3.940  10.954  0.4479 -0.4575 -0.3431
 2889TIP3   OH230081   4.817   2.515  10.372  0.3028 -0.4767 -0.0751
 2889TIP3    H130082   4.900   2.475  10.398  0.6381  0.7840  0.8637
 2889TIP3    H230083   4.759   2.501  10.447 -0.0816 -0.5976 -0.3894
 2890TIP3   OH230084   2.109   0.891  10.285  0.2254  0.1339  0.1082
 2890TIP3    H130085   2.023   0.916  10.319 -0.2701 -0.5280 -0.6163
 2890TIP3    H230086   2.095   0.877  10.192  1.2087  0.3648 -0.0827
 2891TIP3   OH230087   2.474   0.778  14.055 -0.2910  0.5414  0.0853
 2891TIP3    H130088   2.545   0.841  14.045 -0.6467  0.9605  0.1670
 2891TIP3    H230089   2.426   0.782  13.972  1.1195 -1.4416 -0.9058
 2892TIP3   OH230090   3.644   2.617   0.568 -0.4650  0.7918  0.1643
 2892TIP3    H130091   3.607   2.589   0.652  0.0663  1.6970  0.7100
 2892TIP3    H230092   3.570   2.611   0.507 -0.2518 -2.5181  0.0256
 2893TIP3   OH230093   3.016   2.542   2.625 -0.1266 -0.6082 -0.0448
 2893TIP3    H130094   2.972   2.493   2.694  0.2299 -0.1309  0.5298
 2893TIP3    H230095   3.081   2.595   2.671  0.2667 -0.4486 -0.7689
 2894TIP3   OH230096   2.119   6.026  12.332 -0.0951  0.5176  0.4290
 2894TIP3    H130097   2.190   6.066  12.382 -0.5983  2.3320 -0.2493
 2894TIP3    H230098   2.160   5.953  12.285  0.8926  0.3542  1.4963
 2895TIP3   OH230099   4.654   6.621  12.139 -0.1294 -0.4386 -0.3184
 2895TIP3    H130100   4.721   6.629  12.071 -0.9919 -0.3593 -1.1829
 2895TIP3    H230101   4.587   6.684  12.113 -0.6712 -0.7176  0.3792
 2896TIP3   OH230102   4.309   5.273  10.700 -0.2825  0.2976  0.7951
 2896TIP3    H130103   4.251   5.329  10.648 -0.3821 -0.5525 -0.0485
 2896TIP3    H230104   4.286   5.184  10.673  1.1639 -0.0741  0.7104
 2897TIP3   OH230105   4.892   0.284   3.266  0.3062  0.4787 -0.0154
 2897TIP3    H130106   4.874   0.305   3.357  2.5178  0.2382  0.5276
 2897TIP3    H230107   4.939   0.360   3.232  1.5702 -0.3793 -0.2533
 2898TIP3   OH230108   4.561   1.966  14.392  0.1000 -0.0710 -0.2938
 2898TIP3    H130109   4.582   1.872  14.396 -1.3422 -0.4589 -1.0289
 2898TIP3    H230110   4.632   2.004  14.340  1.5658 -0.4498  1.3378
 2899TIP3   OH230111   3.382   0.766  12.510 -0.4954  0.7546 -0.0590
 2899TIP3    H130112   3.354   0.832  12.573 -1.2455  1.3413 -0.9886
 2899TIP3    H230113   3.319   0.772  12.439  0.2064 -0.0515 -0.7686
 2900TIP3   OH230114   4.515   0.420   2.570 -0.2644 -0.1155 -0.0149
 2900TIP3    H130115   4.492   0.329   2.555 -0.9149  0.3012 -1.6832
 2900TIP3    H230116   4.604   0.417   2.607 -0.3903 -1.4142  0.2094
 2901TIP3   OH230117   5.869   1.541  12.917  0.6187  0.1326 -0.6552
 2901TIP3    H130118   5.835   1.616  12.966 -1.0501 -1.3011  0.5466
 2901TIP3    H230119   5.963   1.556  12.912  0.4203  1.9210  0.1881
 2902TIP3   OH230120   2.450   3.422  14.561  0.1875 -0.3724  0.3494
 2902TIP3    H130121   2.500   3.407  14.480 -1.7254 -0.1031 -0.9395
 2902TIP3    H230122   2.410   3.508  14.549 -0.5636 -0.5617  1.3725
 2903TIP3   OH230123   0.320   5.905  12.427  0.4295 -0.0854 -0.0383
 2903TIP3    H130124   0.254   5.849  12.386 -0.1360  1.0017 -0.6813
 2903TIP3    H230125   0.292   5.994  12.404 -0.3130  0.6666  3.2476
 2904TIP3   OH230126   3.034   7.084  11.731  0.1913 -0.0559 -0.0761
 2904TIP3    H130127   3.093   7.159  11.725 -0.1045  0.1821 -0.0417
 2904TIP3    H230128   2.972   7.107  11.801  0.7175 -0.7657  0.6535
 2905TIP3   OH230129   0.114   4.996   9.712 -0.4135  0.1492  0.6918
 2905TIP3    H130130   0.042   4.938   9.736  0.7278 -1.9979 -0.7665
 2905TIP3    H230131   0.084   5.038   9.631 -0.1640 -0.5778  0.2062
 2906TIP3   OH230132   3.644   0.843  13.265 -0.4126  0.0956  0.2007
 2906TIP3    H130133   3.736   0.823  13.282 -0.4318  0.9246  1.4467
 2906TIP3    H230134   3.625   0.801  13.182  1.0153 -0.3315  0.0642
 2907TIP3   OH230135   4.742   4.064  13.734  0.2107  0.2464 -0.0826
 2907TIP3    H130136   4.830   4.053  13.698 -0.3843  1.4049 -2.0394
 2907TIP3    H230137   4.755   4.120  13.811  1.0373  2.3006 -1.5917
 2908TIP3   OH230138   5.324   1.905  13.121  0.4341 -0.3744 -0.0224
 2908TIP3    H130139   5.233   1.915  13.149 -0.1173  0.2022 -1.8538
 2908TIP3    H230140   5.350   1.820  13.155 -0.6556 -0.3845  0.8663
 2909TIP3   OH230141   0.862   4.305  11.523 -0.4744 -0.1985 -0.3019
 2909TIP3    H130142   0.808   4.339  11.451 -3.6658 -2.1421  0.9473
 2909TIP3    H230143   0.918   4.240  11.482  1.3244  2.1061 -1.7076
 2910TIP3   OH230144   0.516   5.181  11.016  0.2537 -0.1291  0.1031
 2910TIP3    H130145   0.527   5.144  11.104 -0.1820  2.3371  1.2878
 2910TIP3    H230146   0.435   5.141  10.983  0.1243 -0.6898  1.0643
 2911TIP3   OH230147   3.232   4.290  11.769  0.2237 -0.4881  0.0711
 2911TIP3    H130148   3.237   4.348  11.844 -0.9222  0.7264 -0.7469
 2911TIP3    H230149   3.152   4.316  11.723  0.3844 -1.8324 -1.0519
 2912TIP3   OH230150   5.502   0.712  11.504  0.4189 -0.1514  0.3712
 2912TIP3    H130151   5.458   0.627  11.498  1.4910 -0.6481 -1.0635
 2912TIP3    H230152   5.541   0.713  11.591  0.6756 -1.2782  0.2770
 2913TIP3   OH230153   5.921   3.036  11.138 -0.5005 -0.6071  0.0566
 2913TIP3    H130154   5.835   3.079  11.136 -1.4415 -2.3824  0.4643
 2913TIP3    H230155   5.970   3.076  11.065 -2.4635 -1.1612 -1.6422
 2914TIP3   OH230156   1.726   5.874  12.326  0.1275 -0.2102 -0.5376
 2914TIP3    H130157   1.667   5.839  12.393 -1.6225  1.1323 -1.2947
 2914TIP3    H230158   1.810   5.831  12.343 -0.5310 -0.7236  1.8302
 2915TIP3   OH230159   4.505   2.363  14.341  0.4765 -0.6074  0.1056
 2915TIP3    H130160   4.410   2.355  14.346  0.3352  0.9978  0.6357
 2915TIP3    H230161   4.535   2.277  14.312 -1.3481 -0.3816 -2.8421
 2916TIP3   OH230162   3.842   4.135  12.459 -0.5544  0.9282  0.1507
 2916TIP3    H130163   3.913   4.199  12.449 -0.6664  0.9437 -0.5970
 2916TIP3    H230164   3.851   4.104  12.549  1.9272 -0.8457 -0.5869
 2917TIP3   OH230165   7.068   0.412   3.399 -0.8671 -0.3850 -0.0200
 2917TIP3    H130166   7.089   0.330   3.354 -0.3583 -1.0177  1.3351
 2917TIP3    H230167   7.150   0.437   3.442 -1.6294 -0.3915  1.4644
 2918TIP3   OH230168   0.498   4.812  11.096 -0.4508 -0.1689  0.2029
 2918TIP3    H130169   0.406   4.836  11.085 -0.1221  0.7682 -0.6398
 2918TIP3    H230170   0.523   4.849  11.181 -0.4536  0.9144 -0.2497
 2919TIP3   OH230171   1.766   7.135  11.656  0.4878  0.1894 -0.0223
 2919TIP3    H130172   1.710   7.135  11.734 -1.2180  0.4863 -1.1816
 2919TIP3    H230173   1.763   7.225  11.625  0.9582  0.0242 -0.5583
 2920TIP3   OH230174   3.954   2.501   1.862 -0.9451  0.7247 -0.1828
 2920TIP3    H130175   3.885   2.482   1.925  0.1030 -0.0213  0.7784
 2920TIP3    H230176   3.907   2.525   1.782 -2.3677 -1.4140 -0.0919
 2921TIP3   OH230177   5.841   1.856  14.263  0.4114 -0.1392  0.2242
 2921TIP3    H130178   5.748   1.871  14.249  0.5397  0.6704  0.1804
 2921TIP3    H230179   5.859   1.773  14.220 -0.6056 -1.1147  1.5942
 2922TIP3   OH230180   0.711   5.486  12.562  0.6252  0.2331  0.4027
 2922TIP3    H130181   0.653   5.502  12.487  1.6158  0.4176 -0.3452
 2922TIP3    H230182   0.664   5.523  12.637 -0.1786  0.4523 -0.1933
 2923TIP3   OH230183   5.062   5.928   2.690  0.0280  0.0770 -0.2746
 2923TIP3    H130184   5.139   5.954   2.742 -2.1633  3.3465  1.7035
 2923TIP3    H230185   5.054   5.997   2.625 -2.1749  0.8523  0.7321
 2924TIP3   OH230186   2.058   6.286  14.178  0.4903 -0.0595 -0.6842
 2924TIP3    H130187   2.017   6.370  14.157 -2.4841 -0.5915  2.1382
 2924TIP3    H230188   2.128   6.308  14.240 -1.5703  0.3844  1.6667
 2925TIP3   OH230189   5.926   6.270  11.086  0.1506  0.2698  0.2348
 2925TIP3    H130190   5.929   6.216  11.007  1.7651  0.3352  0.2095
 2925TIP3    H230191   6.018   6.289  11.105 -0.2407  0.7267  1.8128
 2926TIP3   OH230192   2.246   5.339   0.972  0.3847 -0.0494  0.3286
 2926TIP3    H130193   2.241   5.310   0.882  0.1711 -0.0171  0.3306
 2926TIP3    H230194   2.187   5.281   1.020  1.3041 -0.7744  0.6320
 2927TIP3   OH230195   1.028   4.427  14.375 -1.2004 -0.0710 -0.0447
 2927TIP3    H130196   1.004   4.401  14.463 -0.1944  0.6952  0.4736
 2927TIP3    H230197   0.988   4.513  14.362  0.8606  1.0898  0.7232
 2928TIP3   OH230198   4.669   1.006   3.618  0.3514  0.3457  0.0360
 2928TIP3    H130199   4.624   1.053   3.688 -0.5030  0.2726 -0.4485
 2928TIP3    H230200   4.756   0.987   3.654  1.1212  3.1370 -0.0718
 2929TIP3   OH230201   6.329   3.203   1.735  0.2405 -0.5078 -0.9809
 2929TIP3    H130202   6.367   3.185   1.649 -0.5467 -1.0417 -1.2259
 2929TIP3    H230203   6.240   3.168   1.730 -0.5652  1.3680 -0.6837
 2930TIP3   OH230204   4.224   2.443   4.070  0.5267 -0.5958 -0.0657
 2930TIP3    H130205   4.301   2.473   4.020  0.3857 -0.7417 -0.3723
 2930TIP3    H230206   4.222   2.349   4.055  1.0615 -0.7957  1.0276
 2931TIP3   OH230207   1.358   0.954   9.636 -0.2462  0.2241 -0.6984
 2931TIP3    H130208   1.353   1.021   9.568  0.2307  0.9932  0.0102
 2931TIP3    H230209   1.441   0.972   9.681 -0.0543 -0.9117 -0.5647
 2932TIP3   OH230210   2.434   2.772  10.738  0.2348  0.7233  0.6201
 2932TIP3    H130211   2.338   2.776  10.737  0.2260  1.0412 -1.4466
 2932TIP3    H230212   2.455   2.686  10.702  0.7076  1.3360 -0.6309
 2933TIP3   OH230213   1.310   2.315  13.721 -0.6541  0.0531  0.2167
 2933TIP3    H130214   1.304   2.301  13.626 -1.2250  1.9941 -0.0896
 2933TIP3    H230215   1.221   2.340  13.747 -0.7763 -1.5762  1.5090
 2934TIP3   OH230216   1.329   3.319  13.362 -0.2128 -0.1809  0.5402
 2934TIP3    H130217   1.290   3.265  13.430  0.8676 -0.0753  1.2747
 2934TIP3    H230218   1.417   3.282  13.349  0.4481  1.2023  0.8595
 2935TIP3   OH230219   2.834   6.162   3.476  0.4031 -0.1447 -0.2710
 2935TIP3    H130220   2.883   6.147   3.395  0.6431 -0.6798 -0.0373
 2935TIP3    H230221   2.879   6.235   3.518  1.5771 -1.1991  0.3680
 2936TIP3   OH230222   7.058   6.312  13.891  0.0595 -0.3938 -0.1434
 2936TIP3    H130223   7.064   6.315  13.987  0.7525 -2.0542 -0.1049
 2936TIP3    H230224   7.104   6.391  13.862  0.2392 -0.1054  0.8775
 2937TIP3   OH230225   0.976   0.951  13.092 -0.9030 -0.0750 -0.4478
 2937TIP3    H130226   0.978   1.041  13.124 -0.0976 -0.5152  0.8054
 2937TIP3    H230227   0.895   0.915  13.129  0.2993 -0.7502  1.7019
 2938TIP3   OH230228   5.102   6.284   4.461 -0.2298 -0.1432 -0.5133
 2938TIP3    H130229   5.020   6.304   4.507 -0.3816  0.9721 -1.2418
 2938TIP3    H230230   5.096   6.332   4.378  1.9591  1.5163  0.1810
 2939TIP3   OH230231   3.996   0.530  12.504 -0.3253  0.5663 -0.1075
 2939TIP3    H130232   3.987   0.449  12.555  0.0571  0.1135 -0.7391
 2939TIP3    H230233   4.090   0.537  12.488 -0.5593 -0.3241 -2.3232
 2940TIP3   OH230234   0.811   3.290  15.358  0.0010 -0.5601 -0.4256
 2940TIP3    H130235   0.763   3.364  15.396  1.4307 -0.2948  0.9727
 2940TIP3    H230236   0.756   3.214  15.376 -0.2197 -0.1773  0.5898
 2941TIP3   OH230237   6.045   0.616  10.465  0.3417  0.0364 -0.0430
 2941TIP3    H130238   6.090   0.532  10.455  0.0933 -0.1306  0.2197
 2941TIP3    H230239   6.002   0.610  10.550  0.8393  0.6754  0.2662
 2942TIP3   OH230240   5.187   3.216  14.364 -0.2814 -0.0047  0.2023
 2942TIP3    H130241   5.256   3.231  14.429 -2.3212 -1.2222  2.8718
 2942TIP3    H230242   5.146   3.301  14.352  0.8438  0.4696 -0.4421
 2943TIP3   OH230243   5.003   5.481   9.930 -0.6657 -0.4298  0.0753
 2943TIP3    H130244   4.920   5.432   9.928 -0.4514 -0.7969 -1.0983
 2943TIP3    H230245   4.979   5.568   9.897 -0.7187 -0.3152  0.4209
 2944TIP3   OH230246   2.494   3.108  13.663 -0.2705  0.7138  0.0776
 2944TIP3    H130247   2.506   3.126  13.757  0.2112  0.9328 -0.0222
 2944TIP3    H230248   2.578   3.072  13.635  0.3609  2.6714 -0.7288
 2945TIP3   OH230249   6.424   0.499   2.247 -0.6093 -0.1456 -0.0352
 2945TIP3    H130250   6.411   0.568   2.181  2.1704 -0.4588 -1.0389
 2945TIP3    H230251   6.518   0.484   2.248 -0.5770 -0.6308  3.6177
 2946TIP3   OH230252   2.481   0.131   2.745 -0.6632  0.2511  0.3803
 2946TIP3    H130253   2.535   0.097   2.673 -0.6725 -0.6205  0.7653
 2946TIP3    H230254   2.539   0.191   2.792 -0.3063  0.0050  0.2665
 2947TIP3   OH230255   2.492   6.190  10.483 -0.3019 -0.4254  0.4794
 2947TIP3    H130256   2.580   6.177  10.448  0.0817 -0.9640  1.6091
 2947TIP3    H230257   2.488   6.136  10.561 -0.8068  1.4456  1.8268
 2948TIP3   OH230258   5.066   1.440  12.388  1.2101  0.2953 -0.7131
 2948TIP3    H130259   5.031   1.473  12.305  1.0605 -1.0417 -1.2060
 2948TIP3    H230260   5.146   1.395  12.364  0.4029 -1.4080 -0.3798
 2949TIP3   OH230261   2.334   2.219  11.507 -0.4089  0.1170  0.5561
 2949TIP3    H130262   2.387   2.204  11.585  1.0056 -0.9069 -0.5585
 2949TIP3    H230263   2.364   2.302  11.472  1.0010 -0.7636 -0.4331
 2950TIP3   OH230264   6.198   0.097  10.093 -0.6514 -0.4555 -0.5291
 2950TIP3    H130265   6.105   0.121  10.090 -0.4376  0.6596  0.7194
 2950TIP3    H230266   6.240   0.158  10.032 -0.4126  0.9064  0.9347
 2951TIP3   OH230267   0.395   3.000  10.679 -0.7195 -0.5220 -0.0221
 2951TIP3    H130268   0.436   2.969  10.759  0.8577 -1.6542 -1.2123
 2951TIP3    H230269   0.334   3.068  10.708  0.5746 -0.1459  2.0176
 2952TIP3   OH230270   5.542   0.982   9.371 -0.2270  0.6971 -0.1123
 2952TIP3    H130271   5.602   0.907   9.379 -0.7226  0.4489  1.8260
 2952TIP3    H230272   5.468   0.949   9.321 -1.0630 -0.5820  1.8540
 2953TIP3   OH230273   0.746   1.652  10.471 -0.1033 -0.1018 -0.1884
 2953TIP3    H130274   0.725   1.568  10.430 -0.0782 -0.8600  1.3035
 2953TIP3    H230275   0.761   1.631  10.563 -2.6175  1.8834  0.7937
 2954TIP3   OH230276   0.382   2.054  14.981 -0.2204  0.2125 -0.2969
 2954TIP3    H130277   0.399   2.144  15.008 -1.1935  1.9071 -4.4547
 2954TIP3    H230278   0.297   2.059  14.937  0.4245 -2.3641 -2.0129
 2955TIP3   OH230279   0.537   1.805   0.618 -0.2357 -0.0372 -0.7198
 2955TIP3    H130280   0.469   1.845   0.673 -2.3351 -1.7242 -1.9150
 2955TIP3    H230281   0.567   1.877   0.563  1.5147  1.5594  2.0704
 2956TIP3   OH230282   1.839   3.049   2.339  0.7996 -0.4817  0.4209
 2956TIP3    H130283   1.886   3.062   2.256  3.0202 -1.1575  1.4848
 2956TIP3    H230284   1.885   3.105   2.401 -1.8850  1.3246  0.9370
 2957TIP3   OH230285   3.724   0.440   0.693  0.2102 -0.7867  0.1227
 2957TIP3    H130286   3.782   0.510   0.722 -0.3889 -0.6066  0.9172
 2957TIP3    H230287   3.647   0.447   0.750 -0.1236 -1.7039 -0.1959
 2958TIP3   OH230288   1.260   6.844  13.427  0.2052 -0.2559 -0.6132
 2958TIP3    H130289   1.173   6.867  13.458 -0.9724 -0.4696 -3.4772
 2958TIP3    H230290   1.286   6.769  13.481 -1.3758 -0.2316  0.2303
 2959TIP3   OH230291   5.106   5.200  14.046  0.3231 -0.8172 -0.3899
 2959TIP3    H130292   5.143   5.269  14.100 -1.3933 -0.5704  0.5545
 2959TIP3    H230293   5.131   5.119  14.089  1.0134 -0.7308 -0.6170
 2960TIP3   OH230294   3.725   1.643  11.248  0.0018  0.3007 -0.0222
 2960TIP3    H130295   3.761   1.731  11.240  0.8395  0.0561  0.8479
 2960TIP3    H230296   3.781   1.589  11.193 -1.4397  0.5232 -1.8020
 2961TIP3   OH230297   0.078   5.964  11.795 -0.4872 -1.0664 -0.6235
 2961TIP3    H130298   0.150   6.026  11.805 -1.7489  0.8275 -2.6275
 2961TIP3    H230299   0.105   5.908  11.722 -0.9630 -0.4992 -1.2306
 2962TIP3   OH230300   5.007   5.196  14.642 -0.2605  0.2984 -0.0615
 2962TIP3    H130301   5.004   5.250  14.563 -0.8067 -0.1840 -0.3727
 2962TIP3    H230302   5.033   5.110  14.610 -2.2122 -0.3617  0.0184
 2963TIP3   OH230303   0.931   5.739   1.782  0.1637  0.3684  0.2550
 2963TIP3    H130304   0.874   5.796   1.731 -0.6256  0.4646  1.2285
 2963TIP3    H230305   1.019   5.773   1.766 -0.2440  1.5340  0.4209
 2964TIP3   OH230306   6.292   4.885  10.456  0.0558  0.4631 -0.3509
 2964TIP3    H130307   6.237   4.910  10.531 -1.4157  0.1617 -1.2947
 2964TIP3    H230308   6.255   4.934  10.382  0.3690 -0.5725 -1.2108
 2965TIP3   OH230309   0.134   2.667  10.236 -0.1359  0.3034  0.6962
 2965TIP3    H130310   0.124   2.572  10.224 -0.2414  0.4699 -0.6650
 2965TIP3    H230311   0.124   2.703  10.148  1.2581  1.4634  0.9760
 2966TIP3   OH230312   5.034   1.138  14.719  0.3204 -0.1571  0.4064
 2966TIP3    H130313   5.100   1.194  14.759  2.1294 -1.8170 -0.0839
 2966TIP3    H230314   5.037   1.158  14.626  0.0991 -0.2202  0.3842
 2967TIP3   OH230315   1.264   3.063  10.737 -0.7855  0.0073 -0.0535
 2967TIP3    H130316   1.297   3.109  10.660 -0.9694 -1.5694 -1.0974
 2967TIP3    H230317   1.342   3.025  10.778 -0.6022  1.3579  0.9450
 2968TIP3   OH230318   1.544   1.924   4.615  0.2135  0.5933  0.2534
 2968TIP3    H130319   1.632   1.958   4.599  0.0954  0.8260  0.0960
 2968TIP3    H230320   1.495   1.999   4.649  0.4371  0.1315  1.6474
 2969TIP3   OH230321   1.244   2.089  12.993 -0.0988  0.5453  0.0217
 2969TIP3    H130322   1.197   2.083  13.076 -0.9058 -1.3589 -0.4992
 2969TIP3    H230323   1.248   2.182  12.974  0.3935  1.0549  2.3378
 2970TIP3   OH230324   0.968   1.679  10.923 -0.2060  0.6280  0.0117
 2970TIP3    H130325   1.045   1.683  10.867 -0.8473  2.6002 -0.8105
 2970TIP3    H230326   0.997   1.716  11.007 -0.0156  0.4635  0.0191
 2971TIP3   OH230327   1.220   5.313  11.958 -0.0004 -0.2981  0.0000
 2971TIP3    H130328   1.212   5.391  11.904 -1.3718 -1.1671 -1.1405
 2971TIP3    H230329   1.239   5.345  12.046  2.0974  1.1732 -0.9308
 2972TIP3   OH230330   5.950   5.664  13.504 -0.0386 -1.1521 -0.0804
 2972TIP3    H130331   6.023   5.639  13.561 -0.0726 -1.7495 -0.2854
 2972TIP3    H230332   5.974   5.750  13.471  1.5786 -2.1470 -1.7310
 2973TIP3   OH230333   6.066   1.226  12.721  0.1879  0.3280  0.5430
 2973TIP3    H130334   6.103   1.141  12.746  0.6786  0.2447 -0.4155
 2973TIP3    H230335   6.024   1.211  12.637 -0.4548  0.8538  0.7559
 2974TIP3   OH230336   5.178   0.298  14.922 -0.2217 -0.1048 -0.3874
 2974TIP3    H130337   5.151   0.281  15.012  2.3530  1.2660  0.7356
 2974TIP3    H230338   5.104   0.268  14.869 -1.0728 -2.6796  2.0342
 2975TIP3   OH230339   0.450   1.927  10.757 -0.2651  0.3204  0.5448
 2975TIP3    H130340   0.366   1.881  10.754  0.1425 -0.3976 -0.1222
 2975TIP3    H230341   0.489   1.900  10.840  0.4739 -1.4947 -0.3320
 2976TIP3   OH230342   3.307   6.044  14.337 -0.5786  0.1089 -0.1663
 2976TIP3    H130343   3.367   6.114  14.308 -1.8876  1.3722  0.0684
 2976TIP3    H230344   3.274   6.075  14.421 -1.3121 -0.7199 -0.1405
 2977TIP3   OH230345   1.901   3.262  11.397  0.3523  0.2425  0.4320
 2977TIP3    H130346   1.991   3.287  11.374 -0.2012  0.8221 -1.2483
 2977TIP3    H230347   1.891   3.292  11.487  2.3425 -1.2859  1.2403
 2978TIP3   OH230348   5.325   2.113  11.624 -0.3184 -0.6200  0.1162
 2978TIP3    H130349   5.354   2.074  11.542  1.2643 -1.3524  0.9858
 2978TIP3    H230350   5.290   2.040  11.674 -1.6276 -0.1128 -0.0251
 2979TIP3   OH230351   6.776   5.393  14.058 -0.1206 -0.1972  0.0921
 2979TIP3    H130352   6.803   5.463  13.999  1.2114  0.1564  1.0735
 2979TIP3    H230353   6.847   5.329  14.054 -0.5156 -0.6698  0.5173
 2980TIP3   OH230354   2.637   3.780  15.411  0.0787 -0.2947 -0.6090
 2980TIP3    H130355   2.550   3.741  15.406 -0.3296  0.6953 -2.2099
 2980TIP3    H230356   2.640   3.822  15.497 -1.3823  0.4118 -0.8727
 2981TIP3   OH230357   3.381   6.539  11.699 -0.0018 -0.2672 -0.1747
 2981TIP3    H130358   3.325   6.610  11.668  1.5879  1.1969  0.1427
 2981TIP3    H230359   3.414   6.570  11.783  3.9044  0.5569 -1.7802
 2982TIP3   OH230360   6.625   7.125   0.291 -0.0856 -0.4495 -0.0387
 2982TIP3    H130361   6.626   7.169   0.376  2.1093  0.8550 -0.6489
 2982TIP3    H230362   6.548   7.161   0.247 -1.3646 -1.2844  1.4101
 2983TIP3   OH230363   5.375   1.675   3.609  0.0746 -0.8491  0.1919
 2983TIP3    H130364   5.416   1.730   3.542 -1.8070  0.0950 -0.2387
 2983TIP3    H230365   5.368   1.732   3.686 -2.3698 -0.2166 -0.4193
 2984TIP3   OH230366   0.583   5.600  12.088 -0.3543  0.0653 -0.4577
 2984TIP3    H130367   0.574   5.606  12.183 -1.1591 -1.2459 -0.4198
 2984TIP3    H230368   0.566   5.689  12.056 -1.9518  0.1413  0.5176
 2985TIP3   OH230369   1.631   3.869  12.543  0.3559  0.3416  0.5345
 2985TIP3    H130370   1.699   3.860  12.610  1.7655 -3.0889 -1.0658
 2985TIP3    H230371   1.572   3.795  12.558 -1.5084  1.7041  0.2283
 2986TIP3   OH230372   5.037   7.080  13.519 -0.4224  0.1253  0.2057
 2986TIP3    H130373   5.128   7.071  13.491 -0.4037  2.1922 -0.5796
 2986TIP3    H230374   4.995   7.000  13.489  0.3011  0.8277 -3.1155
 2987TIP3   OH230375   6.596   0.198  14.563 -0.4629 -0.0058  0.2254
 2987TIP3    H130376   6.597   0.102  14.563 -0.7124 -0.0148 -0.6888
 2987TIP3    H230377   6.664   0.222  14.500 -0.5380  0.4173  0.3046
 2988TIP3   OH230378   3.353   1.715   1.188  0.1177  0.1756  0.1370
 2988TIP3    H130379   3.420   1.784   1.185 -1.4451  1.7301 -2.5090
 2988TIP3    H230380   3.306   1.731   1.270  0.3836  1.6753  0.0252
 2989TIP3   OH230381   4.226   3.172   5.054  0.2446 -0.0699  0.4882
 2989TIP3    H130382   4.208   3.086   5.091 -1.4792 -0.5595 -1.3100
 2989TIP3    H230383   4.142   3.218   5.058  1.3011  1.8806  2.1250
 2990TIP3   OH230384   5.361   0.921   2.436 -0.1131  0.4149  0.3727
 2990TIP3    H130385   5.420   0.887   2.369 -0.3049  2.4841 -0.9437
 2990TIP3    H230386   5.284   0.864   2.432  0.2170  0.0205 -0.6283
 2991TIP3   OH230387   0.500   0.154   9.593  0.1323  0.0142  0.7363
 2991TIP3    H130388   0.521   0.143   9.500 -1.2234 -0.2158  0.4326
 2991TIP3    H230389   0.426   0.215   9.594 -0.2598 -0.4598  1.6223
 2992TIP3   OH230390   1.939   3.321  12.481  0.0727 -0.4448  0.3034
 2992TIP3    H130391   1.976   3.409  12.480  1.8353 -1.1140  1.5519
 2992TIP3    H230392   1.917   3.305  12.572 -2.9243 -0.3164 -0.2871
 2993TIP3   OH230393   1.826   0.523   9.934 -0.7710 -0.6896 -0.3555
 2993TIP3    H130394   1.809   0.563   9.849 -1.9201  0.3843  0.3577
 2993TIP3    H230395   1.857   0.594   9.990  0.9764 -1.5712 -0.1102
 2994TIP3   OH230396   6.955   6.341  14.453  0.3296 -0.2243  0.6241
 2994TIP3    H130397   7.019   6.412  14.464 -0.5875  0.8153 -0.4671
 2994TIP3    H230398   6.970   6.310  14.363 -0.9971  0.3643  0.1766
 2995TIP3   OH230399   5.331   1.272  12.052 -0.3905 -0.3163  0.0394
 2995TIP3    H130400   5.280   1.341  12.009 -2.2999 -0.3959  1.9650
 2995TIP3    H230401   5.390   1.239  11.985 -0.5771  2.0664 -1.4019
 2996TIP3   OH230402   0.327   4.083  10.452  0.2761  0.5954  0.2259
 2996TIP3    H130403   0.311   4.080  10.547  2.9272 -1.1471  0.7541
 2996TIP3    H230404   0.359   3.995  10.431  0.7594  1.2575 -2.0874
 2997TIP3   OH230405   2.222   2.321  13.887  0.0131  0.2336  0.1318
 2997TIP3    H130406   2.217   2.314  13.982 -0.2173 -1.8457  0.0082
 2997TIP3    H230407   2.257   2.409  13.872 -2.0038  1.4656  2.0394
 2998TIP3   OH230408   4.615   2.467  10.564 -0.5497 -0.0318 -0.1015
 2998TIP3    H130409   4.563   2.499  10.638  0.0902  1.1438 -0.1303
 2998TIP3    H230410   4.583   2.379  10.548 -2.5249  0.6286 -0.0941
 2999TIP3   OH230411   1.209   3.654   9.809  0.2628  0.4762  0.3357
 2999TIP3    H130412   1.284   3.637   9.752 -0.6752 -0.5568 -0.6302
 2999TIP3    H230413   1.135   3.662   9.750 -0.6596 -0.1115  1.3750
 3000TIP3   OH230414   5.827   6.788   9.370  0.0251 -0.2044 -0.2402
 3000TIP3    H130415   5.887   6.783   9.445 -2.8883 -0.6248  2.2648
 3000TIP3    H230416   5.804   6.881   9.365 -1.5064 -0.4695  0.9821
 3001TIP3   OH230417   4.315   3.632  14.812 -0.2504 -0.0906 -0.4288
 3001TIP3    H130418   4.282   3.721  14.823 -0.3555 -0.2472  0.7258
 3001TIP3    H230419   4.400   3.642  14.771  0.5516  0.6856  1.3328
 3002TIP3   OH230420   4.720   6.000  13.927 -0.1185 -0.1265 -0.1987
 3002TIP3    H130421   4.790   6.049  13.970  0.3303 -2.6356  2.2268
 3002TIP3    H230422   4.644   6.058  13.931  0.4536  0.5909  2.2419
 3003TIP3   OH230423   0.505   6.565   3.332 -0.0219 -0.4828 -0.1370
 3003TIP3    H130424   0.506   6.507   3.408 -2.1689 -0.1981  0.1477
 3003TIP3    H230425   0.579   6.535   3.278 -0.4695 -2.8288  0.4653
 3004TIP3   OH230426   0.272   0.638  13.317  0.2866  0.7886  0.5590
 3004TIP3    H130427   0.199   0.699  13.324  0.0871  0.5403  0.7165
 3004TIP3    H230428   0.249   0.567  13.377  0.4245  0.4698  0.2406
 3005TIP3   OH230429   4.404   2.811  10.514 -0.4270 -0.4081 -0.3698
 3005TIP3    H130430   4.436   2.730  10.474 -0.3320 -0.9502  0.7381
 3005TIP3    H230431   4.312   2.793  10.534  0.0473 -0.9733  1.5524
 3006TIP3   OH230432   2.108   3.002  13.491 -0.0599 -0.0318 -0.0297
 3006TIP3    H130433   2.192   2.998  13.446 -0.7554  1.3205 -1.5362
 3006TIP3    H230434   2.049   2.948  13.438  0.2077 -2.5651  2.0403
 3007TIP3   OH230435   1.227   0.732  11.852 -0.1496 -0.1995  0.8244
 3007TIP3    H130436   1.208   0.775  11.768  1.6075 -2.6184 -0.9270
 3007TIP3    H230437   1.140   0.714  11.889 -1.0686 -1.0004 -1.5371
 3008TIP3   OH230438   3.173   0.461   9.932  0.1778  0.3179  0.5188
 3008TIP3    H130439   3.198   0.533   9.990 -0.7236  1.7648 -0.8162
 3008TIP3    H230440   3.253   0.440   9.884  0.7068 -0.3018  1.6311
 3009TIP3   OH230441   3.297   2.251  11.229 -0.4007 -0.2190  0.9140
 3009TIP3    H130442   3.246   2.236  11.150  1.4647  0.1084 -0.4429
 3009TIP3    H230443   3.294   2.168  11.277 -1.1419 -0.5826  0.2437
 3010TIP3   OH230444   0.744   1.541  10.130 -0.0205  0.3238 -0.9269
 3010TIP3    H130445   0.650   1.535  10.110  0.1248 -0.0857 -1.5192
 3010TIP3    H230446   0.761   1.463  10.184 -0.3813  1.3487  0.7488
 3011TIP3   OH230447   6.756   2.142   0.071  0.3896  0.0069 -0.3430
 3011TIP3    H130448   6.718   2.061   0.038  0.3088 -0.0296 -0.1611
 3011TIP3    H230449   6.737   2.141   0.165 -4.5851  2.8126 -0.9397
 3012TIP3   OH230450   4.363   2.404  10.325  0.3039 -0.2249 -0.5204
 3012TIP3    H130451   4.348   2.342  10.254 -1.2337 -0.7029  0.1820
 3012TIP3    H230452   4.329   2.361  10.403  1.5111  0.4889  0.4440
 3013TIP3   OH230453   5.426   6.594   0.168  0.0132  0.1806  0.8516
 3013TIP3    H130454   5.408   6.587   0.261  0.2126  2.6181  1.1536
 3013TIP3    H230455   5.520   6.580   0.160 -0.2629 -1.8069  0.7368
 3014TIP3   OH230456   0.329   5.610  11.617  0.0661  0.2672 -0.5195
 3014TIP3    H130457   0.289   5.697  11.623  0.8305  0.6139 -0.3145
 3014TIP3    H230458   0.295   5.563  11.694  0.7992  0.8846  0.2034
 3015TIP3   OH230459   5.150   5.745  12.879  0.4000  0.4995  0.7857
 3015TIP3    H130460   5.107   5.669  12.840  2.3268  0.4073 -1.3464
 3015TIP3    H230461   5.165   5.719  12.970 -0.5184 -0.9683  0.5566
 3016TIP3   OH230462   3.143   4.461  12.022  0.2256 -0.0557  0.2999
 3016TIP3    H130463   3.106   4.406  12.091 -0.9997 -0.1205 -0.3791
 3016TIP3    H230464   3.099   4.546  12.033  1.1586  0.4166  0.5342
 3017TIP3   OH230465   2.868   3.187   0.845  0.6159  0.4153 -0.2406
 3017TIP3    H130466   2.777   3.179   0.818  0.7190 -0.5717 -0.3503
 3017TIP3    H230467   2.882   3.111   0.902  1.4847  0.3143 -0.5732
 3018TIP3   OH230468   1.758   5.655  11.015  0.0958 -0.0361  0.1357
 3018TIP3    H130469   1.671   5.681  10.985  0.5715  1.0957 -0.3460
 3018TIP3    H230470   1.790   5.597  10.946  0.8086  1.8056 -1.1690
 3019TIP3   OH230471   4.001   1.899  10.754 -0.6481 -0.3648  0.3886
 3019TIP3    H130472   4.019   1.932  10.666 -1.4855 -3.3142 -0.9821
 3019TIP3    H230473   3.917   1.855  10.747 -0.6305 -0.8592  2.6238
 3020TIP3   OH230474   5.989   3.271  11.760 -0.2242 -0.0614 -0.5651
 3020TIP3    H130475   5.934   3.331  11.710 -0.3840 -0.0546 -0.3818
 3020TIP3    H230476   6.058   3.246  11.699 -1.5844 -1.7131 -1.5123
 3021TIP3   OH230477   6.348   4.818  14.268 -0.4740  0.0319 -0.2914
 3021TIP3    H130478   6.352   4.882  14.196 -0.6525  0.0109 -0.3200
 3021TIP3    H230479   6.350   4.733  14.224  1.5853 -0.0279 -0.1814
 3022TIP3   OH230480   3.719   0.937  12.481  0.0341 -0.5202  0.0713
 3022TIP3    H130481   3.679   0.851  12.467 -0.1849 -0.6363  1.3153
 3022TIP3    H230482   3.659   0.983  12.539  1.1187 -0.2709  1.0486
 3023TIP3   OH230483   4.415   6.469  10.631 -0.4973  0.2998  0.3669
 3023TIP3    H130484   4.372   6.511  10.706 -0.6142 -0.0382  0.4905
 3023TIP3    H230485   4.345   6.453  10.568 -0.1638  1.9938 -0.4869
 3024TIP3   OH230486   3.399   2.702  10.374 -0.1291  0.4904  0.2826
 3024TIP3    H130487   3.421   2.795  10.377 -3.3303  1.3439  0.2963
 3024TIP3    H230488   3.370   2.680  10.462  1.3328 -0.7915  0.4922
 3025TIP3   OH230489   1.092   3.276  11.382  0.8112 -0.2536 -0.6551
 3025TIP3    H130490   1.031   3.329  11.433  0.5207 -1.3763  0.1941
 3025TIP3    H230491   1.179   3.300  11.415  0.6296 -0.9111  0.3262
 3026TIP3   OH230492   2.331   5.865  13.318 -0.1527 -0.1437  0.3937
 3026TIP3    H130493   2.371   5.782  13.294 -1.0263 -0.0526 -1.6148
 3026TIP3    H230494   2.262   5.842  13.381  0.3927 -0.7752  0.7631
 3027TIP3   OH230495   3.133   3.848  10.594  0.3386  1.1909 -0.1660
 3027TIP3    H130496   3.178   3.859  10.677 -1.1236  2.2964  0.5348
 3027TIP3    H230497   3.041   3.864  10.614 -0.2153  0.3327 -1.7830
 3028TIP3   OH230498   1.342   3.986   2.890 -0.0327  0.2204  0.4931
 3028TIP3    H130499   1.307   3.912   2.938  0.2358  0.8761  1.7370
 3028TIP3    H230500   1.286   3.994   2.813  0.1582 -1.4818  0.1321
 3029TIP3   OH230501   5.062   1.370   4.709 -0.2996 -0.1443  0.2465
 3029TIP3    H130502   5.148   1.337   4.737 -0.6217 -1.6658 -0.4461
 3029TIP3    H230503   5.024   1.408   4.789  1.0147  0.6205  0.5515
 3030TIP3   OH230504   2.522   1.946  12.489 -0.9066 -0.0296 -0.0201
 3030TIP3    H130505   2.498   1.932  12.397  0.0412  0.2339 -0.3156
 3030TIP3    H230506   2.551   1.860  12.520 -0.9133 -0.0474 -0.0627
 3031TIP3   OH230507   0.831   1.215   9.322  0.0015  0.0807 -0.8539
 3031TIP3    H130508   0.919   1.185   9.342  0.0063  0.1476 -0.7736
 3031TIP3    H230509   0.788   1.221   9.407 -0.5963 -1.5339 -1.0068
 3032TIP3   OH230510   4.396   3.531   9.972 -0.2350 -0.5799 -0.1976
 3032TIP3    H130511   4.437   3.467  10.030 -0.4864 -1.0069 -0.4817
 3032TIP3    H230512   4.421   3.503   9.884  0.6094  0.3808 -0.2835
 3033TIP3   OH230513   2.991   4.552  13.377  0.0174 -0.1363 -0.2929
 3033TIP3    H130514   2.940   4.488  13.427 -2.2494  0.2348 -1.9639
 3033TIP3    H230515   3.023   4.614  13.443 -1.9871 -0.2326  0.8500
 3034TIP3   OH230516   4.801   4.971  14.434  0.0031  0.6127 -0.3915
 3034TIP3    H130517   4.815   5.017  14.352  2.8778  0.1184 -0.2848
 3034TIP3    H230518   4.853   4.891  14.426 -1.6973 -0.7089  0.9554
 3035TIP3   OH230519   0.586   4.943  12.048  0.2032  0.6244  0.0162
 3035TIP3    H130520   0.538   4.927  12.129  0.2772  0.6932  0.0729
 3035TIP3    H230521   0.678   4.940  12.073  0.2818 -0.9140 -0.3374
 3036TIP3   OH230522   1.356   5.810   3.573 -0.3991  0.3679 -0.1509
 3036TIP3    H130523   1.280   5.756   3.595  1.2965 -1.7779  0.8189
 3036TIP3    H230524   1.370   5.794   3.479 -1.9346  1.9569 -0.7186
 3037TIP3   OH230525   4.470   4.692  13.401  0.3013 -0.4336 -0.0505
 3037TIP3    H130526   4.536   4.630  13.431  0.6421 -0.6295 -1.1416
 3037TIP3    H230527   4.491   4.706  13.308  0.1260  1.1714  0.1135
 3038TIP3   OH230528   3.805   2.053   0.455 -0.1658  0.2234 -0.5075
 3038TIP3    H130529   3.757   1.996   0.516 -0.1715  0.6757 -0.0817
 3038TIP3    H230530   3.736   2.101   0.408 -0.1441  0.9405  0.1689
 3039TIP3   OH230531   3.774   1.649   0.491 -0.5669  0.7393  0.3566
 3039TIP3    H130532   3.854   1.604   0.462 -0.1315  2.1409 -0.7059
 3039TIP3    H230533   3.751   1.706   0.418 -3.5940 -0.9032 -0.1420
 3040TIP3   OH230534   4.435   2.509  10.798  0.1957 -0.5185  0.1837
 3040TIP3    H130535   4.498   2.504  10.870 -0.2944 -0.5879  0.6136
 3040TIP3    H230536   4.374   2.438  10.814  0.0935 -0.5525 -0.3201
 3041TIP3   OH230537   1.856   0.659  12.078 -0.0048 -0.3078 -0.3650
 3041TIP3    H130538   1.927   0.694  12.131 -0.5001  0.1433  0.0017
 3041TIP3    H230539   1.869   0.564  12.080 -0.1737 -0.3180  0.7865
 3042TIP3   OH230540   5.545   6.139   9.265  0.1253  0.1357  0.0050
 3042TIP3    H130541   5.456   6.165   9.290  0.3807 -0.3525  1.4960
 3042TIP3    H230542   5.586   6.219   9.233 -0.9286  0.3138 -0.9726
 3043TIP3   OH230543   0.773   1.142  10.698  0.1048  0.5794  0.0841
 3043TIP3    H130544   0.729   1.091  10.630 -0.0740  0.1071  0.5480
 3043TIP3    H230545   0.713   1.214  10.717  0.5708  1.2675 -0.9155
 3044TIP3   OH230546   3.763   3.243  10.694  0.6442 -0.0318 -0.2611
 3044TIP3    H130547   3.744   3.184  10.621  0.0793 -1.2232  0.8133
 3044TIP3    H230548   3.851   3.217  10.724  1.0373  0.7091 -0.7357
 3045TIP3   OH230549   1.061   4.744  14.420 -0.0206 -0.0430  0.7469
 3045TIP3    H130550   1.121   4.777  14.353  0.5966 -2.8654 -0.2362
 3045TIP3    H230551   0.980   4.726  14.373  0.5036 -2.3098  0.6011
 3046TIP3   OH230552   1.109   1.292  14.805  0.1334 -0.5519  0.1699
 3046TIP3    H130553   1.114   1.252  14.892 -0.2131  1.3681  1.1134
 3046TIP3    H230554   1.049   1.236  14.756 -0.4389 -1.1056  1.4702
 3047TIP3   OH230555   3.833   2.513  15.044 -0.3654  0.3803 -0.0126
 3047TIP3    H130556   3.877   2.454  14.982 -1.1624 -0.2196 -0.0179
 3047TIP3    H230557   3.900   2.533  15.109 -0.0211 -0.3650 -0.1270
 3048TIP3   OH230558   3.977   5.938  10.043 -0.2151  0.0310  0.0126
 3048TIP3    H130559   3.969   5.887  10.124  0.8336  0.4783  0.4112
 3048TIP3    H230560   4.039   6.007  10.064  0.2339  0.0294 -1.2419
 3049TIP3   OH230561   1.126   5.320  11.251 -0.1392  0.3706  0.1024
 3049TIP3    H130562   1.070   5.285  11.321  0.4156 -1.0738 -0.1285
 3049TIP3    H230563   1.066   5.363  11.191 -1.0183 -1.0022 -0.0611
 3050TIP3   OH230564   2.664   3.813  15.161 -0.5169  0.1922  0.8297
 3050TIP3    H130565   2.708   3.895  15.139 -1.8826  0.9049  0.6124
 3050TIP3    H230566   2.659   3.813  15.256  0.8797 -0.4165  0.9168
 3051TIP3   OH230567   0.357   6.901   9.901 -0.8626  0.2511  0.2279
 3051TIP3    H130568   0.270   6.919   9.865 -1.0518 -2.3885 -0.8998
 3051TIP3    H230569   0.347   6.909   9.995 -2.0526  0.9953  0.0517
 3052TIP3   OH230570   2.770   5.419   1.133  0.1282 -0.3439 -0.4646
 3052TIP3    H130571   2.793   5.481   1.063  1.3274 -0.1437  0.0732
 3052TIP3    H230572   2.793   5.464   1.214 -0.4526 -0.8991  0.0191
 3053TIP3   OH230573   7.082   3.052  11.523  0.3568 -0.3959  0.4993
 3053TIP3    H130574   7.153   2.990  11.511 -0.1465 -0.7058 -1.0173
 3053TIP3    H230575   7.002   3.000  11.510 -0.0703  0.6984 -1.7884
 3054TIP3   OH230576   2.519   1.722  12.300 -0.5716 -0.2361 -0.0739
 3054TIP3    H130577   2.537   1.654  12.364 -0.0833  0.5478  0.6487
 3054TIP3    H230578   2.590   1.716  12.237 -2.6424 -3.0166 -2.3543
 3055TIP3   OH230579   1.808   7.144  10.305  0.6282 -0.0683  0.1791
 3055TIP3    H130580   1.744   7.209  10.336  1.3771  0.7082  0.1292
 3055TIP3    H230581   1.798   7.144  10.210  0.0346 -0.6698  0.2286
 3056TIP3   OH230582   2.853   2.973  13.950 -0.4406  0.2684 -0.0896
 3056TIP3    H130583   2.846   2.953  14.043  1.3351  1.0109  0.2509
 3056TIP3    H230584   2.904   2.900  13.913 -1.6668 -0.3464 -0.6346
 3057TIP3   OH230585   1.354   0.307  13.049 -0.2971  0.8468  0.5543
 3057TIP3    H130586   1.278   0.325  12.994  0.1428 -1.4237 -0.9319
 3057TIP3    H230587   1.426   0.295  12.987  0.7304  0.4475  1.7865
 3058TIP3   OH230588   3.542   3.421  11.765 -0.3349 -0.0006  0.0282
 3058TIP3    H130589   3.627   3.451  11.798 -0.2919  0.2471 -0.3011
 3058TIP3    H230590   3.523   3.341  11.815  0.5126 -0.5577 -0.5392
 3059TIP3   OH230591   5.199   1.027  12.103 -0.5872 -0.8815  0.3231
 3059TIP3    H130592   5.244   0.996  12.182  0.8207  0.9489  0.2896
 3059TIP3    H230593   5.245   1.107  12.078 -2.1099 -0.4589 -1.3689
 3060TIP3   OH230594   4.991   2.338   1.398  0.4004 -0.3258 -0.9984
 3060TIP3    H130595   4.988   2.419   1.348  0.4624  0.4207  0.1563
 3060TIP3    H230596   5.073   2.343   1.447  0.4587 -1.1394 -0.9995
 3061TIP3   OH230597   3.997   1.134  10.071  0.3663  0.3102 -0.1486
 3061TIP3    H130598   4.048   1.106   9.995  1.0313  1.7794 -0.2729
 3061TIP3    H230599   4.063   1.147  10.140 -0.3287 -2.0616  1.0570
 3062TIP3   OH230600   1.320   2.417  12.217  0.7523  0.6139  0.0129
 3062TIP3    H130601   1.336   2.327  12.192 -1.5771  0.5607 -1.4960
 3062TIP3    H230602   1.316   2.415  12.313  1.7225 -0.6524  0.0486
 3063TIP3   OH230603   5.785   0.505  10.632  0.5666 -0.1273  0.3429
 3063TIP3    H130604   5.724   0.479  10.701  1.4221 -0.2923  1.0699
 3063TIP3    H230605   5.762   0.595  10.612 -0.4490 -0.4585  0.0089
 3064TIP3   OH230606   2.536   6.437  13.017  0.3102  0.3340  0.7617
 3064TIP3    H130607   2.529   6.521  13.062  1.4849  0.4284  0.7871
 3064TIP3    H230608   2.629   6.417  13.018  0.0825 -0.8009  0.4387
 3065TIP3   OH230609   3.664   0.697   1.417  0.0575  0.4487 -0.0030
 3065TIP3    H130610   3.725   0.665   1.484  0.4933 -0.7167 -0.9319
 3065TIP3    H230611   3.684   0.646   1.339 -3.8939 -2.0657  0.3336
 3066TIP3   OH230612   4.300   4.358  10.425  0.2443 -0.6342 -0.4598
 3066TIP3    H130613   4.389   4.325  10.440 -0.7129 -2.0596  3.4060
 3066TIP3    H230614   4.291   4.430  10.487 -1.9258 -2.0272  0.9964
 3067TIP3   OH230615   6.462   1.420  13.208  0.1249  0.6199 -0.2392
 3067TIP3    H130616   6.521   1.411  13.132  0.6488 -3.0073  0.4061
 3067TIP3    H230617   6.375   1.400  13.174  0.3900 -1.2173  0.0748
 3068TIP3   OH230618   4.186   4.817  10.375 -0.1104  0.2082 -0.0217
 3068TIP3    H130619   4.151   4.891  10.425 -2.0708  1.0810 -2.4933
 3068TIP3    H230620   4.206   4.751  10.442 -0.7384  1.9916  2.0489
 3069TIP3   OH230621   4.360   2.402  13.146 -0.1495  0.4090 -0.3830
 3069TIP3    H130622   4.438   2.364  13.106  1.6141  0.5217  2.6507
 3069TIP3    H230623   4.314   2.327  13.184 -0.8159  0.5103 -0.9633
 3070TIP3   OH230624   0.033   1.776  11.456  0.3692 -0.5973 -0.4476
 3070TIP3    H130625   0.035   1.685  11.427  0.2145 -1.0444  0.8713
 3070TIP3    H230626   0.123   1.795  11.483 -0.2339 -1.5504  2.6300
 3071TIP3   OH230627   4.491   0.161  10.941 -0.5402 -0.1436  1.1868
 3071TIP3    H130628   4.443   0.221  10.884 -0.6293 -0.4933  0.8873
 3071TIP3    H230629   4.449   0.169  11.026 -1.9837 -1.3794  0.6485
 3072TIP3   OH230630   6.146   6.439   9.181 -0.3186  0.1404 -0.7380
 3072TIP3    H130631   6.122   6.382   9.108 -1.6927 -0.3421  0.0526
 3072TIP3    H230632   6.240   6.426   9.191 -0.0592  0.3979 -2.5549
 3073TIP3   OH230633   1.365   5.692  14.169  0.0195  0.0742 -0.0845
 3073TIP3    H130634   1.340   5.612  14.123 -0.5130 -0.1569  0.5892
 3073TIP3    H230635   1.460   5.689  14.172 -0.0158 -0.8643  0.4966
 3074TIP3   OH230636   6.540   2.947  13.696 -0.7447 -0.1594 -0.1355
 3074TIP3    H130637   6.619   3.001  13.700 -1.5278  1.0086 -0.3272
 3074TIP3    H230638   6.571   2.862  13.664  0.6554 -0.1480  1.0734
 3075TIP3   OH230639   5.359   6.673  12.739 -0.0780 -0.1597  0.0712
 3075TIP3    H130640   5.323   6.760  12.719 -2.2379 -0.1498  3.3594
 3075TIP3    H230641   5.437   6.691  12.792 -0.3669 -0.2082  0.5173
 3076TIP3   OH230642   5.656   2.517   0.574 -0.0439 -0.4023  0.1053
 3076TIP3    H130643   5.709   2.595   0.560 -0.9980  0.5210  1.3646
 3076TIP3    H230644   5.719   2.448   0.593  0.7903  0.1850 -0.4582
 3077TIP3   OH230645   1.084   6.650  11.806 -0.9570  0.2515  0.3452
 3077TIP3    H130646   1.069   6.557  11.790  1.3861 -0.1830  0.3892
 3077TIP3    H230647   1.050   6.665  11.895  0.4575 -1.0596  1.1456
 3078TIP3   OH230648   2.680   0.251  10.648 -0.1556 -0.1824  0.2590
 3078TIP3    H130649   2.758   0.222  10.696  0.7460  1.2668 -0.2671
 3078TIP3    H230650   2.715   0.301  10.574 -1.5283 -1.7516 -1.5684
 3079TIP3   OH230651   4.806   3.358  12.332 -0.1575 -0.0654  0.2200
 3079TIP3    H130652   4.894   3.353  12.370 -0.3145 -1.2946  0.4531
 3079TIP3    H230653   4.761   3.281  12.365 -0.9900 -0.0225 -0.7636
 3080TIP3   OH230654   5.802   2.259  11.323 -0.2089 -0.1760  0.5071
 3080TIP3    H130655   5.886   2.247  11.366  0.4931  1.3060 -0.3575
 3080TIP3    H230656   5.801   2.351  11.297 -1.4934 -0.4941 -0.7415
 3081TIP3   OH230657   5.862   4.383  10.890  0.7033 -0.1286 -0.1309
 3081TIP3    H130658   5.943   4.422  10.856  1.0066 -0.3203  0.3521
 3081TIP3    H230659   5.888   4.344  10.973 -0.0790  0.5951  0.4746
 3082TIP3   OH230660   4.086   1.952   5.026 -0.4698  0.4056  0.1751
 3082TIP3    H130661   4.148   1.955   5.099  0.1954 -0.3876 -0.3435
 3082TIP3    H230662   4.100   2.035   4.979 -0.0007  0.3518  0.2183
 3083TIP3   OH230663   5.290   4.019  14.122 -0.3379  0.2636 -0.0597
 3083TIP3    H130664   5.289   3.974  14.037  0.8932 -1.4456  0.7803
 3083TIP3    H230665   5.296   4.112  14.099  1.3776 -0.2255 -1.8819
 3084TIP3   OH230666   6.782   5.506  10.674  0.3734  0.3500 -0.2333
 3084TIP3    H130667   6.745   5.481  10.589  2.5656  0.0969 -1.1788
 3084TIP3    H230668   6.722   5.573  10.707 -1.9781 -1.4017 -0.7194
 3085TIP3   OH230669   3.425   1.205  13.008  0.0328  0.5160  0.1227
 3085TIP3    H130670   3.518   1.193  13.024  0.2653 -0.9548 -1.9491
 3085TIP3    H230671   3.420   1.246  12.922 -1.2571  0.2729  0.0615
 3086TIP3   OH230672   5.222   1.422  10.668 -0.2964  0.0429 -0.0233
 3086TIP3    H130673   5.194   1.443  10.757 -3.0631 -0.5569 -0.6890
 3086TIP3    H230674   5.169   1.347  10.643  2.2808 -1.4666 -1.3164
 3087TIP3   OH230675   5.431   1.121   9.943  0.5672  0.2198 -0.2018
 3087TIP3    H130676   5.369   1.116  10.015 -0.0276  0.7231 -0.6635
 3087TIP3    H230677   5.512   1.154   9.983 -1.1421  5.7713 -0.4553
 3088TIP3   OH230678   2.549   6.189   1.058 -0.0978  0.1492  0.5612
 3088TIP3    H130679   2.486   6.202   1.128  3.1519  1.1605  3.5822
 3088TIP3    H230680   2.588   6.275   1.043  0.8165 -0.4720 -0.9199
 3089TIP3   OH230681   5.354   5.345  11.191 -0.4213 -0.6983 -0.7601
 3089TIP3    H130682   5.300   5.390  11.256 -0.9725 -0.8707 -1.0925
 3089TIP3    H230683   5.296   5.331  11.116  0.2051 -0.4922 -1.3020
 3090TIP3   OH230684   3.937   6.993   3.034 -0.1423 -0.1039 -0.2168
 3090TIP3    H130685   3.908   6.922   3.091 -2.3200  0.1887 -0.8555
 3090TIP3    H230686   4.032   6.988   3.035 -0.2133 -2.2138  0.7706
 3091TIP3   OH230687   6.801   6.220  12.548  0.3206  0.4928  0.2962
 3091TIP3    H130688   6.824   6.312  12.539 -0.0119  0.6483  0.9930
 3091TIP3    H230689   6.814   6.200  12.640  0.3829 -0.1605  0.1525
 3092TIP3   OH230690   1.000   3.613  11.549  0.7287 -0.3916  0.1004
 3092TIP3    H130691   1.080   3.561  11.542  0.5207 -0.6112 -0.9058
 3092TIP3    H230692   0.931   3.548  11.560  0.8690 -0.1348  3.6162
 3093TIP3   OH230693   4.472   5.817  13.340 -0.1004 -0.2058 -0.2269
 3093TIP3    H130694   4.455   5.903  13.378  0.8440 -0.2712  0.3841
 3093TIP3    H230695   4.480   5.833  13.246 -2.4193 -0.0314 -0.4607
 3094TIP3   OH230696   2.106   5.414  14.271  1.2129  0.3939  0.3238
 3094TIP3    H130697   2.121   5.497  14.316  0.1677  0.3716  0.7394
 3094TIP3    H230698   2.021   5.425  14.229  1.7556  0.0801 -0.9123
 3095TIP3   OH230699   2.094   0.472   3.798  0.0956  0.4268 -0.2092
 3095TIP3    H130700   2.152   0.407   3.759 -1.2539 -0.3226 -1.0646
 3095TIP3    H230701   2.125   0.556   3.763  1.5593  0.2292  0.5370
 3096TIP3   OH230702   3.897   7.062  10.938  0.1874  0.7597 -0.5377
 3096TIP3    H130703   3.929   7.090  10.853 -0.6901  0.9598 -0.8180
 3096TIP3    H230704   3.831   7.128  10.962 -0.3256  0.1357 -0.1950
 3097TIP3   OH230705   6.045   6.130  13.248  0.6609 -0.0710  0.0034
 3097TIP3    H130706   6.068   6.068  13.178  0.5496  0.3882 -0.4496
 3097TIP3    H230707   6.074   6.215  13.214  0.2352  0.2100  0.3465
 3098TIP3   OH230708   5.716   7.061  11.038 -0.3237  0.4123  0.2343
 3098TIP3    H130709   5.681   7.149  11.030 -0.0822  0.4938  0.0270
 3098TIP3    H230710   5.661   7.018  11.103 -0.7216  0.5755  0.0076
 3099TIP3   OH230711   0.531   4.758  10.740  0.9561 -0.2025  0.0045
 3099TIP3    H130712   0.577   4.699  10.800  0.0041  0.6430  1.6459
 3099TIP3    H230713   0.440   4.756  10.769  0.5941  0.7650 -0.9988
 3100TIP3   OH230714   3.431   5.718  10.776 -0.1283  0.6765  0.3171
 3100TIP3    H130715   3.364   5.659  10.810  0.0981  0.3370  0.1837
 3100TIP3    H230716   3.382   5.785  10.729 -0.3610  0.2870 -0.0011
 3101TIP3   OH230717   5.699   1.836  13.857  0.0328 -0.0388  0.2849
 3101TIP3    H130718   5.678   1.803  13.769  0.5655 -0.7061  0.3965
 3101TIP3    H230719   5.643   1.783  13.915  0.4913 -0.3742  0.4257
 3102TIP3   OH230720   3.619   1.465  11.648 -0.1560 -0.2628 -0.5262
 3102TIP3    H130721   3.696   1.519  11.631  2.7262 -2.6380  3.4496
 3102TIP3    H230722   3.624   1.395  11.583  0.7420 -0.0737 -0.6708
 3103TIP3   OH230723   4.988   6.173  10.433 -0.7334 -0.5787 -0.5371
 3103TIP3    H130724   4.950   6.220  10.359 -0.5438 -0.0494 -0.3022
 3103TIP3    H230725   5.067   6.222  10.456  0.1510 -1.7070 -1.0616
 3104TIP3   OH230726   0.767   0.142  12.428 -0.3072 -0.6628 -0.6110
 3104TIP3    H130727   0.812   0.116  12.508 -0.3189 -0.7945 -0.6462
 3104TIP3    H230728   0.834   0.135  12.360 -0.0760  0.2448 -0.4851
 3105TIP3   OH230729   0.774   2.891  13.011 -0.0395  0.2639  0.4024
 3105TIP3    H130730   0.800   2.869  12.921 -1.1946  0.0324  0.1088
 3105TIP3    H230731   0.819   2.974  13.029  0.7098 -0.0111 -0.1513
 3106TIP3   OH230732   6.781   5.437  10.238 -0.7184  0.2119  0.2792
 3106TIP3    H130733   6.866   5.477  10.259 -0.3448  0.3054 -1.2630
 3106TIP3    H230734   6.798   5.386  10.159 -1.9164 -0.4678  0.4391
 3107TIP3   OH230735   4.674   1.603   9.905 -0.2017 -0.3000 -0.3224
 3107TIP3    H130736   4.720   1.608   9.821 -1.3710 -0.7864 -1.0220
 3107TIP3    H230737   4.629   1.688   9.912 -1.2798 -0.8107 -0.9081
 3108TIP3   OH230738   6.600   6.212  13.348  0.5732 -0.0648  0.1044
 3108TIP3    H130739   6.638   6.298  13.367 -1.5880  1.0869 -0.3738
 3108TIP3    H230740   6.542   6.195  13.423  1.9025 -1.7318  0.8040
 3109TIP3   OH230741   1.154   2.805  11.214 -0.3188  0.1346 -0.2523
 3109TIP3    H130742   1.157   2.817  11.119  1.5941  1.4752 -0.0784
 3109TIP3    H230743   1.230   2.751  11.233 -0.2180  0.5744  0.6098
 3110TIP3   OH230744   5.477   4.639  12.658  0.0186 -0.0236 -0.0514
 3110TIP3    H130745   5.480   4.555  12.704  3.9966  0.5283  1.0745
 3110TIP3    H230746   5.462   4.617  12.566  0.3003 -1.9061  0.3272
 3111TIP3   OH230747   1.841   5.816  10.551  0.1577  0.6594  0.1288
 3111TIP3    H130748   1.797   5.899  10.567 -2.2688 -0.9444  2.7233
 3111TIP3    H230749   1.773   5.757  10.520  1.6130 -0.6183 -0.8014
 3112TIP3   OH230750   0.049   5.151   9.994  0.2268  0.2968  0.2513
 3112TIP3    H130751   0.055   5.057  10.014  1.2637  0.3843  0.4210
 3112TIP3    H230752   0.133   5.172   9.954 -0.0345  1.1448  0.1302
 3113TIP3   OH230753   5.330   5.738  11.948  0.6011 -1.3105  0.1343
 3113TIP3    H130754   5.303   5.654  11.985  2.3375 -1.7827  0.3829
 3113TIP3    H230755   5.281   5.803  12.000  1.0511 -2.0687  1.5672
 3114TIP3   OH230756   4.955   2.930   1.021 -0.4316 -0.2421 -0.3655
 3114TIP3    H130757   4.985   2.969   1.103  0.6099 -0.1621 -0.7603
 3114TIP3    H230758   4.925   3.004   0.968 -1.3839 -0.3256  0.0448
 3115TIP3   OH230759   3.842   2.273   1.390  0.2546  0.3801  0.0007
 3115TIP3    H130760   3.906   2.342   1.408  1.0940 -0.1026 -1.0422
 3115TIP3    H230761   3.892   2.204   1.346 -0.3421 -1.3836  1.9364
 3116TIP3   OH230762   2.064   4.108  12.874  0.2716 -0.2675  0.7327
 3116TIP3    H130763   2.079   4.014  12.862  2.9426  0.0609  0.8977
 3116TIP3    H230764   2.071   4.144  12.785 -1.2239 -0.2471  0.6052
 3117TIP3   OH230765   5.402   5.343  12.123 -0.1104 -0.2123 -0.4672
 3117TIP3    H130766   5.497   5.354  12.132  0.0082  0.0160 -1.8719
 3117TIP3    H230767   5.391   5.294  12.042 -1.1836 -0.5645 -0.1141
 3118TIP3   OH230768   0.342   1.236  12.226  0.0264 -0.3934  0.1010
 3118TIP3    H130769   0.392   1.187  12.291  1.3926 -0.8275 -1.2147
 3118TIP3    H230770   0.404   1.250  12.154 -0.3091  3.1432  0.3163
 3119TIP3   OH230771   6.885   0.800  15.010  0.0714 -0.1110 -0.5484
 3119TIP3    H130772   6.919   0.883  14.977  1.6882 -0.6808 -0.4379
 3119TIP3    H230773   6.961   0.759  15.052 -1.4239 -0.2609  2.2237
 3120TIP3   OH230774   6.414   5.189   1.191 -0.0075  0.0409  0.6115
 3120TIP3    H130775   6.441   5.217   1.104  2.8605  0.7683  1.6446
 3120TIP3    H230776   6.459   5.106   1.206  0.9860  0.7993  2.0475
 3121TIP3   OH230777   2.221   5.786  12.200 -0.8628  0.4967  0.2174
 3121TIP3    H130778   2.185   5.709  12.155  1.5705 -0.4242 -0.3111
 3121TIP3    H230779   2.248   5.752  12.285  1.4447  0.3483 -0.5004
 3122TIP3   OH230780   5.910   2.281  12.867 -0.2292 -0.4037  0.0482
 3122TIP3    H130781   5.841   2.224  12.834 -1.6454  0.5791  1.1892
 3122TIP3    H230782   5.929   2.248  12.955  0.4405 -0.3646 -0.0705
 3123TIP3   OH230783   1.475   4.870  11.574  0.0585  0.6256  0.2132
 3123TIP3    H130784   1.541   4.939  11.572  0.5981  0.1061 -0.2079
 3123TIP3    H230785   1.392   4.916  11.585  0.5800  1.2191  1.9770
 3124TIP3   OH230786   5.629   2.733  11.381  0.3964  0.6338 -0.3765
 3124TIP3    H130787   5.638   2.744  11.476 -0.9388  1.9106 -0.3716
 3124TIP3    H230788   5.629   2.823  11.347  1.6008  0.1756 -1.6823
 3125TIP3   OH230789   6.783   5.503   5.324  0.0551 -0.4756  0.4928
 3125TIP3    H130790   6.774   5.564   5.397 -1.2924 -1.1783  0.9594
 3125TIP3    H230791   6.739   5.546   5.251  1.7020  0.3786 -0.0380
 3126TIP3   OH230792   5.681   0.940  11.067 -0.1755  0.0449  0.0651
 3126TIP3    H130793   5.601   0.899  11.101 -0.1503  0.2592  0.3858
 3126TIP3    H230794   5.650   1.021  11.027  0.0676  0.9588  1.6556
 3127TIP3   OH230795   4.335   1.145  10.905  0.0099 -0.3269 -0.1940
 3127TIP3    H130796   4.415   1.104  10.871  0.3434  1.0284 -1.1247
 3127TIP3    H230797   4.357   1.170  10.994  1.0914  1.1098 -0.8153
 3128TIP3   OH230798   5.741   1.644  11.924  0.2124 -0.2438  0.2364
 3128TIP3    H130799   5.813   1.676  11.978  0.5368 -1.4501  0.5612
 3128TIP3    H230800   5.730   1.552  11.951 -1.7214  0.0205  0.4860
 3129TIP3   OH230801   6.857   0.269   1.300 -0.2315 -0.0467 -0.2782
 3129TIP3    H130802   6.807   0.259   1.381 -1.8730  0.7320 -1.1379
 3129TIP3    H230803   6.811   0.214   1.237 -0.7601  1.5624 -1.3741
 3130TIP3   OH230804   5.958   2.845  11.328 -0.6181 -0.3320  0.0341
 3130TIP3    H130805   5.946   2.915  11.263 -0.6281  0.3679  0.7756
 3130TIP3    H230806   5.890   2.862  11.394 -0.2164 -0.6663  0.5370
 3131TIP3   OH230807   1.851   6.255  13.851 -0.3778 -0.3281  0.2155
 3131TIP3    H130808   1.906   6.185  13.886  0.1466 -0.4358 -0.7927
 3131TIP3    H230809   1.774   6.211  13.817 -2.0077 -0.0433  3.1699
 3132TIP3   OH230810   3.756   0.444  10.301  0.3856 -0.5862 -0.3947
 3132TIP3    H130811   3.832   0.500  10.317  0.2749 -0.9391  1.5899
 3132TIP3    H230812   3.758   0.427  10.207  1.1412  1.6749 -0.8289
 3133TIP3   OH230813   4.806   4.816  12.126  0.5762 -0.1644  0.1037
 3133TIP3    H130814   4.781   4.725  12.138 -0.2939  0.0939  0.2630
 3133TIP3    H230815   4.863   4.815  12.049 -0.9466 -0.5924 -1.0601
 3134TIP3   OH230816   4.737   5.746  13.079  0.4735  0.2657 -0.2687
 3134TIP3    H130817   4.775   5.792  13.004 -0.1289 -1.0463 -1.4325
 3134TIP3    H230818   4.652   5.715  13.047  0.2281 -0.3703  0.9423
 3135TIP3   OH230819   1.242   3.435  12.710 -0.0574  0.2117 -0.6797
 3135TIP3    H130820   1.281   3.495  12.774 -0.1779 -0.3798 -0.0435
 3135TIP3    H230821   1.298   3.358  12.713 -2.1336 -1.3676  1.4984
 3136TIP3   OH230822   7.075   1.123  11.206 -0.6844  0.4812  0.0349
 3136TIP3    H130823   7.010   1.154  11.143 -1.9125  0.0618  1.0617
 3136TIP3    H230824   7.031   1.126  11.290  0.6276  0.1495  0.7715
 3137TIP3   OH230825   3.098   6.261   1.462  0.0685  0.1642 -0.4789
 3137TIP3    H130826   3.052   6.322   1.519 -1.1188  0.2253 -1.4481
 3137TIP3    H230827   3.028   6.216   1.414  0.6663 -3.5345  1.6793
 3138TIP3   OH230828   2.718   6.215  11.214 -0.3368 -0.0103 -0.3259
 3138TIP3    H130829   2.658   6.206  11.140 -0.9509  0.4123  0.1171
 3138TIP3    H230830   2.804   6.225  11.173 -0.4797 -1.1330 -0.9571
 3139TIP3   OH230831   1.758   3.403  10.359  0.2939  0.0850 -0.1941
 3139TIP3    H130832   1.732   3.377  10.271 -0.6729 -0.7427  0.3185
 3139TIP3    H230833   1.693   3.468  10.386 -0.3129 -0.7541  0.4481
 3140TIP3   OH230834   6.506   6.534  13.714  0.7926 -0.2581  0.0755
 3140TIP3    H130835   6.512   6.580  13.631  1.3652 -0.7689 -0.1717
 3140TIP3    H230836   6.566   6.460  13.705  0.3358 -0.7126  0.6865
 3141TIP3   OH230837   3.847   5.116  14.500 -0.2362  0.0044  0.0072
 3141TIP3    H130838   3.846   5.171  14.579  0.2367  0.6254 -0.4118
 3141TIP3    H230839   3.756   5.088  14.490 -0.2295 -0.3794  0.9778
 3142TIP3   OH230840   5.648   6.301   0.504 -0.3598  0.3147 -0.8628
 3142TIP3    H130841   5.595   6.230   0.540  0.1007  0.7048  0.6500
 3142TIP3    H230842   5.734   6.261   0.489 -0.4482  0.2450 -1.1858
 3143TIP3   OH230843   4.546   1.631  12.344 -0.4193 -0.1854 -0.0944
 3143TIP3    H130844   4.551   1.592  12.431 -1.4483 -1.4311 -0.5683
 3143TIP3    H230845   4.610   1.703  12.347  0.6997 -1.1668  1.1747
 3144TIP3   OH230846   2.262   4.158  14.372  0.4808  0.3179  0.0778
 3144TIP3    H130847   2.300   4.122  14.452  0.0145  2.1710  1.1710
 3144TIP3    H230848   2.172   4.179  14.395 -0.0157 -0.1789 -1.2880
 3145TIP3   OH230849   6.045   3.605  10.891  0.0737  0.2072 -0.2137
 3145TIP3    H130850   6.075   3.609  10.982 -0.2681  2.5900 -0.1415
 3145TIP3    H230851   5.951   3.625  10.897  0.0626  0.4355 -1.0776
 3146TIP3   OH230852   6.389   4.947  13.474  0.2232 -0.6819  0.4342
 3146TIP3    H130853   6.357   4.957  13.385 -0.6079 -0.0458  0.7958
 3146TIP3    H230854   6.453   4.875  13.469 -1.1408 -1.8820 -0.3218
 3147TIP3   OH230855   6.667   1.475  14.163  0.6024 -0.7177  0.2011
 3147TIP3    H130856   6.680   1.562  14.125  0.5748 -1.1175 -0.7750
 3147TIP3    H230857   6.756   1.439  14.170  0.4966 -1.3524 -1.2836
 3148TIP3   OH230858   2.174   4.471   3.103 -1.1315  0.2897  0.1406
 3148TIP3    H130859   2.147   4.409   3.036  0.7715 -1.2440  0.6846
 3148TIP3    H230860   2.129   4.441   3.182 -2.4047  1.3438 -0.1635
 3149TIP3   OH230861   2.935   4.214  13.017  0.2025 -0.2594  0.1388
 3149TIP3    H130862   2.941   4.120  12.996 -1.9523 -0.9067  1.9860
 3149TIP3    H230863   2.841   4.229  13.030  0.7786  1.3262  3.2623
 3150TIP3   OH230864   1.828   0.775   1.106  0.0866 -1.0097  0.0036
 3150TIP3    H130865   1.768   0.817   1.169  0.6117  0.2169 -0.2913
 3150TIP3    H230866   1.788   0.690   1.089 -2.8948  0.5819 -1.9308
 3151TIP3   OH230867   4.892   2.089  15.190 -0.0410 -0.2718  0.0704
 3151TIP3    H130868   4.798   2.075  15.189 -0.0600 -0.3375  1.3737
 3151TIP3    H230869   4.919   2.067  15.279  1.6809 -3.3457 -1.0551
 3152TIP3   OH230870   0.937   6.765  12.678  0.1966 -0.2762  0.1521
 3152TIP3    H130871   1.023   6.788  12.642  0.4632  1.8173  1.9087
 3152TIP3    H230872   0.874   6.811  12.623  0.1387 -1.8715 -1.1839
 3153TIP3   OH230873   5.755   5.866  12.965 -0.0507  0.6935  0.7032
 3153TIP3    H130874   5.750   5.961  12.954 -0.1076  0.6946  0.7363
 3153TIP3    H230875   5.821   5.837  12.902  2.1980  1.1086  2.7456
 3154TIP3   OH230876   1.575   5.565  11.651  0.6255 -0.6455 -0.3657
 3154TIP3    H130877   1.606   5.638  11.705  0.3237 -0.3899 -0.5382
 3154TIP3    H230878   1.482   5.582  11.638  0.4152 -1.3807  0.0931
 3155TIP3   OH230879   1.196   3.236   1.329 -0.8618  0.0719 -0.0306
 3155TIP3    H130880   1.275   3.187   1.353 -0.9991  0.2722  0.8717
 3155TIP3    H230881   1.159   3.264   1.413 -0.8265  1.6442 -0.4934
 3156TIP3   OH230882   5.445   6.033  13.516  0.4763  0.4965 -0.2856
 3156TIP3    H130883   5.482   6.063  13.433  0.0419  0.4391 -0.5054
 3156TIP3    H230884   5.356   6.006  13.493  0.5663 -0.1159  0.0825
 3157TIP3   OH230885   1.845   1.303   0.284  0.0491  0.5452  0.2893
 3157TIP3    H130886   1.773   1.300   0.221  0.0067  1.5011  0.2764
 3157TIP3    H230887   1.862   1.211   0.305  1.2416  0.0630 -2.4072
 3158TIP3   OH230888   3.200   0.946  11.794  0.3125  0.2316 -1.0550
 3158TIP3    H130889   3.292   0.951  11.818  0.3307  0.9096 -1.2472
 3158TIP3    H230890   3.161   1.025  11.830  0.0490  0.5322 -1.9700
 3159TIP3   OH230891   6.708   0.599  14.540 -0.5551  0.0984 -0.1885
 3159TIP3    H130892   6.672   0.606  14.628  0.0941  0.0995  0.0771
 3159TIP3    H230893   6.640   0.636  14.484 -0.8034  0.4710  0.3503
 3160TIP3   OH230894   5.289   5.583  15.061  0.6786  0.0838  0.3724
 3160TIP3    H130895   5.288   5.499  15.106  1.6347  0.5673  1.3196
 3160TIP3    H230896   5.278   5.560  14.968  0.1690 -1.0178  0.6839
 3161TIP3   OH230897   2.261   2.739  14.146 -0.1440  0.7959 -0.4236
 3161TIP3    H130898   2.193   2.805  14.161 -0.4538  0.0519  1.8078
 3161TIP3    H230899   2.343   2.787  14.157 -0.3658  0.8387  1.2948
 3162TIP3   OH230900   0.866   2.414  11.520 -0.4327 -0.2831  0.2554
 3162TIP3    H130901   0.869   2.460  11.436  0.0332  0.0499  0.4480
 3162TIP3    H230902   0.877   2.483  11.585 -0.1837 -0.6129  0.5628
 3163TIP3   OH230903   3.647   6.382  11.106  0.2834  0.5068  0.6158
 3163TIP3    H130904   3.560   6.393  11.068  0.1223  0.1705  0.8857
 3163TIP3    H230905   3.705   6.369  11.031 -0.1908 -1.2728  0.5207
 3164TIP3   OH230906   5.420   3.900  13.075  0.7087  0.4153 -0.5649
 3164TIP3    H130907   5.490   3.843  13.044  2.2664  1.9849 -0.0488
 3164TIP3    H230908   5.431   3.904  13.170 -0.7526 -0.1451 -0.3476
 3165TIP3   OH230909   0.091   6.852   0.003 -0.6695  0.1062  0.6076
 3165TIP3    H130910   0.128   6.830   0.089  0.1982 -0.2345  0.1602
 3165TIP3    H230911   0.081   6.767  -0.041  1.7162  0.4474 -0.7434
 3166TIP3   OH230912   6.840   6.117  15.290 -0.4863  0.0896  0.2009
 3166TIP3    H130913   6.809   6.200  15.254 -1.4497 -0.5836 -0.5924
 3166TIP3    H230914   6.808   6.051  15.228  2.2409 -0.7172 -0.4860
 3167TIP3   OH230915   5.876   4.193   3.819  0.8535 -0.0710 -0.4740
 3167TIP3    H130916   5.818   4.261   3.853  1.9079  0.0823  1.1175
 3167TIP3    H230917   5.887   4.132   3.892  1.7351 -0.7314 -1.1352
 3168TIP3   OH230918   6.114   6.254  10.284  0.1176 -0.2902 -0.4349
 3168TIP3    H130919   6.082   6.163  10.286 -0.5528 -0.0882 -1.4681
 3168TIP3    H230920   6.201   6.247  10.246 -0.5524 -0.3556 -2.0438
 3169TIP3   OH230921   4.773   7.074  11.403  0.2497 -0.0669  0.5171
 3169TIP3    H130922   4.818   7.159  11.405 -1.1896  0.7492 -0.6026
 3169TIP3    H230923   4.709   7.080  11.474  1.2484 -0.8935  1.5298
 3170TIP3   OH230924   4.310   5.510  10.066  0.2999  0.0094  0.6168
 3170TIP3    H130925   4.354   5.584  10.024 -1.3258  0.3342 -0.5834
 3170TIP3    H230926   4.378   5.442  10.072  1.3179  0.9469  0.0479
 3171TIP3   OH230927   6.487   6.303  12.144  0.0402 -0.1199  0.4617
 3171TIP3    H130928   6.543   6.380  12.159  1.7994 -1.4441  1.0127
 3171TIP3    H230929   6.474   6.266  12.232 -0.8039 -0.4755  0.1975
 3172TIP3   OH230930   4.814   0.064  12.596  0.5897 -0.1957 -0.5708
 3172TIP3    H130931   4.753   0.081  12.524 -0.8572 -0.7599  0.4772
 3172TIP3    H230932   4.832   0.150  12.634 -2.1157 -0.2715  1.0949
 3173TIP3   OH230933   4.554   2.391  13.444  0.4472 -0.0318 -0.0000
 3173TIP3    H130934   4.634   2.375  13.393  0.6529  1.4204 -0.1653
 3173TIP3    H230935   4.574   2.359  13.532  0.3740 -1.8200 -0.5878
 3174TIP3   OH230936   1.907   6.459  10.448 -0.0202  0.3182  0.2166
 3174TIP3    H130937   1.966   6.411  10.390 -0.2666 -1.0855  1.0771
 3174TIP3    H230938   1.958   6.473  10.528 -0.5086 -0.0193  0.5964
 3175TIP3   OH230939   7.021   5.211   0.684 -0.0838 -0.3651 -0.5403
 3175TIP3    H130940   7.001   5.285   0.626  2.2772  0.9312  0.1815
 3175TIP3    H230941   6.985   5.135   0.638  1.5985  0.5810 -3.7559
 3176TIP3   OH230942   4.993   2.224  12.008 -0.1953 -0.5308  0.0826
 3176TIP3    H130943   5.070   2.194  12.056  0.9969  1.0911 -0.7448
 3176TIP3    H230944   4.970   2.307  12.050 -1.3006 -0.8205  0.0832
 3177TIP3   OH230945   4.750   3.784  10.346 -0.2217 -0.0776 -0.7603
 3177TIP3    H130946   4.776   3.759  10.435 -1.8460  0.1823 -0.1698
 3177TIP3    H230947   4.728   3.702  10.303 -1.0533 -0.0862 -0.3463
 3178TIP3   OH230948   3.514   0.412  10.966 -0.3820  0.0785 -0.1268
 3178TIP3    H130949   3.448   0.457  11.019  1.9267  1.1008  2.0882
 3178TIP3    H230950   3.501   0.319  10.985 -1.4978  0.2234 -0.1429
 3179TIP3   OH230951   3.222   6.073  11.069 -0.2712  0.1806 -0.0061
 3179TIP3    H130952   3.232   6.077  11.164  1.7360 -0.1826 -0.1531
 3179TIP3    H230953   3.241   6.161  11.038 -2.3925  0.6965 -0.0274
 3180TIP3   OH230954   6.542   3.100  13.026  0.6867  0.1325 -0.3139
 3180TIP3    H130955   6.589   3.155  13.088 -1.8152  2.1537 -0.0257
 3180TIP3    H230956   6.465   3.070  13.074  1.3881 -2.8454 -0.8273
 3181TIP3   OH230957   4.596   0.479   0.200 -0.4871  0.1324  0.3223
 3181TIP3    H130958   4.602   0.512   0.110  1.8338  1.6174  0.9427
 3181TIP3    H230959   4.647   0.398   0.199 -0.8139 -0.0772  0.2383
 3182TIP3   OH230960   6.169   2.358   4.451  0.1324  0.1896 -0.5833
 3182TIP3    H130961   6.129   2.443   4.434 -0.8766 -0.5654 -2.2209
 3182TIP3    H230962   6.210   2.334   4.368  1.2548 -0.5094  0.1379
 3183TIP3   OH230963   1.545   6.009   0.668 -0.2606 -0.1111  0.2861
 3183TIP3    H130964   1.507   5.932   0.711 -2.5224  0.5066 -0.4668
 3183TIP3    H230965   1.493   6.082   0.701 -0.1996  0.7141 -1.3771
 3184TIP3   OH230966   5.325   2.031  14.860  0.1481 -0.1252 -0.7874
 3184TIP3    H130967   5.279   2.083  14.926 -0.4891 -1.3802 -0.2038
 3184TIP3    H230968   5.259   1.969  14.829  1.0598 -1.0077 -0.9947
 3185TIP3   OH230969   6.127   1.766   0.682 -0.1155  0.0173 -0.4128
 3185TIP3    H130970   6.197   1.795   0.740 -1.4193 -0.6372  1.6068
 3185TIP3    H230971   6.095   1.685   0.721 -1.0370 -0.5008 -2.1184
 3186TIP3   OH230972   4.122   1.047  11.034  0.1030 -0.6130  0.1204
 3186TIP3    H130973   4.180   1.092  10.973  0.1646 -0.6007  0.1880
 3186TIP3    H230974   4.171   0.968  11.059  0.1730 -0.5030  0.3306
 3187TIP3   OH230975   0.239   0.345   1.974 -0.5094  0.1637 -0.7432
 3187TIP3    H130976   0.276   0.367   1.888 -0.7677 -0.9146 -1.1450
 3187TIP3    H230977   0.156   0.393   1.977  0.3258  1.6404 -0.3330
 3188TIP3   OH230978   4.971   0.529  14.427 -0.3496 -0.8118  0.0064
 3188TIP3    H130979   4.949   0.622  14.426  1.0606 -0.4239  1.3401
 3188TIP3    H230980   5.032   0.519  14.500  0.2524 -2.6247 -0.6768
 3189TIP3   OH230981   4.778   4.004  10.168 -0.3503 -0.5596 -0.1368
 3189TIP3    H130982   4.747   3.948  10.239 -0.2469  0.2016  0.5188
 3189TIP3    H230983   4.768   3.950  10.089 -1.0961 -1.1741  0.3633
 3190TIP3   OH230984   0.775   5.593  11.593  0.0528 -0.1501  0.1326
 3190TIP3    H130985   0.784   5.674  11.544  0.7358 -0.5193 -0.3759
 3190TIP3    H230986   0.705   5.545  11.549 -1.6366  0.9266  1.5412
 3191TIP3   OH230987   6.452   3.193   1.502  0.0874  0.0714  0.2584
 3191TIP3    H130988   6.523   3.129   1.505 -0.2791 -0.3380  0.3160
 3191TIP3    H230989   6.415   3.182   1.414  1.5024  1.8406 -0.6229
 3192TIP3   OH230990   5.728   6.368   9.299  0.3944  0.3659  0.2712
 3192TIP3    H130991   5.689   6.385   9.385 -1.5506  1.1781 -0.7008
 3192TIP3    H230992   5.746   6.455   9.263  0.3498  0.0651 -0.5048
 3193TIP3   OH230993   2.407   5.658   2.223 -0.1390  0.9363  0.3640
 3193TIP3    H130994   2.391   5.676   2.315  2.1850 -0.6136  1.1761
 3193TIP3    H230995   2.373   5.569   2.210  0.6586  0.6628  0.0876
 3194TIP3   OH230996   4.805   5.999  12.333  0.2436  0.6294 -0.5464
 3194TIP3    H130997   4.745   6.041  12.394 -1.5556  1.0024 -2.4718
 3194TIP3    H230998   4.874   6.063  12.319  0.2467  0.8599  0.4336
 3195TIP3   OH230999   6.780   0.893  10.214 -0.3347  0.1950  0.6935
 3195TIP3    H131000   6.703   0.923  10.263  0.2512 -0.8847  2.3381
 3195TIP3    H231001   6.854   0.920  10.267  0.2780 -2.0645  1.0781
 3196TIP3   OH231002   6.979   2.724  13.739  0.2661 -0.5240 -0.0921
 3196TIP3    H131003   7.062   2.677  13.744  0.2739 -0.5911 -0.7903
 3196TIP3    H231004   6.921   2.667  13.689 -0.4787 -0.8598  1.1094
 3197TIP3   OH231005   2.635   3.215  11.764  0.2967  0.5092 -0.1705
 3197TIP3    H131006   2.609   3.163  11.841  1.4922  2.0034  1.3068
 3197TIP3    H231007   2.677   3.152  11.706 -2.6720 -1.1517 -0.7657
 3198TIP3   OH231008   6.593   2.174  15.169  0.0561  0.2286  0.0297
 3198TIP3    H131009   6.573   2.233  15.096  1.1189 -0.2260 -0.6504
 3198TIP3    H231010   6.677   2.135  15.147 -0.3438 -1.1252  0.7383
 3199TIP3   OH231011   4.293   5.366  11.429  0.1320  0.1860 -0.2938
 3199TIP3    H131012   4.386   5.386  11.421  0.4445 -0.7455  0.7879
 3199TIP3    H231013   4.267   5.334  11.343  1.2276 -1.1533 -0.1621
 3200TIP3   OH231014   0.102   4.914  10.106 -0.4062 -0.3046 -0.1852
 3200TIP3    H131015   0.035   4.851  10.081 -1.4638  0.4521  0.6717
 3200TIP3    H231016   0.177   4.860  10.132  0.7801 -1.2113 -4.5238
 3201TIP3   OH231017   5.982   3.436  14.316  0.6185  0.0676 -0.2434
 3201TIP3    H131018   5.999   3.354  14.270 -0.4194 -0.6678  0.6489
 3201TIP3    H231019   6.023   3.503  14.260  2.2358 -1.1085 -0.5627
 3202TIP3   OH231020   6.914   3.062  12.045  0.4903 -0.2450 -0.4444
 3202TIP3    H131021   6.894   3.024  11.959 -0.4816  0.8721 -0.7254
 3202TIP3    H231022   7.009   3.072  12.044  0.5128 -0.4222 -1.3181
 3203TIP3   OH231023   3.109   3.761   2.783  0.3157 -0.0264 -0.3122
 3203TIP3    H131024   3.136   3.842   2.826 -0.1417 -0.7108  1.3583
 3203TIP3    H231025   3.022   3.780   2.749 -0.9858 -0.5006  2.4065
 3204TIP3   OH231026   3.718   6.349  15.054 -0.5154 -0.3032  0.5612
 3204TIP3    H131027   3.624   6.336  15.059 -0.6575  0.2128 -0.4695
 3204TIP3    H231028   3.736   6.421  15.115 -0.8024 -0.3427  0.6936
 3205TIP3   OH231029   3.236   5.468  11.444 -0.3540  0.0604  0.1230
 3205TIP3    H131030   3.261   5.553  11.409 -0.0372  0.4001  1.1534
 3205TIP3    H231031   3.163   5.440  11.389 -0.3737  0.9351 -0.3077
 3206TIP3   OH231032   3.241   0.913   3.306 -0.6031  0.1515  0.3056
 3206TIP3    H131033   3.278   0.866   3.232  0.5152  0.8578  0.3770
 3206TIP3    H231034   3.219   1.000   3.271 -2.0224 -0.1801  0.3255
 3207TIP3   OH231035   0.087   4.455  12.708  0.2120 -0.2860 -0.9718
 3207TIP3    H131036   0.073   4.361  12.722  0.8387 -0.1429  1.0420
 3207TIP3    H231037   0.015   4.497  12.754 -0.3964  0.2383 -2.3658
 3208TIP3   OH231038   4.812   4.715   9.984 -0.1896 -0.4136  0.3524
 3208TIP3    H131039   4.840   4.682   9.899 -0.9429 -1.9294  0.6528
 3208TIP3    H231040   4.764   4.795   9.964  1.4038  0.3759 -0.4453
 3209TIP3   OH231041   4.181   6.225   2.263 -0.4205  0.2700 -0.2513
 3209TIP3    H131042   4.223   6.310   2.248 -1.1176  0.6727  0.0072
 3209TIP3    H231043   4.135   6.236   2.347 -2.6599  0.5062 -1.4433
 3210TIP3   OH231044   7.078   2.609  11.126 -0.2291 -0.2527  0.2381
 3210TIP3    H131045   7.025   2.627  11.203 -1.1287  3.7608 -1.0715
 3210TIP3    H231046   7.024   2.551  11.072 -2.3642  1.7528  0.0493
 3211TIP3   OH231047   4.209   2.180   0.344  0.3049 -0.9080  0.0798
 3211TIP3    H131048   4.128   2.129   0.341  0.0672 -0.5099 -0.5686
 3211TIP3    H231049   4.187   2.258   0.395  0.5529 -1.2479  0.7171
 3212TIP3   OH231050   5.026   0.223   0.770  0.4481  0.1164 -0.9137
 3212TIP3    H131051   5.050   0.233   0.862 -0.1622 -0.5409 -0.6729
 3212TIP3    H231052   4.931   0.234   0.768  0.5947  1.3759 -1.6585
 3213TIP3   OH231053   6.356   7.124  10.822  0.0736  0.2740 -0.3002
 3213TIP3    H131054   6.351   7.037  10.862  0.3999  0.6306  0.5575
 3213TIP3    H231055   6.266   7.157  10.825 -0.2415 -0.4307 -1.5789
 3214TIP3   OH231056   3.309   1.926  10.590  0.6874  0.6751 -0.3891
 3214TIP3    H131057   3.218   1.946  10.612  0.3570 -1.2836  0.2596
 3214TIP3    H231058   3.322   1.965  10.504 -0.6931  1.1915 -0.3940
 3215TIP3   OH231059   0.234   0.661  13.029  0.1489  0.0721 -0.9306
 3215TIP3    H131060   0.277   0.598  12.971 -0.9229 -0.6293 -1.0037
 3215TIP3    H231061   0.251   0.628  13.117 -1.2404 -0.9268 -0.9985
 3216TIP3   OH231062   2.914   7.107  11.055 -0.3085 -0.3470 -0.2168
 3216TIP3    H131063   2.875   7.112  11.142 -0.5789  2.5919 -0.4036
 3216TIP3    H231064   2.840   7.112  10.995 -0.0001  3.3675 -0.5465
 3217TIP3   OH231065   6.997   6.435  10.208 -0.0658 -0.1329 -0.1265
 3217TIP3    H131066   7.072   6.394  10.166  1.1017  0.1872  1.5528
 3217TIP3    H231067   7.007   6.415  10.301 -0.7602  1.9161  0.4437
 3218TIP3   OH231068   3.653   5.285   9.871  0.1837  0.0286  0.5087
 3218TIP3    H131069   3.718   5.292   9.801  2.4283 -0.5880  2.4038
 3218TIP3    H231070   3.664   5.365   9.922 -1.2063  0.3282  0.3694
 3219TIP3   OH231071   2.968   2.609   1.745 -0.5204  0.6899  0.1518
 3219TIP3    H131072   2.909   2.534   1.749  0.6241 -0.2757 -0.5515
 3219TIP3    H231073   2.911   2.682   1.721 -1.6266  0.0366  0.6570
 3220TIP3   OH231074   5.327   6.917  10.152 -0.0971 -0.2869  0.2300
 3220TIP3    H131075   5.326   6.834  10.200  0.6026  0.2376  1.1715
 3220TIP3    H231076   5.408   6.960  10.178 -0.6497  0.8927  0.0888
 3221TIP3   OH231077   3.293   6.641  12.192 -0.3331 -0.1172  0.2970
 3221TIP3    H131078   3.293   6.654  12.097 -0.1749  1.1222  0.4583
 3221TIP3    H231079   3.381   6.668  12.220 -0.2869 -0.7295  0.7689
 3222TIP3   OH231080   0.735   4.997   0.319 -0.6967 -0.3883  0.4474
 3222TIP3    H131081   0.752   4.906   0.341  1.5908  0.3892  2.3171
 3222TIP3    H231082   0.787   5.047   0.382 -1.3270  2.2104 -0.9549
 3223TIP3   OH231083   4.131   7.157  11.274  0.4340 -0.0183  0.2535
 3223TIP3    H131084   4.179   7.219  11.329  0.3953 -0.4859  0.8249
 3223TIP3    H231085   4.136   7.074  11.322 -0.3718 -0.2232 -0.0060
 3224TIP3   OH231086   1.106   1.218   9.662 -0.3285  0.6147 -0.5777
 3224TIP3    H131087   1.038   1.276   9.628 -1.8248 -0.9304 -0.3422
 3224TIP3    H231088   1.150   1.184   9.585  0.1351  1.5467 -0.7365
 3225TIP3   OH231089   0.773   0.502   1.614 -0.5860  0.8553  0.2628
 3225TIP3    H131090   0.759   0.596   1.609 -2.1938  0.7079  1.0851
 3225TIP3    H231091   0.775   0.483   1.708 -0.9239  0.0026  0.1118
 3226TIP3   OH231092   6.852   1.906  11.584  0.1460  0.3844 -0.3507
 3226TIP3    H131093   6.782   1.840  11.579  0.3126  0.2092 -0.4006
 3226TIP3    H231094   6.821   1.978  11.530 -0.0097  0.3200 -0.3497
 3227TIP3   OH231095   4.114   3.437  12.962 -0.5870 -0.6553  0.4397
 3227TIP3    H131096   4.049   3.374  12.929 -0.0022 -0.5941 -0.9289
 3227TIP3    H231097   4.095   3.445  13.055 -2.7665 -0.3810  0.0412
 3228TIP3   OH231098   0.938   6.002  13.521  0.7384  0.4268  0.6145
 3228TIP3    H131099   0.903   6.034  13.604 -2.1961  1.5436 -0.9362
 3228TIP3    H231100   0.984   5.921  13.544 -1.0191  0.0433  3.1587
 3229TIP3   OH231101   5.960   6.296   9.841  0.1638 -0.6955 -0.0527
 3229TIP3    H131102   5.929   6.215   9.882 -1.6062  0.4882  1.1043
 3229TIP3    H231103   5.989   6.350   9.914  2.8121 -0.7845 -0.9256
 3230TIP3   OH231104   6.823   5.342  12.089 -0.2171 -0.3716  0.4523
 3230TIP3    H131105   6.819   5.337  11.993  1.0890  0.9616  0.2926
 3230TIP3    H231106   6.899   5.397  12.107 -1.0643  0.2963  2.2532
 3231TIP3   OH231107   5.535   5.472  14.058 -0.1432 -0.1626  0.3990
 3231TIP3    H131108   5.482   5.468  13.979  1.2933  0.9943 -0.6680
 3231TIP3    H231109   5.587   5.551  14.049  1.8096 -1.2539  1.3609
 3232TIP3   OH231110   0.186   3.121  13.144  0.3302  0.4964  0.1602
 3232TIP3    H131111   0.157   3.189  13.084 -0.0544 -0.2460 -0.5050
 3232TIP3    H231112   0.240   3.168  13.208 -1.1347  1.6733  0.5919
 3233TIP3   OH231113   6.609   2.303   3.182 -0.0199  0.6410 -0.2738
 3233TIP3    H131114   6.694   2.266   3.158  0.8112  2.1696  0.2424
 3233TIP3    H231115   6.601   2.382   3.128 -0.3221  1.4586  0.9367
 3234TIP3   OH231116   4.155   4.006  11.876  0.4438 -0.0620  0.2789
 3234TIP3    H131117   4.166   4.048  11.791  1.0463  3.0164  1.6991
 3234TIP3    H231118   4.244   3.994  11.909  0.2244 -1.2241  0.4937
 3235TIP3   OH231119   5.768   5.488  11.637  0.5526  0.0164  0.5526
 3235TIP3    H131120   5.802   5.570  11.672  1.9156 -0.3204  0.0483
 3235TIP3    H231121   5.842   5.428  11.637  0.1706 -0.5303 -1.2539
 3236TIP3   OH231122   4.394   0.866   0.219 -0.4179  0.0591 -0.1335
 3236TIP3    H131123   4.487   0.880   0.203 -0.1893  0.4485  1.3451
 3236TIP3    H231124   4.354   0.953   0.211 -0.9109 -0.3042 -2.0877
 3237TIP3   OH231125   2.841   2.949  11.869  0.1654  0.5218  0.0050
 3237TIP3    H131126   2.922   2.960  11.919  0.3641  0.2794 -0.2597
 3237TIP3    H231127   2.833   2.854  11.856 -0.0811  0.5555 -0.0942
 3238TIP3   OH231128   1.380   1.670   0.061 -0.1370  0.2694  0.1510
 3238TIP3    H131129   1.308   1.624   0.018 -1.0625 -0.3476  2.2383
 3238TIP3    H231130   1.394   1.622   0.142  2.3830  0.6337  0.0024
 3239TIP3   OH231131   1.128   2.858  10.949 -0.0450 -0.3536  0.0137
 3239TIP3    H131132   1.202   2.879  10.892 -0.5486 -0.9312 -0.8844
 3239TIP3    H231133   1.076   2.938  10.951  1.1505  0.4505  1.5859
 3240TIP3   OH231134   4.783   5.648  13.542 -0.3107  0.1566 -0.2003
 3240TIP3    H131135   4.870   5.687  13.531 -0.9518  1.0035 -3.1361
 3240TIP3    H231136   4.736   5.710  13.598  0.4301  0.7019 -0.1653
 3241TIP3   OH231137   5.755   3.042   9.472 -0.2978 -0.3098  0.6505
 3241TIP3    H131138   5.716   2.954   9.469 -1.2470  0.0602  1.5455
 3241TIP3    H231139   5.794   3.053   9.385  0.5481 -1.9221  0.7884
 3242TIP3   OH231140   0.396   3.797  12.742  0.1777 -0.3160 -0.5686
 3242TIP3    H131141   0.332   3.797  12.671 -1.3910  1.9332  0.6947
 3242TIP3    H231142   0.364   3.731  12.803 -1.1765  0.9617  0.1705
 3243TIP3   OH231143   3.424   5.520  12.514 -0.4599 -0.7053 -0.3184
 3243TIP3    H131144   3.389   5.436  12.484  2.8364 -1.6293 -2.1463
 3243TIP3    H231145   3.518   5.513  12.497 -0.0905  3.5496 -1.0484
 3244TIP3   OH231146   5.518   6.574  14.088 -0.0419 -0.4284  0.1224
 3244TIP3    H131147   5.521   6.623  14.170  0.3904 -0.4680  0.1335
 3244TIP3    H231148   5.427   6.544  14.081  0.0272 -0.8253  0.8267
 3245TIP3   OH231149   6.161   3.045   0.042  0.1111  0.4679 -0.1322
 3245TIP3    H131150   6.190   2.955   0.052  0.2022  0.5323  0.1890
 3245TIP3    H231151   6.212   3.094   0.106 -0.1127  0.7098 -0.1379
 3246TIP3   OH231152   3.784   5.170  10.473 -0.3737  1.0901  0.2409
 3246TIP3    H131153   3.851   5.116  10.516 -1.0209  0.7121  0.8039
 3246TIP3    H231154   3.792   5.148  10.380 -1.4825 -1.0205  0.5723
 3247TIP3   OH231155   0.312   1.991   9.618  0.0943  0.4481  0.2141
 3247TIP3    H131156   0.329   2.081   9.590  0.6133  0.2256 -0.2140
 3247TIP3    H231157   0.222   1.993   9.651 -0.7828  0.6246 -2.0041
 3248TIP3   OH231158   4.040   1.169  10.637  0.2117  0.1702  0.1421
 3248TIP3    H131159   4.014   1.258  10.662 -0.5564  1.2557 -3.7765
 3248TIP3    H231160   3.970   1.113  10.670 -1.4535  1.6205 -0.7516
 3249TIP3   OH231161   0.156   2.510  14.068  0.4351 -0.2841  0.2257
 3249TIP3    H131162   0.227   2.447  14.062  0.3280 -0.2786 -1.3299
 3249TIP3    H231163   0.193   2.592  14.035 -0.0341 -0.0551  0.2577
 3250TIP3   OH231164   2.711   4.596  11.534  0.7120 -0.2216  0.0806
 3250TIP3    H131165   2.622   4.565  11.547  0.5807 -0.8403 -2.0105
 3250TIP3    H231166   2.705   4.659  11.462  1.8806  0.1909  0.3077
 3251TIP3   OH231167   6.779   3.805  11.213  0.5177 -0.1327  0.0937
 3251TIP3    H131168   6.701   3.851  11.183  1.3546  1.5966  0.4332
 3251TIP3    H231169   6.804   3.851  11.293 -0.2981 -3.0972  2.2459
 3252TIP3   OH231170   5.144   1.487  12.737  0.0573 -0.5282 -0.2952
 3252TIP3    H131171   5.068   1.466  12.683  1.0064 -1.7374 -1.2559
 3252TIP3    H231172   5.204   1.413  12.722  1.1318  0.0603  0.9485
 3253TIP3   OH231173   3.480   5.345  14.080  0.2276 -0.2859  0.7066
 3253TIP3    H131174   3.413   5.279  14.062 -2.2939  1.6126  2.3464
 3253TIP3    H231175   3.492   5.341  14.175  0.8067  0.9070  0.6941
 3254TIP3   OH231176   4.955   5.109   2.349 -0.6773 -0.0198  0.2224
 3254TIP3    H131177   5.020   5.167   2.388  0.8199 -0.3453 -1.6411
 3254TIP3    H231178   4.899   5.082   2.422 -1.2287  3.3955  1.2437
 3255TIP3   OH231179   3.809   1.300  10.839 -0.7629 -0.5047  0.0764
 3255TIP3    H131180   3.883   1.240  10.849 -0.9015 -1.7118 -4.2162
 3255TIP3    H231181   3.732   1.242  10.834 -1.2212  0.1730 -1.4094
 3256TIP3   OH231182   3.563   5.906  14.846 -0.3555 -0.3141  0.1831
 3256TIP3    H131183   3.507   5.982  14.864 -0.9361 -0.8325  0.6279
 3256TIP3    H231184   3.549   5.848  14.921 -1.2822 -1.6521 -0.9601
 3257TIP3   OH231185   1.420   2.222   9.591  0.1122  0.1129 -0.0431
 3257TIP3    H131186   1.402   2.160   9.662 -1.0907 -1.6877 -1.7918
 3257TIP3    H231187   1.505   2.195   9.557 -0.1025 -0.1657 -0.3690
 3258TIP3   OH231188   5.085   6.963  10.372  1.2244  0.8057  0.0831
 3258TIP3    H131189   5.094   7.057  10.390 -0.3015  0.9806  0.0230
 3258TIP3    H231190   5.032   6.959  10.293  1.4423 -0.1211 -0.0237
 3259TIP3   OH231191   1.256   5.967  12.854 -0.4510 -0.3248 -0.1193
 3259TIP3    H131192   1.182   5.918  12.889 -1.8453  0.7075 -1.5292
 3259TIP3    H231193   1.228   5.995  12.767  1.7641 -0.2625 -0.8761
 3260TIP3   OH231194   1.343   6.911  10.727 -0.3281 -0.2825  0.0063
 3260TIP3    H131195   1.314   6.862  10.650  1.1440 -1.1320 -0.0350
 3260TIP3    H231196   1.432   6.882  10.742 -0.1191  0.8920  1.2311
 3261TIP3   OH231197   6.513   6.861  10.712 -0.0248 -0.4421 -0.5656
 3261TIP3    H131198   6.567   6.795  10.755  0.1642  0.9726  1.5639
 3261TIP3    H231199   6.576   6.921  10.671 -0.0287  0.0309  0.0925
 3262TIP3   OH231200   6.414   6.978  11.503 -0.0786 -0.1032  0.1081
 3262TIP3    H131201   6.349   6.934  11.447  1.3166 -1.5257 -0.4690
 3262TIP3    H231202   6.367   6.998  11.584 -1.4825 -0.2121 -0.6472
 3263TIP3   OH231203   3.493   0.696  13.772  0.5271  0.0704  0.3232
 3263TIP3    H131204   3.501   0.764  13.705  1.2186  0.3445  0.6714
 3263TIP3    H231205   3.491   0.614  13.723  0.8612  0.2777 -0.0443
 3264TIP3   OH231206   2.907   5.333   9.375  0.1593  0.2432  0.1626
 3264TIP3    H131207   2.869   5.304   9.293  0.6158 -0.1885  0.0974
 3264TIP3    H231208   2.835   5.376   9.422 -0.5263 -0.9416  0.2342
 3265TIP3   OH231209   1.843   7.110  13.800 -1.1527 -0.2894  0.4545
 3265TIP3    H131210   1.865   7.090  13.891  1.9649 -2.7990 -0.6581
 3265TIP3    H231211   1.792   7.190  13.805  0.4641  0.7441  4.2871
 3266TIP3   OH231212   1.171   3.774  12.157 -0.8415 -0.1130 -0.3098
 3266TIP3    H131213   1.246   3.715  12.149  0.3658  1.5897 -3.7618
 3266TIP3    H231214   1.210   3.858  12.182 -1.8537  0.3422 -0.2318
 3267TIP3   OH231215   3.818   1.453   1.102  0.0402 -0.6751 -0.1880
 3267TIP3    H131216   3.734   1.412   1.123 -0.7242  0.8188 -0.1641
 3267TIP3    H231217   3.797   1.518   1.035  1.5083 -1.5003 -1.5188
 3268TIP3   OH231218   1.903   3.015   3.604  0.0882  0.3827 -0.1978
 3268TIP3    H131219   1.920   2.978   3.691 -1.1150 -0.6374 -0.3554
 3268TIP3    H231220   1.897   2.938   3.547  0.4536  1.0215 -1.1132
 3269TIP3   OH231221   3.047   6.486  11.002  0.9933 -0.4686  0.1940
 3269TIP3    H131222   3.013   6.422  11.064 -0.8558 -1.0107 -1.3028
 3269TIP3    H231223   3.128   6.447  10.970 -0.8723 -2.9797 -1.8919
 3270TIP3   OH231224   1.690   2.754  13.919 -0.6305 -0.4099 -0.9041
 3270TIP3    H131225   1.626   2.712  13.975 -0.7679 -0.1129 -0.8376
 3270TIP3    H231226   1.746   2.804  13.979 -0.2993 -0.7190 -0.9552
 3271TIP3   OH231227   2.463   3.803  10.239 -0.3682  0.4557 -0.8968
 3271TIP3    H131228   2.411   3.728  10.209 -0.4036  0.9610 -2.1221
 3271TIP3    H231229   2.398   3.866  10.270 -0.3148 -0.2747  0.8561
 3272TIP3   OH231230   4.397   4.006   3.098 -0.0825  0.4211 -0.5505
 3272TIP3    H131231   4.478   3.965   3.127 -1.1013 -1.8726 -0.7412
 3272TIP3    H231232   4.409   4.099   3.117  2.0045 -0.0493  0.7549
 3273TIP3   OH231233   0.331   0.675  11.555 -0.2045 -0.8359 -0.1658
 3273TIP3    H131234   0.332   0.706  11.465  1.2851 -3.2540 -1.0683
 3273TIP3    H231235   0.385   0.738  11.603  1.5562 -1.1711 -1.6222
 3274TIP3   OH231236   5.644   2.597   2.919 -0.5884 -0.3971  0.4960
 3274TIP3    H131237   5.694   2.672   2.889  0.9647 -2.8059 -3.9270
 3274TIP3    H231238   5.553   2.627   2.920 -0.2513  1.1747 -3.0905
 3275TIP3   OH231239   4.197   5.288  11.200 -0.3249  0.1354 -0.3124
 3275TIP3    H131240   4.178   5.205  11.157 -0.5254 -0.6926  1.2671
 3275TIP3    H231241   4.188   5.354  11.132  1.6745 -1.2839 -2.0727
 3276TIP3   OH231242   5.621   1.860  11.162  0.8865  0.2113  0.0729
 3276TIP3    H131243   5.541   1.903  11.130  0.3706  0.0488  1.0891
 3276TIP3    H231244   5.621   1.775  11.118  1.3467  0.8108 -1.1286
 3277TIP3   OH231245   3.407   0.894  15.465  0.7154  1.0162 -0.2952
 3277TIP3    H131246   3.470   0.865  15.399 -1.0854  1.5871 -2.3801
 3277TIP3    H231247   3.444   0.865  15.549  2.3634 -1.0694 -1.6627
 3278TIP3   OH231248   0.671   1.027   3.879  0.6988 -0.1333  0.0588
 3278TIP3    H131249   0.586   1.064   3.853  0.6683  1.2422  1.9639
 3278TIP3    H231250   0.649   0.938   3.908  0.4218 -0.9175 -2.2971
 3279TIP3   OH231251   1.653   2.033  11.028  0.4754 -0.0681  0.4276
 3279TIP3    H131252   1.721   2.099  11.025  0.5632  0.0628  2.8254
 3279TIP3    H231253   1.572   2.081  11.012  0.4745  0.8362  2.7188
 3280TIP3   OH231254   6.750   3.298  10.571  0.0427  0.3015 -0.0924
 3280TIP3    H131255   6.765   3.223  10.628  0.2799 -0.1248 -0.7038
 3280TIP3    H231256   6.793   3.371  10.617 -2.3583  0.6604  1.7695
 3281TIP3   OH231257   4.408   5.709  12.485 -0.4140  0.0226 -0.2691
 3281TIP3    H131258   4.329   5.752  12.515  0.7749  0.0818  3.1495
 3281TIP3    H231259   4.406   5.622  12.526  1.2025 -0.0157 -0.2034
 3282TIP3   OH231260   4.984   4.483  12.455  0.2761 -0.3114 -0.0259
 3282TIP3    H131261   4.907   4.430  12.473 -0.5661  1.0905  0.5991
 3282TIP3    H231262   4.995   4.478  12.360 -0.9318 -0.0707 -0.1921
 3283TIP3   OH231263   4.119   6.111  11.361  0.2826 -1.0466 -0.0190
 3283TIP3    H131264   4.095   6.183  11.303  0.5492 -1.1667 -0.2796
 3283TIP3    H231265   4.209   6.130  11.386  0.1977 -1.0416  0.2912
 3284TIP3   OH231266   6.674   4.538   9.773  0.0636 -0.2507  0.5339
 3284TIP3    H131267   6.701   4.453   9.808 -0.3657 -0.7594 -0.3573
 3284TIP3    H231268   6.730   4.601   9.819 -0.2121 -0.9239  1.8419
 3285TIP3   OH231269   5.746   6.821  15.428  0.1433  0.1032  0.1740
 3285TIP3    H131270   5.660   6.815  15.387  0.7721  1.5670 -1.5026
 3285TIP3    H231271   5.729   6.810  15.521 -1.6125 -1.4026 -0.2709
 3286TIP3   OH231272   3.617   1.127  14.511 -0.1637 -0.1126  0.0044
 3286TIP3    H131273   3.662   1.182  14.446  0.3115 -1.7815 -1.1324
 3286TIP3    H231274   3.683   1.063  14.538 -0.7923 -0.3217  1.0780
 3287TIP3   OH231275   4.341   0.515   2.152 -0.2345 -0.1139 -0.1668
 3287TIP3    H131276   4.298   0.450   2.208 -0.5575  0.2921  0.0695
 3287TIP3    H231277   4.362   0.468   2.072  0.0041 -0.6390  0.1983
 3288TIP3   OH231278   2.721   0.078   1.089  0.3669 -0.4943  0.8637
 3288TIP3    H131279   2.766  -0.004   1.110 -0.1053 -1.6511 -2.0875
 3288TIP3    H231280   2.639   0.073   1.139  1.6454 -0.3008  3.0895
 3289TIP3   OH231281   3.626   1.963  11.001  0.5475 -0.2387 -0.3765
 3289TIP3    H131282   3.653   2.052  10.979  0.5302 -0.0491  0.3286
 3289TIP3    H231283   3.532   1.971  11.021  1.3333  0.5680  4.2197
 3290TIP3   OH231284   5.935   1.993  12.049 -0.9467 -0.0400  0.3971
 3290TIP3    H131285   5.857   1.998  11.994 -1.6358 -0.6441  1.2980
 3290TIP3    H231286   5.953   1.899  12.057  0.7485  0.1219 -0.9911
 3291TIP3   OH231287   4.077   2.433   0.756 -0.8246 -0.0434  0.0552
 3291TIP3    H131288   4.106   2.420   0.846 -1.6681 -1.2589  0.1844
 3291TIP3    H231289   4.074   2.528   0.744  0.0959  0.1272  1.0249
 3292TIP3   OH231290   3.264   6.358  12.184 -0.2942  0.0570 -0.5529
 3292TIP3    H131291   3.293   6.450  12.192 -0.8714  0.2001 -0.0165
 3292TIP3    H231292   3.279   6.321  12.271 -1.2167 -0.0133 -0.4139
 3293TIP3   OH231293   3.758   3.941  14.068  0.1606  0.1017 -0.5074
 3293TIP3    H131294   3.685   3.991  14.103 -0.5041 -0.3577 -1.2157
 3293TIP3    H231295   3.780   3.879  14.138  0.5087  0.8718  0.0805
 3294TIP3   OH231296   4.578   1.348   2.138  0.5523  0.2769  0.3827
 3294TIP3    H131297   4.494   1.389   2.117  0.3470 -0.5026 -0.4015
 3294TIP3    H231298   4.642   1.418   2.129  0.2111  0.4539 -0.9338
 3295TIP3   OH231299   0.936   0.653  15.203 -0.3762 -0.7118  0.3630
 3295TIP3    H131300   1.027   0.634  15.224  1.0286  1.7571 -2.6158
 3295TIP3    H231301   0.912   0.722  15.264  0.5547  0.1241 -0.1717
 3296TIP3   OH231302   4.106   5.157  10.319 -0.0580  0.2488  0.5804
 3296TIP3    H131303   4.197   5.188  10.324 -0.5878  2.1125 -0.4774
 3296TIP3    H231304   4.088   5.123  10.406  1.7237 -0.3891  0.7463
 3297TIP3   OH231305   0.610   5.872   1.057 -0.1233  0.0796  0.9883
 3297TIP3    H131306   0.635   5.855   0.966 -0.3606 -0.9580  1.0984
 3297TIP3    H231307   0.687   5.916   1.095  0.6893 -1.0468  0.7262
 3298TIP3   OH231308   6.570   4.380  12.958 -0.0659  0.2532  0.1282
 3298TIP3    H131309   6.495   4.347  12.907 -1.4139  0.9673  1.5662
 3298TIP3    H231310   6.558   4.342  13.045  1.4605  0.1239  0.3035
 3299TIP3   OH231311   1.517   1.019  11.568  0.5276 -0.1205  0.5623
 3299TIP3    H131312   1.577   1.060  11.630  0.5436  1.9851 -0.7417
 3299TIP3    H231313   1.570   1.007  11.489 -0.5781  1.3119 -0.4429
 3300TIP3   OH231314   3.831   6.093  11.346  0.4127 -0.1327  0.7121
 3300TIP3    H131315   3.798   6.063  11.261  1.0922  0.0799  0.3655
 3300TIP3    H231316   3.924   6.109  11.331  0.4664  0.2362  1.4115
 3301TIP3   OH231317   4.498   1.677  11.111  0.1237  0.3914  0.0557
 3301TIP3    H131318   4.542   1.594  11.094 -1.0400 -0.5840  1.5536
 3301TIP3    H231319   4.454   1.699  11.029  0.3583 -0.5275 -0.3248
 3302TIP3   OH231320   6.182   1.331  10.516  0.5928 -0.4008 -0.4081
 3302TIP3    H131321   6.236   1.366  10.445 -1.3682  0.5153 -1.5193
 3302TIP3    H231322   6.110   1.394  10.525 -0.1571 -1.4264  1.1917
 3303TIP3   OH231323   0.192   5.810  13.906 -0.1440 -0.5066 -0.1520
 3303TIP3    H131324   0.181   5.904  13.895  0.1220 -0.2847  1.2666
 3303TIP3    H231325   0.117   5.771  13.862 -0.4856  0.3972 -0.3807
 3304TIP3   OH231326   0.215   4.752   0.530  0.0558  0.7425  0.0832
 3304TIP3    H131327   0.159   4.829   0.522 -1.1467 -0.1777 -0.5082
 3304TIP3    H231328   0.269   4.753   0.451  0.2732  1.1253  0.2278
 3305TIP3   OH231329   4.372   4.628  10.144  0.0651  0.0581  0.6132
 3305TIP3    H131330   4.422   4.678  10.209  0.8314  1.3252 -0.8812
 3305TIP3    H231331   4.435   4.609  10.075 -1.2333  0.8029 -0.8437
 3306TIP3   OH231332   0.024   4.946  13.235  0.6745  0.7116 -0.4274
 3306TIP3    H131333   0.073   5.028  13.239  3.5369 -0.7241 -2.2401
 3306TIP3    H231334   0.027   4.922  13.142  0.4876 -1.7262  0.1372
 3307TIP3   OH231335   6.876   1.933  11.064  0.4281 -0.1588 -0.3686
 3307TIP3    H131336   6.860   1.873  10.990  0.6319  0.7993 -1.2081
 3307TIP3    H231337   6.907   1.876  11.134  1.4490 -0.9498 -1.4201
 3308TIP3   OH231338   4.139   5.157  11.558 -0.2065 -0.0096  0.2811
 3308TIP3    H131339   4.177   5.230  11.508 -1.8552  0.5426 -0.2374
 3308TIP3    H231340   4.111   5.095  11.491 -1.8933  0.4610  0.5197
 3309TIP3   OH231341   4.625   6.132  12.697 -0.2807  0.4908 -0.2906
 3309TIP3    H131342   4.659   6.218  12.721 -1.3035  0.9168 -0.3258
 3309TIP3    H231343   4.626   6.132  12.601  0.9305 -0.0495 -0.3038
 3310TIP3   OH231344   3.497   2.956  10.272 -0.1969 -0.1402 -0.9964
 3310TIP3    H131345   3.411   2.991  10.296 -0.0459 -0.1135 -0.4674
 3310TIP3    H231346   3.536   3.025  10.218 -0.9696 -0.6574 -2.2672
 3311TIP3   OH231347   2.993   7.066  14.919  0.5533  0.2560 -0.7308
 3311TIP3    H131348   2.924   7.132  14.927  1.4110  1.3037 -1.5372
 3311TIP3    H231349   2.959   6.989  14.965 -0.3955  1.3180  0.4078
 3312TIP3   OH231350   1.005   3.840  11.245  0.1874  0.4518 -0.4655
 3312TIP3    H131351   1.056   3.759  11.245 -0.2033  0.1740  0.7063
 3312TIP3    H231352   0.980   3.852  11.337  0.1380  1.8442 -0.6334
 3313TIP3   OH231353   2.639   5.065  10.868  0.1316  0.1728  0.1279
 3313TIP3    H131354   2.559   5.106  10.835 -0.0972  0.2988  0.8226
 3313TIP3    H231355   2.704   5.135  10.867 -0.3926  0.7322  1.8087
 3314TIP3   OH231356   5.956   1.525   3.132  0.4048  0.1277  0.2174
 3314TIP3    H131357   5.911   1.583   3.193 -1.5460 -1.0365 -0.0233
 3314TIP3    H231358   6.028   1.488   3.182 -0.1334  0.4871  1.2896
 3315TIP3   OH231359   3.692   7.145   9.418 -0.7841  0.1133  0.2535
 3315TIP3    H131360   3.654   7.079   9.360  0.5503 -0.3010 -0.1714
 3315TIP3    H231361   3.691   7.104   9.505  0.8688 -0.8680 -0.1500
 3316TIP3   OH231362   3.298   4.712  12.641 -0.9916  0.8649  0.0173
 3316TIP3    H131363   3.238   4.785  12.625 -1.2277  0.8436  0.7410
 3316TIP3    H231364   3.283   4.689  12.733 -0.1344  0.6160  0.1030
 3317TIP3   OH231365   1.811   4.004  14.423 -0.5574 -0.2394 -0.6341
 3317TIP3    H131366   1.883   3.977  14.480 -0.8067  1.0620  0.3431
 3317TIP3    H231367   1.749   3.931  14.426  0.2009 -0.9036 -0.6099
 3318TIP3   OH231368   7.024   5.240  15.075 -0.2357  0.0832 -0.6648
 3318TIP3    H131369   7.081   5.171  15.110 -2.1497 -1.7758 -1.0009
 3318TIP3    H231370   7.082   5.293  15.021  1.3032 -1.3594 -0.5339
 3319TIP3   OH231371   4.122   0.816   0.592  0.0076  0.2520 -0.3136
 3319TIP3    H131372   4.198   0.761   0.611  1.0901  1.9856  0.6873
 3319TIP3    H231373   4.123   0.827   0.497  0.1571 -0.8673 -0.4554
 3320TIP3   OH231374   0.810   1.674   0.531 -0.6291 -0.1032  0.0247
 3320TIP3    H131375   0.773   1.597   0.488 -1.5582  1.6067 -2.4067
 3320TIP3    H231376   0.735   1.731   0.548 -0.0821 -0.0225  2.6562
 3321TIP3   OH231377   7.138   0.829   9.429  0.9483 -0.3316  0.6431
 3321TIP3    H131378   7.227   0.843   9.461  0.0605  0.5201  2.9352
 3321TIP3    H231379   7.107   0.754   9.480 -0.3221  0.6963  1.4360
 3322TIP3   OH231380   6.882   6.486  12.524 -0.5920  0.0289 -0.4379
 3322TIP3    H131381   6.832   6.566  12.506 -0.7392 -0.2839 -1.4812
 3322TIP3    H231382   6.896   6.447  12.438  0.0220 -0.7499  0.0053
 3323TIP3   OH231383   4.970   4.586   0.651 -0.5099 -0.2185  0.1942
 3323TIP3    H131384   4.956   4.534   0.572  0.6114  0.5628 -0.5525
 3323TIP3    H231385   4.915   4.664   0.637  0.6991  0.5421 -0.4559
 3324TIP3   OH231386   1.706   2.108   0.200  0.1871 -0.0711  0.4862
 3324TIP3    H131387   1.792   2.065   0.203  0.7401  0.6291 -2.1825
 3324TIP3    H231388   1.675   2.094   0.110 -1.6820  1.2244  0.8518
 3325TIP3   OH231389   6.108   6.686   9.354  0.1263 -0.4255 -0.5159
 3325TIP3    H131390   6.121   6.602   9.309 -1.8149 -0.3124 -1.4206
 3325TIP3    H231391   6.015   6.706   9.340  0.4967  1.8060 -0.2019
 3326TIP3   OH231392   1.793   6.943  12.278  0.4240 -0.4484  0.0603
 3326TIP3    H131393   1.782   7.030  12.316 -0.9803  0.5440 -2.3993
 3326TIP3    H231394   1.769   6.882  12.349  0.8754  1.1447  1.6467
 3327TIP3   OH231395   4.626   3.132   0.207 -0.2865  0.3620 -0.0049
 3327TIP3    H131396   4.583   3.217   0.198 -1.0742 -0.0054  0.1351
 3327TIP3    H231397   4.625   3.115   0.301 -1.0720 -0.2523 -0.1094
 3328TIP3   OH231398   4.079   0.804  10.835  0.0392  0.2156  0.2795
 3328TIP3    H131399   4.142   0.834  10.901  0.5923 -2.0560  0.8881
 3328TIP3    H231400   4.058   0.714  10.862 -0.5470 -0.4043 -2.0641
 3329TIP3   OH231401   1.276   1.715  12.961 -0.1674 -0.0435  0.2302
 3329TIP3    H131402   1.232   1.723  13.046 -1.1027  2.7870 -0.3944
 3329TIP3    H231403   1.368   1.702  12.982 -0.6368 -1.4195  1.6146
 3330TIP3   OH231404   2.257   1.458  13.678 -0.3453  0.5483  0.3553
 3330TIP3    H131405   2.324   1.410  13.630  0.2635  0.9359  0.8071
 3330TIP3    H231406   2.241   1.536  13.625 -1.1032  0.0194 -0.2143
 3331TIP3   OH231407   2.530   4.094  12.273  0.5008 -0.2041  0.4577
 3331TIP3    H131408   2.493   4.182  12.268  0.4300 -0.1766  1.3521
 3331TIP3    H231409   2.618   4.107  12.309  0.2024 -0.5718  1.3225
 3332TIP3   OH231410   1.010   3.995   0.300 -0.4178 -0.0203  0.0390
 3332TIP3    H131411   1.013   4.051   0.377  1.5331  0.4017 -0.2839
 3332TIP3    H231412   0.947   3.926   0.322 -0.0759  0.2290  1.9029
 3333TIP3   OH231413   1.768   4.807  12.452 -0.0002  0.0195  0.0489
 3333TIP3    H131414   1.746   4.801  12.359  2.8164 -0.3307 -0.6838
 3333TIP3    H231415   1.770   4.901  12.470 -3.0367  0.0902  0.5123
 3334TIP3   OH231416   2.947   1.156   9.763 -0.0409 -0.4790  0.4982
 3334TIP3    H131417   2.947   1.195   9.850  2.4612 -0.7489  0.7027
 3334TIP3    H231418   2.962   1.230   9.704 -1.3225 -0.3558  0.2970
 3335TIP3   OH231419   3.255   4.660  11.291  0.4174 -0.1950  0.4947
 3335TIP3    H131420   3.347   4.637  11.304  0.4061  0.4357  1.8717
 3335TIP3    H231421   3.249   4.753  11.314 -0.5273 -0.1717  0.2165
 3336TIP3   OH231422   4.335   1.575  14.447  0.8296 -0.4924  0.0065
 3336TIP3    H131423   4.245   1.562  14.415  0.9036 -0.9112 -0.0471
 3336TIP3    H231424   4.333   1.539  14.536 -0.1600  3.3222  1.7428
 3337TIP3   OH231425   1.769   2.840   2.680 -0.7011  0.1475 -0.2517
 3337TIP3    H131426   1.675   2.825   2.680 -0.6902  0.0819 -0.5054
 3337TIP3    H231427   1.806   2.765   2.728 -0.9014  0.9538  1.2119
 3338TIP3   OH231428   3.819   0.030  10.128 -0.5611 -0.1341 -0.1971
 3338TIP3    H131429   3.898   0.040  10.181  0.3479 -0.9494 -1.3442
 3338TIP3    H231430   3.747   0.049  10.188  0.4489 -0.5270  1.1778
 3339TIP3   OH231431   1.912   0.467  10.970 -0.3216 -0.4140 -0.4898
 3339TIP3    H131432   1.844   0.430  10.914 -0.7946 -1.0106  0.4329
 3339TIP3    H231433   1.864   0.516  11.037  0.2661  1.0051 -1.0816
 3340TIP3   OH231434   4.684   5.520  12.482 -0.2050 -0.4525 -0.1797
 3340TIP3    H131435   4.598   5.514  12.441  0.8807  1.3934 -3.0366
 3340TIP3    H231436   4.675   5.590  12.547 -0.9301 -0.5293 -0.1910
 3341TIP3   OH231437   0.721   0.724  11.068  0.4347 -0.0529  0.6935
 3341TIP3    H131438   0.626   0.715  11.074  0.3554 -0.5557 -0.9675
 3341TIP3    H231439   0.752   0.641  11.033  1.3280  0.6089 -0.1702
 3342TIP3   OH231440   5.951   4.101  14.210  0.5206  0.6757 -0.2393
 3342TIP3    H131441   5.894   4.148  14.270  0.9884  2.4330 -1.1079
 3342TIP3    H231442   6.006   4.169  14.171  0.1372 -0.3642 -2.7586
 3343TIP3   OH231443   3.959   2.079   1.807 -0.2303  0.0029 -0.6235
 3343TIP3    H131444   3.922   2.068   1.894 -1.5657 -0.6462 -1.2513
 3343TIP3    H231445   3.887   2.109   1.752  0.6522  0.6841 -1.4660
 3344TIP3   OH231446   6.924   2.265  11.076 -0.1934  0.0758 -0.0484
 3344TIP3    H131447   6.908   2.176  11.044 -0.6309 -0.2695  1.0983
 3344TIP3    H231448   6.900   2.262  11.169  0.0810  1.3140  0.0759
 3345TIP3   OH231449   1.702   6.411  12.266 -0.1198 -0.3160 -0.1274
 3345TIP3    H131450   1.737   6.360  12.193 -0.8588 -0.7723 -0.1737
 3345TIP3    H231451   1.619   6.368  12.288 -0.9795  1.1072 -0.4423
 3346TIP3   OH231452   4.055   3.367   2.925  0.4219  0.1264 -0.0996
 3346TIP3    H131453   4.074   3.461   2.933  0.4041  0.1425 -0.2512
 3346TIP3    H231454   3.960   3.361   2.937  0.3990  0.1477 -0.2667
 3347TIP3   OH231455   4.417   5.128  12.354  0.1050 -0.1765  0.3781
 3347TIP3    H131456   4.401   5.222  12.365 -1.9808 -0.3625 -0.6051
 3347TIP3    H231457   4.417   5.093  12.443 -1.1054  0.4758  0.6514
 3348TIP3   OH231458   2.350   3.297  11.942 -0.4030 -0.5441  0.1453
 3348TIP3    H131459   2.431   3.341  11.967 -1.9458  1.9052  1.2424
 3348TIP3    H231460   2.347   3.218  11.996  1.5819 -1.1331 -0.5190
 3349TIP3   OH231461   3.283   6.447  12.494 -0.1027  0.2855 -0.3026
 3349TIP3    H131462   3.369   6.475  12.526  1.2660 -1.2147 -2.4087
 3349TIP3    H231463   3.292   6.352  12.481 -1.5658  0.3283 -1.9693
 3350TIP3   OH231464   4.279   0.911  12.565  0.5718 -0.0206  0.7178
 3350TIP3    H131465   4.287   0.819  12.541 -1.2924  0.0338 -0.2723
 3350TIP3    H231466   4.337   0.957  12.503  0.1978 -0.3797  0.1006
 3351TIP3   OH231467   2.851   6.716  15.373  0.4176  0.1982 -0.2839
 3351TIP3    H131468   2.879   6.714  15.465  0.3847  0.4155 -0.2685
 3351TIP3    H231469   2.920   6.669  15.326 -0.3567 -1.3522  0.0495
 3352TIP3   OH231470   4.905   3.234   9.522  0.0075  0.3300 -0.1163
 3352TIP3    H131471   4.880   3.290   9.595  0.0990  0.3089 -0.0676
 3352TIP3    H231472   4.965   3.288   9.471 -1.9628  1.2794 -1.5635
 3353TIP3   OH231473   5.679   5.331  14.441 -0.2513  0.5718  0.0926
 3353TIP3    H131474   5.742   5.400  14.422 -0.0387 -0.3024 -3.0685
 3353TIP3    H231475   5.594   5.373  14.432 -0.1255  0.8657  0.2551
 3354TIP3   OH231476   2.282   3.559  11.724 -0.0556  0.8805  0.8198
 3354TIP3    H131477   2.339   3.595  11.792  0.8870  1.1900 -0.1195
 3354TIP3    H231478   2.338   3.549  11.647 -1.2947  1.3770 -0.1883
 3355TIP3   OH231479   3.142   0.054  15.188  0.1814 -0.2205 -0.8944
 3355TIP3    H131480   3.220   0.093  15.227  0.4405 -0.4590 -1.1750
 3355TIP3    H231481   3.092   0.129  15.155  1.5861 -0.1901 -3.1449
 3356TIP3   OH231482   0.222   3.220  10.696 -0.1198  0.7194  0.1633
 3356TIP3    H131483   0.128   3.235  10.688 -0.1231  0.2497 -0.7126
 3356TIP3    H231484   0.248   3.274  10.771 -1.0791  0.8555  0.4118
 3357TIP3   OH231485   1.641   2.433  10.873 -0.0163  0.7256  0.4823
 3357TIP3    H131486   1.646   2.396  10.961  0.6002  0.0458  0.1697
 3357TIP3    H231487   1.732   2.431  10.841 -0.2907  0.6200 -0.3054
 3358TIP3   OH231488   6.142   6.595   9.786 -0.5698  0.1946 -0.0864
 3358TIP3    H131489   6.221   6.650   9.792 -0.6797  0.3021  0.4513
 3358TIP3    H231490   6.172   6.515   9.743 -0.2827  0.4506 -0.3658
 3359TIP3   OH231491   3.485   3.397  13.042 -0.4712 -0.5863  0.7520
 3359TIP3    H131492   3.528   3.426  13.122 -1.2166  0.3557  0.8333
 3359TIP3    H231493   3.402   3.358  13.072  0.7811 -3.5907  0.7212
 3360TIP3   OH231494   4.125   4.642  13.586 -0.3012 -0.1284  0.3072
 3360TIP3    H131495   4.169   4.726  13.576  0.0543 -0.0454  2.2832
 3360TIP3    H231496   4.197   4.579  13.595 -0.5711 -0.6158 -0.7898
 3361TIP3   OH231497   5.707   2.007  11.877 -0.3487 -0.0543  0.1696
 3361TIP3    H131498   5.645   2.080  11.877 -1.0644 -0.6276 -0.9950
 3361TIP3    H231499   5.664   1.940  11.824  0.7192 -0.9544  0.4186
 3362TIP3   OH231500   5.883   3.503  10.386 -0.0355  0.2175 -0.4153
 3362TIP3    H131501   5.789   3.511  10.368 -0.0487 -0.2625 -0.5760
 3362TIP3    H231502   5.919   3.590  10.369 -0.5217  0.5237  0.0689
 3363TIP3   OH231503   0.583   4.786  11.360  0.0712 -0.1247 -0.2129
 3363TIP3    H131504   0.639   4.856  11.326 -2.7633  1.7484 -1.4353
 3363TIP3    H231505   0.553   4.819  11.445  0.4047 -0.8713  0.2011
 3364TIP3   OH231506   5.836   6.939  12.262  0.0213 -0.1710  0.0125
 3364TIP3    H131507   5.781   7.003  12.216 -1.7115 -0.2085  1.8943
 3364TIP3    H231508   5.895   6.992  12.315  1.6150 -0.1363 -1.7162
 3365TIP3   OH231509   2.666   0.642  13.417  0.1763  0.2154 -1.3141
 3365TIP3    H131510   2.711   0.598  13.345  1.4046  0.8407 -0.9542
 3365TIP3    H231511   2.676   0.583  13.492  1.7624  1.0016 -0.8496
 3366TIP3   OH231512   4.651   4.410  13.771 -0.4642 -0.7611  0.5118
 3366TIP3    H131513   4.603   4.349  13.714 -0.7213  0.3887 -0.5480
 3366TIP3    H231514   4.593   4.486  13.779  0.7815  0.3073 -0.0942
 3367TIP3   OH231515   3.596   4.741   9.697  0.6130 -0.7538  0.6017
 3367TIP3    H131516   3.649   4.702   9.627 -0.2117  0.5109 -0.8192
 3367TIP3    H231517   3.522   4.681   9.709  1.1519 -1.3524  0.9252
 3368TIP3   OH231518   5.321   3.023   3.892  0.6207  0.2366  0.8838
 3368TIP3    H131519   5.303   2.959   3.961 -0.7666  0.8299  1.1129
 3368TIP3    H231520   5.255   3.004   3.825  0.6244  1.0036  0.6580
 3369TIP3   OH231521   4.240   2.274  15.242 -0.2051 -0.3043  0.0841
 3369TIP3    H131522   4.313   2.243  15.296 -0.0709 -1.2627 -0.6240
 3369TIP3    H231523   4.261   2.245  15.154 -2.0008 -1.6579  0.0482
 3370TIP3   OH231524   0.278   0.642   0.213 -0.1013  0.1329  0.8770
 3370TIP3    H131525   0.230   0.592   0.148  1.8012 -0.5629 -0.0583
 3370TIP3    H231526   0.323   0.576   0.266  2.2111  0.7570 -0.1931
 3371TIP3   OH231527   2.263   1.104  12.020 -0.5990  0.3234 -0.4085
 3371TIP3    H131528   2.331   1.161  11.985  1.2516 -0.9475  0.9383
 3371TIP3    H231529   2.181   1.146  11.994  0.6703  2.3311 -1.4217
 3372TIP3   OH231530   0.141   3.807  10.113  0.7731 -0.0756  0.1693
 3372TIP3    H131531   0.213   3.746  10.128  2.0713  1.3281 -0.2269
 3372TIP3    H231532   0.109   3.785  10.025  1.0418 -0.3741  0.1462
 3373TIP3   OH231533   6.725   4.700  12.683 -0.0923 -0.5338  0.4338
 3373TIP3    H131534   6.759   4.735  12.602  0.5915 -1.7880  0.1556
 3373TIP3    H231535   6.635   4.734  12.688  0.5064  1.1690  0.1831
 3374TIP3   OH231536   4.045   4.936   2.159  0.3856  0.2890  0.6134
 3374TIP3    H131537   4.139   4.922   2.153  0.1381 -2.5022  1.6853
 3374TIP3    H231538   4.006   4.857   2.123 -1.4900  0.3497  2.2900
 3375TIP3   OH231539   4.401   0.603  14.753 -0.3623  0.1978 -0.3709
 3375TIP3    H131540   4.416   0.663  14.827  2.0239  0.2245 -0.8041
 3375TIP3    H231541   4.419   0.516  14.790  0.4135  0.1741 -0.7820
 3376TIP3   OH231542   0.217   0.450   3.721 -0.1626 -0.3049 -0.1327
 3376TIP3    H131543   0.228   0.499   3.640  2.5552 -1.2804 -0.4589
 3376TIP3    H231544   0.198   0.516   3.787  0.3592  0.8281 -1.0790
 3377TIP3   OH231545   6.699   7.152   1.753  0.0784  0.1010 -0.3990
 3377TIP3    H131546   6.615   7.123   1.788  0.6844  0.2506  1.2289
 3377TIP3    H231547   6.761   7.142   1.825  1.5856 -0.4498 -1.7015
 3378TIP3   OH231548   6.189   4.573  13.920 -0.8242 -0.2456  0.6304
 3378TIP3    H131549   6.106   4.612  13.893  0.7975  1.9655 -1.5646
 3378TIP3    H231550   6.196   4.492  13.869 -0.8486  0.4676 -0.5294
 3379TIP3   OH231551   0.055   3.107  12.333 -0.2535  0.1154 -0.3154
 3379TIP3    H131552   0.106   3.026  12.330 -0.2183  0.1104  0.3049
 3379TIP3    H231553   0.074   3.144  12.420  0.9424  1.5803 -1.1475
 3380TIP3   OH231554   3.810   1.423   2.608  0.4065 -0.0925 -0.0533
 3380TIP3    H131555   3.824   1.446   2.700  0.1552  0.5904 -0.1779
 3380TIP3    H231556   3.881   1.362   2.587  1.5653  1.1671  0.0921
 3381TIP3   OH231557   5.867   2.192  12.249  0.2023 -0.2169  0.0635
 3381TIP3    H131558   5.885   2.283  12.226  1.0893  0.1652  2.0902
 3381TIP3    H231559   5.901   2.142  12.174 -0.9895  1.1009 -1.4364
 3382TIP3   OH231560   5.338   3.895   0.449  0.3300  0.1982  0.6339
 3382TIP3    H131561   5.427   3.868   0.468  0.8223  1.1479 -0.2446
 3382TIP3    H231562   5.347   3.964   0.384 -1.0593  0.1505  0.3612
 3383TIP3   OH231563   1.108   1.042   0.620  0.4046  0.9866  0.3672
 3383TIP3    H131564   1.044   1.102   0.658 -1.0406 -0.8202  0.9190
 3383TIP3    H231565   1.074   0.955   0.639  0.9943 -0.0522 -2.7835
 3384TIP3   OH231566   1.150   4.738   9.730 -0.4382  0.0827 -0.3005
 3384TIP3    H131567   1.137   4.658   9.678 -0.8841 -0.1290  0.1270
 3384TIP3    H231568   1.240   4.732   9.761 -0.0705  0.3475 -1.2741
 3385TIP3   OH231569   2.959   7.071   0.887 -0.1348 -0.3209 -0.4844
 3385TIP3    H131570   2.982   7.023   0.808 -0.4473  0.1247 -0.8561
 3385TIP3    H231571   2.923   7.154   0.854 -0.7326 -0.3408  0.1141
 3386TIP3   OH231572   0.093   1.728  11.143 -0.7521  0.0759 -0.3566
 3386TIP3    H131573   0.080   1.659  11.207  1.4095 -0.5711 -0.5190
 3386TIP3    H231574   0.010   1.776  11.141 -0.9653  0.0243  2.7696
 3387TIP3   OH231575   4.210   6.306   9.751  0.1315 -0.4518  0.2200
 3387TIP3    H131576   4.279   6.319   9.686  0.1148 -1.5394 -0.0349
 3387TIP3    H231577   4.250   6.331   9.834  1.7044 -3.3884  0.4642
 3388TIP3   OH231578   6.974   5.947  11.006 -0.4294  0.6519 -0.0749
 3388TIP3    H131579   6.904   5.883  10.992  0.6600 -0.4650 -0.6163
 3388TIP3    H231580   6.936   6.031  10.978 -1.7508  0.1963  0.2731
 3389TIP3   OH231581   2.566   5.567  10.093 -0.2116 -0.0908 -0.2252
 3389TIP3    H131582   2.589   5.577  10.000 -0.1471  1.4362 -0.0755
 3389TIP3    H231583   2.641   5.522  10.132 -1.2065 -2.8699 -1.3040
 3390TIP3   OH231584   3.286   3.481  11.614  0.0429  0.1176 -0.2345
 3390TIP3    H131585   3.291   3.402  11.560 -1.7232  0.0833 -0.4109
 3390TIP3    H231586   3.367   3.481  11.665  0.7136 -1.0432 -1.2538
 3391TIP3   OH231587   4.222   1.999  12.969 -0.3246  0.1093 -0.4431
 3391TIP3    H131588   4.225   1.937  13.041 -0.7303  0.9651  0.3397
 3391TIP3    H231589   4.259   1.952  12.894  0.2756 -0.7383  0.3641
 3392TIP3   OH231590   2.129   4.202   0.638 -0.1842 -0.0353 -0.3193
 3392TIP3    H131591   2.195   4.166   0.578 -0.0792  0.6435 -0.6233
 3392TIP3    H231592   2.123   4.137   0.709 -1.3999 -1.6066 -1.7846
 3393TIP3   OH231593   6.909   7.130  12.291 -0.1139 -0.0128  0.3918
 3393TIP3    H131594   6.958   7.190  12.348  0.5621  0.1517 -0.3319
 3393TIP3    H231595   6.852   7.188  12.239 -0.1686 -0.0860  0.3697
 3394TIP3   OH231596   6.585   2.879  10.999  0.0213 -0.4199 -0.1976
 3394TIP3    H131597   6.621   2.890  11.087 -1.2214 -2.8304  0.6891
 3394TIP3    H231598   6.549   2.965  10.977  0.4514  0.2610  1.5766
 3395TIP3   OH231599   4.968   3.731   2.239 -0.3190  0.0551  0.0806
 3395TIP3    H131600   4.908   3.673   2.191 -0.2595  1.0795 -1.2948
 3395TIP3    H231601   5.001   3.791   2.173 -0.9814  2.1798  1.5888
 3396TIP3   OH231602   4.037   3.802  13.049 -0.3927  0.1439  0.6249
 3396TIP3    H131603   4.097   3.871  13.079 -1.0688  0.7786  0.5646
 3396TIP3    H231604   4.025   3.746  13.125  0.5694 -0.2056  0.5269
 3397TIP3   OH231605   2.225   7.081   4.472 -0.4229  0.2912 -0.0536
 3397TIP3    H131606   2.190   7.006   4.423  0.3934  0.7101 -1.3266
 3397TIP3    H231607   2.306   7.103   4.427 -1.3130  2.8108 -0.5789
 3398TIP3   OH231608   4.361   0.273  14.185 -0.6442 -0.1053  0.2079
 3398TIP3    H131609   4.290   0.276  14.250 -1.7373 -0.2115 -0.9350
 3398TIP3    H231610   4.345   0.349  14.130  0.6722  0.3584  0.4425
 3399TIP3   OH231611   1.992   0.625   9.525 -0.9060  0.2342  0.2453
 3399TIP3    H131612   2.076   0.647   9.565 -1.0889 -1.3107  1.5816
 3399TIP3    H231613   1.982   0.689   9.454  0.9645  1.0067  0.6088
 3400TIP3   OH231614   3.869   1.271   0.005  0.1343  0.1167  0.4718
 3400TIP3    H131615   3.830   1.191  -0.029  1.7659  0.1990 -1.8030
 3400TIP3    H231616   3.909   1.245   0.088 -0.0995 -1.2054  0.1917
 3401TIP3   OH231617   1.052   0.130  11.865 -0.5102 -0.0796  0.1077
 3401TIP3    H131618   1.037   0.224  11.854  0.7429  0.1436  0.1797
 3401TIP3    H231619   1.144   0.123  11.888  0.2515 -1.5263 -2.8565
 3402TIP3   OH231620   5.883   3.444  13.935  0.1965 -0.0731  0.1186
 3402TIP3    H131621   5.881   3.425  13.842 -1.3423  0.2003  0.0706
 3402TIP3    H231622   5.917   3.364  13.975  0.4886 -0.3372 -0.6420
 3403TIP3   OH231623   4.344   6.133   4.831  0.0803  0.1164  0.0400
 3403TIP3    H131624   4.272   6.134   4.768  0.7013 -0.4955 -0.7033
 3403TIP3    H231625   4.346   6.223   4.866 -0.2978  0.4570 -0.7813
 3404TIP3   OH231626   2.159   7.004  15.215  0.2077 -0.5683  0.0674
 3404TIP3    H131627   2.212   6.979  15.140 -0.0412 -0.1628 -0.2444
 3404TIP3    H231628   2.108   6.925  15.236  2.2774 -1.6351  1.5664
 3405TIP3   OH231629   4.399   4.941  12.855  0.0122 -0.0688 -0.4202
 3405TIP3    H131630   4.444   4.886  12.791 -0.6913 -0.7319 -0.3653
 3405TIP3    H231631   4.372   4.881  12.924  0.0085  0.4983  0.0864
 3406TIP3   OH231632   6.904   0.392   4.213  0.3385  0.1579  0.1532
 3406TIP3    H131633   6.996   0.372   4.193 -0.0945  0.5847 -2.6249
 3406TIP3    H231634   6.899   0.386   4.308  2.0888 -4.9363  0.2198
 3407TIP3   OH231635   5.817   2.922   3.590 -0.5896  0.7257 -0.4217
 3407TIP3    H131636   5.742   2.887   3.638 -0.1196 -0.5464 -0.5819
 3407TIP3    H231637   5.799   2.899   3.499  1.0385 -1.6366 -0.2204
 3408TIP3   OH231638   7.112   3.395  12.765  0.0022  0.5735  0.4972
 3408TIP3    H131639   7.113   3.489  12.746  0.8026  0.2861 -1.0129
 3408TIP3    H231640   7.055   3.358  12.698  1.2360 -0.2287 -0.1556
 3409TIP3   OH231641   5.801   3.133  14.543  0.1238 -0.6154  0.5023
 3409TIP3    H131642   5.850   3.216  14.546  0.7307 -0.9047 -0.7082
 3409TIP3    H231643   5.712   3.159  14.520 -0.2215 -0.1214  2.2823
 3410TIP3   OH231644   0.729   7.049   2.259  0.6995 -0.1076  0.3128
 3410TIP3    H131645   0.773   6.965   2.249  0.2132 -0.8234  3.0820
 3410TIP3    H231646   0.773   7.090   2.334 -1.5694  0.2869  1.5294
 3411TIP3   OH231647   3.808   6.571   4.684 -0.1111 -0.0558 -0.2950
 3411TIP3    H131648   3.742   6.503   4.673 -0.0951 -0.0661 -0.3302
 3411TIP3    H231649   3.885   6.526   4.716  0.1418 -0.1798 -1.0471
 3412TIP3   OH231650   0.982   0.705   3.430 -0.0142 -0.4057  0.6762
 3412TIP3    H131651   1.042   0.672   3.498  3.5123 -0.4075 -2.1394
 3412TIP3    H231652   0.966   0.630   3.374 -2.4732 -0.2731  1.0910
 3413TIP3   OH231653   1.198   3.209  10.980 -0.1991 -0.3481 -0.1431
 3413TIP3    H131654   1.121   3.168  11.019 -0.8797  1.1570  0.1567
 3413TIP3    H231655   1.213   3.160  10.899 -1.5225 -0.6060 -0.2519
 3414TIP3   OH231656   0.841   2.020  12.426 -0.0672  0.7724  0.1297
 3414TIP3    H131657   0.758   2.017  12.474  0.2626 -1.5415  0.6948
 3414TIP3    H231658   0.906   2.049  12.491 -0.1388  0.8270  0.1772
 3415TIP3   OH231659   5.097   2.874   1.702 -0.7448 -0.1770 -0.2205
 3415TIP3    H131660   5.006   2.897   1.684 -1.8430 -3.1122  0.9659
 3415TIP3    H231661   5.092   2.794   1.753  2.5197  0.1723  0.9031
 3416TIP3   OH231662   0.162   5.092   2.896 -0.8142  0.7009  0.1655
 3416TIP3    H131663   0.135   5.056   2.980  0.0657  0.0689  0.1884
 3416TIP3    H231664   0.088   5.147   2.868 -1.3425  0.4622  1.0729
 3417TIP3   OH231665   6.315   4.273  10.985  0.0600  0.5551 -0.5393
 3417TIP3    H131666   6.236   4.318  11.014  0.5093  0.1194  1.5329
 3417TIP3    H231667   6.284   4.186  10.957 -0.2682  0.6061 -0.3404
 3418TIP3   OH231668   1.518   5.753  12.501  0.4947  0.8202 -0.0389
 3418TIP3    H131669   1.455   5.698  12.455  1.1890 -1.1973  1.3346
 3418TIP3    H231670   1.485   5.759  12.590  1.8131  0.3734  0.5079
 3419TIP3   OH231671   0.454   3.838  11.622  0.7190 -0.0445 -0.0778
 3419TIP3    H131672   0.393   3.808  11.689  1.2398 -2.4988 -0.5979
 3419TIP3    H231673   0.532   3.866  11.670  0.5192 -0.3198  0.4084
 3420TIP3   OH231674   4.710   3.919   1.647 -0.1784  0.0648  0.1532
 3420TIP3    H131675   4.731   3.904   1.739 -0.2570 -0.4254  0.0891
 3420TIP3    H231676   4.708   3.832   1.608 -0.9420  0.2148 -0.1474
 3421TIP3   OH231677   3.344   6.163  13.452 -0.2106  0.2784  0.1179
 3421TIP3    H131678   3.357   6.078  13.409 -0.3068 -1.4108  3.1248
 3421TIP3    H231679   3.249   6.174  13.453 -0.2717 -0.2082  0.7377
 3422TIP3   OH231680   6.751   1.838  11.895 -0.3949  0.5084 -0.0196
 3422TIP3    H131681   6.724   1.866  11.808  2.1766 -2.0699 -1.8326
 3422TIP3    H231682   6.689   1.770  11.919 -0.7573  0.8107 -0.0929
 3423TIP3   OH231683   1.560   0.736   9.821  1.1070  0.1439  0.4522
 3423TIP3    H131684   1.617   0.702   9.753 -0.0780 -1.3231  0.1399
 3423TIP3    H231685   1.557   0.831   9.805  0.0564 -0.2467 -2.2273
 3424TIP3   OH231686   3.599   6.393  11.927 -0.4424  0.0310  0.4574
 3424TIP3    H131687   3.606   6.484  11.899  0.5170 -0.5035 -1.1601
 3424TIP3    H231688   3.681   6.375  11.974  0.1958 -0.4845 -0.8092
 3425TIP3   OH231689   4.214   1.334   0.015  0.2029  0.6644 -0.5595
 3425TIP3    H131690   4.145   1.393   0.044 -0.5124  0.8897 -2.6056
 3425TIP3    H231691   4.201   1.325  -0.079  1.1186 -1.6917 -0.5312
 3426TIP3   OH231692   6.574   5.501   4.251 -0.0170 -0.4000  0.0212
 3426TIP3    H131693   6.587   5.594   4.233 -0.1913 -0.2197  0.8093
 3426TIP3    H231694   6.573   5.494   4.347 -1.2497 -1.0397 -0.0150
 3427TIP3   OH231695   5.254   5.620   9.308 -0.2088 -0.5175 -0.3392
 3427TIP3    H131696   5.194   5.605   9.380  0.3115  0.9539  0.4524
 3427TIP3    H231697   5.232   5.708   9.276  1.1571 -0.1438 -0.3494
 3428TIP3   OH231698   3.878   1.662  13.496  0.0564  0.8284  0.1061
 3428TIP3    H131699   3.922   1.734  13.541  0.0865  0.3079  0.9339
 3428TIP3    H231700   3.903   1.584  13.546  0.2190  0.2061 -0.9180
 3429TIP3   OH231701   5.537   6.177  14.746 -0.4867  0.0122 -0.2494
 3429TIP3    H131702   5.478   6.103  14.762  0.2133 -0.6112 -0.4348
 3429TIP3    H231703   5.543   6.222  14.830 -0.1519 -0.7350  0.1405
 3430TIP3   OH231704   6.372   2.459   1.899 -0.1911 -0.8135 -0.1001
 3430TIP3    H131705   6.385   2.409   1.818 -0.3558  0.1382 -0.7237
 3430TIP3    H231706   6.449   2.439   1.952  0.0677 -1.2066 -0.6110
 3431TIP3   OH231707   5.538   6.644  12.475  0.0207 -0.3815  0.9952
 3431TIP3    H131708   5.515   6.698  12.399  1.4537 -1.8167 -0.5334
 3431TIP3    H231709   5.478   6.673  12.543 -0.3785  1.9528 -0.2391
 3432TIP3   OH231710   4.155   5.042  15.398 -0.1923  0.4569  0.5007
 3432TIP3    H131711   4.115   5.025  15.312 -0.0676  1.1425  0.2974
 3432TIP3    H231712   4.174   4.956  15.433  0.8634  0.1719 -0.6881
 3433TIP3   OH231713   5.495   3.455  10.030 -0.2055  1.2109 -0.1311
 3433TIP3    H131714   5.513   3.392  10.100 -3.0124  0.2037 -0.1786
 3433TIP3    H231715   5.508   3.405   9.949  0.9336  1.7473 -0.2972
 3434TIP3   OH231716   4.141   7.044   9.664  0.0157 -0.3615  0.2257
 3434TIP3    H131717   4.082   7.003   9.600  0.9481  0.1333 -1.0072
 3434TIP3    H231718   4.228   7.019   9.634  0.6471  2.4593 -0.6009
 3435TIP3   OH231719   3.901   1.858  12.985  0.2170 -0.0351  0.6222
 3435TIP3    H131720   3.896   1.934  13.042 -2.3552 -0.1291  0.6566
 3435TIP3    H231721   3.856   1.886  12.904 -0.5735 -1.3925  0.5510
 3436TIP3   OH231722   6.695   6.510  13.017  0.1045 -0.4853  0.2878
 3436TIP3    H131723   6.755   6.438  13.035  0.5722 -0.4299 -0.9372
 3436TIP3    H231724   6.681   6.506  12.922  0.6635  1.4381  0.0771
 3437TIP3   OH231725   4.834   6.263  13.240 -0.2936 -0.1868 -0.0511
 3437TIP3    H131726   4.816   6.171  13.260 -0.0859 -0.4074 -0.8361
 3437TIP3    H231727   4.792   6.277  13.155  2.5630 -0.5417 -1.6498
 3438TIP3   OH231728   3.216   4.815   9.333 -0.0082  0.0546  0.0217
 3438TIP3    H131729   3.263   4.870   9.396 -1.4749  0.6786  0.6024
 3438TIP3    H231730   3.149   4.872   9.297  0.6762 -0.3430 -2.0148
 3439TIP3   OH231731   5.818   6.899  13.252  0.6401 -0.0934  0.1393
 3439TIP3    H131732   5.784   6.926  13.167  1.3108  0.4119  0.0269
 3439TIP3    H231733   5.871   6.973  13.282 -0.1822  0.0516  1.3374
 3440TIP3   OH231734   1.562   5.345  10.604  0.8628  0.2671 -0.4146
 3440TIP3    H131735   1.519   5.349  10.690 -0.5757 -1.7564 -0.9556
 3440TIP3    H231736   1.505   5.394  10.546  0.5832 -0.3245 -0.6482
 3441TIP3   OH231737   3.961   4.106  10.259 -0.0401  0.0909 -0.1190
 3441TIP3    H131738   3.994   4.110  10.169  0.7568 -0.3842  0.1429
 3441TIP3    H231739   4.039   4.092  10.312 -0.3785  1.3106  0.7535
 3442TIP3   OH231740   4.154   1.682  10.815 -0.1254  0.0125 -0.4637
 3442TIP3    H131741   4.097   1.634  10.875  2.2616 -1.6007  0.7038
 3442TIP3    H231742   4.142   1.774  10.838  1.2467 -0.5513  3.1977
 3443TIP3   OH231743   5.663   2.996  12.769 -0.7506 -0.3491 -0.5450
 3443TIP3    H131744   5.674   3.079  12.723  0.3436  0.6643  1.4156
 3443TIP3    H231745   5.594   3.012  12.833  0.7365 -0.2754  1.1456
 3444TIP3   OH231746   2.953   1.333  12.146 -0.1683 -0.1337 -0.4285
 3444TIP3    H131747   2.858   1.345  12.158 -0.7971 -2.4641 -2.4740
 3444TIP3    H231748   2.987   1.423  12.138 -2.1746  0.7643  0.3346
 3445TIP3   OH231749   7.120   5.565   2.096 -0.4354  0.4545  0.2035
 3445TIP3    H131750   7.063   5.602   2.164 -0.2831 -0.4043  0.8125
 3445TIP3    H231751   7.100   5.471   2.096  2.9017 -0.4048  2.3892
 3446TIP3   OH231752   2.862   2.046  12.583  0.2008 -0.1271  0.7397
 3446TIP3    H131753   2.938   2.098  12.555  0.7049  0.4448  2.9795
 3446TIP3    H231754   2.837   1.997  12.505  1.7649  1.0041 -0.5551
 3447TIP3   OH231755   6.559   3.609   4.095  0.3728 -0.3327 -0.0224
 3447TIP3    H131756   6.596   3.609   4.183 -0.1316 -0.4329  0.1927
 3447TIP3    H231757   6.634   3.619   4.037  0.5596  1.4511  0.4834
 3448TIP3   OH231758   0.705   6.032  11.982  0.2291  1.0686 -0.0393
 3448TIP3    H131759   0.702   6.074  12.068 -0.1279 -1.4374  1.2693
 3448TIP3    H231760   0.726   6.103  11.921  1.9770  2.6820  2.2751
 3449TIP3   OH231761   6.942   2.732  12.419  0.1143 -0.3715 -0.4008
 3449TIP3    H131762   6.947   2.656  12.360  1.4773 -0.6845  0.0900
 3449TIP3    H231763   6.872   2.786  12.382 -0.7707 -1.7679 -0.8690
 3450TIP3   OH231764   5.021   6.408  11.705 -0.0057 -0.2539 -0.0146
 3450TIP3    H131765   4.948   6.467  11.687 -0.4425 -1.2930 -1.8562
 3450TIP3    H231766   4.981   6.321  11.709  1.2436 -0.9900 -2.2852
 3451TIP3   OH231767   5.462   4.911   9.698  0.0947  0.3485 -0.3534
 3451TIP3    H131768   5.410   4.989   9.675 -0.2539  0.0515 -0.5877
 3451TIP3    H231769   5.414   4.871   9.770 -0.3142 -0.2251 -0.9257
 3452TIP3   OH231770   1.676   3.386  13.517 -0.2303 -0.5254 -0.7692
 3452TIP3    H131771   1.766   3.407  13.541 -0.6079  0.1584  0.1070
 3452TIP3    H231772   1.637   3.352  13.597 -0.6907 -1.0511 -1.2073
 3453TIP3   OH231773   4.129   6.221   0.061  0.1451 -0.9116 -0.7511
 3453TIP3    H131774   4.219   6.195   0.039  0.0447 -1.7693 -0.2117
 3453TIP3    H231775   4.084   6.138   0.077 -0.3637 -0.4262  0.4237
 3454TIP3   OH231776   4.133   5.170   1.309 -0.3074 -0.2013  0.4227
 3454TIP3    H131777   4.057   5.156   1.367 -1.2314 -0.4437 -0.8050
 3454TIP3    H231778   4.140   5.090   1.258 -0.7548  0.7286 -1.1696
 3455TIP3   OH231779   6.511   1.378  13.947  0.3545 -0.5121  0.1388
 3455TIP3    H131780   6.519   1.404  14.039  1.1505  1.5368 -0.4506
 3455TIP3    H231781   6.599   1.351  13.922  0.5149  0.4971 -0.4318
 3456TIP3   OH231782   5.963   2.590  13.757  0.8776  0.0313 -0.4764
 3456TIP3    H131783   6.032   2.656  13.759  1.0661 -0.1841  0.5908
 3456TIP3    H231784   5.913   2.606  13.837 -0.5396  0.4167 -1.4050
 3457TIP3   OH231785   4.346   6.256  12.075 -0.0125 -0.4807 -0.4206
 3457TIP3    H131786   4.290   6.311  12.130  1.1123 -0.3790  0.6711
 3457TIP3    H231787   4.309   6.265  11.987 -1.1121  0.3485  0.0968
 3458TIP3   OH231788   3.710   1.932  14.440  1.2456 -0.2054  0.1566
 3458TIP3    H131789   3.633   1.899  14.394 -0.9914  2.0919  1.9158
 3458TIP3    H231790   3.675   1.971  14.520  4.2770  0.8982  1.0968
 3459TIP3   OH231791   6.999   4.288  10.118  0.1147 -0.1796 -0.5599
 3459TIP3    H131792   7.050   4.254  10.045  1.4057 -1.6804  0.9479
 3459TIP3    H231793   6.962   4.210  10.160  1.1809  0.4013  1.6132
 3460TIP3   OH231794   6.499   2.741  12.261 -0.3320 -0.5713  0.1241
 3460TIP3    H131795   6.432   2.674  12.255  0.9067 -1.8207 -0.3301
 3460TIP3    H231796   6.542   2.740  12.175 -0.4453  0.9768  0.0270
 3461TIP3   OH231797   2.108   6.653   1.658  0.1815  0.5954 -0.0060
 3461TIP3    H131798   2.070   6.739   1.640  0.0089  0.6905  0.7705
 3461TIP3    H231799   2.127   6.654   1.752 -0.4881 -0.4678  0.1660
 3462TIP3   OH231800   0.679   6.895  11.298 -0.1271 -0.1740 -0.4380
 3462TIP3    H131801   0.673   6.801  11.316 -0.3985  0.0439  0.7025
 3462TIP3    H231802   0.690   6.901  11.203 -0.5181 -1.3452 -0.5728
 3463TIP3   OH231803   1.300   5.899  12.034  0.1584 -0.7886 -0.2203
 3463TIP3    H131804   1.238   5.835  12.067  0.8112 -2.0945 -1.4288
 3463TIP3    H231805   1.249   5.954  11.975 -0.4360 -0.0610  0.9370
 3464TIP3   OH231806   4.453   0.595  14.364  0.0962  0.2264 -0.1235
 3464TIP3    H131807   4.521   0.553  14.312  0.7752  0.8361  0.2618
 3464TIP3    H231808   4.499   0.661  14.416 -0.4649 -0.6551  1.5996
 3465TIP3   OH231809   5.302   5.672  13.476 -0.4318  0.2131  0.5168
 3465TIP3    H131810   5.383   5.688  13.428 -0.4029  0.1370  0.5399
 3465TIP3    H231811   5.295   5.577  13.481 -0.2092  0.2191  1.0346
 3466TIP3   OH231812   4.485   2.778   1.956  0.4274  0.1740 -0.1902
 3466TIP3    H131813   4.535   2.725   1.893  0.5208  0.7018 -0.5585
 3466TIP3    H231814   4.513   2.868   1.940 -1.2828  0.6034 -0.9964
 3467TIP3   OH231815   2.189   0.227  13.637  0.0034 -0.0225  0.3775
 3467TIP3    H131816   2.097   0.255  13.636 -0.0199 -0.0814  0.7023
 3467TIP3    H231817   2.187   0.136  13.611 -0.3604 -0.9261  3.1941
 3468TIP3   OH231818   5.668   6.337   3.937  0.2681  0.7233 -0.1001
 3468TIP3    H131819   5.657   6.256   3.988  0.1388 -0.8922 -2.5011
 3468TIP3    H231820   5.762   6.351   3.934  0.5043 -0.8595 -1.7413
 3469TIP3   OH231821   3.180   6.506   3.795 -0.6158 -0.0354 -0.5955
 3469TIP3    H131822   3.141   6.594   3.794 -0.7506 -0.0784  0.3963
 3469TIP3    H231823   3.122   6.454   3.850  1.1697  0.0663  1.4999
 3470TIP3   OH231824   0.609   6.448  14.286  0.4144 -0.3443  0.3216
 3470TIP3    H131825   0.565   6.533  14.281  0.1534 -0.5306 -1.6753
 3470TIP3    H231826   0.557   6.398  14.348 -1.3523 -0.0474 -0.8269
 3471TIP3   OH231827   4.021   0.345  11.505 -0.7627 -0.3038 -0.2767
 3471TIP3    H131828   4.053   0.311  11.589  2.4058  0.6452 -0.9317
 3471TIP3    H231829   4.040   0.439  11.509 -2.9304  0.2107 -1.1228
 3472TIP3   OH231830   5.830   0.889  11.918 -0.1290  0.3377 -0.3490
 3472TIP3    H131831   5.872   0.804  11.933 -0.4420  0.5310  1.9130
 3472TIP3    H231832   5.737   0.869  11.911 -0.1259  0.4228 -0.6600
 3473TIP3   OH231833   0.029   4.443   2.387  0.4122 -0.1873  0.2682
 3473TIP3    H131834  -0.055   4.406   2.415  0.2021  0.5307  0.6010
 3473TIP3    H231835   0.023   4.446   2.292  0.5274 -1.2299  0.2180
 3474TIP3   OH231836   6.158   4.070  13.660 -0.0512 -0.3623 -0.1298
 3474TIP3    H131837   6.110   4.088  13.579  2.1754 -0.8934 -1.6410
 3474TIP3    H231838   6.142   3.977  13.677  1.1845 -0.8102 -1.2199
 3475TIP3   OH231839   0.492   0.927  10.503 -0.0605  0.4966  0.1251
 3475TIP3    H131840   0.484   0.990  10.432  0.0503  1.0271  0.5760
 3475TIP3    H231841   0.419   0.947  10.562  0.6112  0.9345  0.8280
 3476TIP3   OH231842   2.483   5.774  12.576  0.0215 -0.2882  0.3252
 3476TIP3    H131843   2.503   5.834  12.648  0.3420 -0.2663  0.2177
 3476TIP3    H231844   2.547   5.796  12.508 -1.1233  0.6312 -0.5061
 3477TIP3   OH231845   0.045   3.066  13.439 -0.0005 -0.1366  0.5275
 3477TIP3    H131846   0.116   3.054  13.501  1.1053  0.4518 -0.5805
 3477TIP3    H231847  -0.022   3.004  13.467 -0.3496  1.3520  3.3959
 3478TIP3   OH231848   1.965   5.853   0.587 -0.5157  0.4722  0.2403
 3478TIP3    H131849   1.946   5.795   0.513 -0.9457  1.0805 -0.1250
 3478TIP3    H231850   2.060   5.862   0.586 -0.6542  2.2613 -1.6112
 3479TIP3   OH231851   0.458   3.542  11.668 -0.1397 -0.2829  0.3006
 3479TIP3    H131852   0.399   3.586  11.730  0.9117  0.1315  1.0542
 3479TIP3    H231853   0.528   3.606  11.653 -0.4626 -0.3148 -1.4756
 3480TIP3   OH231854   4.776   6.213  15.249 -0.2306  0.2142 -0.4336
 3480TIP3    H131855   4.845   6.277  15.230  0.3096  0.4165  1.8395
 3480TIP3    H231856   4.794   6.140  15.191  0.5749  1.1606 -1.4139
 3481TIP3   OH231857   1.707   3.261  12.310 -0.0921 -0.1676 -0.1340
 3481TIP3    H131858   1.756   3.240  12.230 -1.7191  4.0590 -2.5433
 3481TIP3    H231859   1.769   3.310  12.364 -0.6563  2.6045 -1.8536
 3482TIP3   OH231860   2.397   3.901   9.930 -0.3710  0.0959 -0.0843
 3482TIP3    H131861   2.348   3.919   9.850 -0.2932  2.1243  0.2686
 3482TIP3    H231862   2.406   3.806   9.932 -0.1898  0.0020 -2.5799
 3483TIP3   OH231863   4.309   5.812  11.293  0.8835 -0.1037  0.1585
 3483TIP3    H131864   4.290   5.774  11.379  2.1521 -2.1284 -0.4014
 3483TIP3    H231865   4.321   5.906  11.310 -0.0116 -0.2842  1.9839
 3484TIP3   OH231866   2.612   3.771   9.587  0.1143  0.0741 -0.1807
 3484TIP3    H131867   2.577   3.693   9.630 -2.6542  1.6267  0.5972
 3484TIP3    H231868   2.687   3.797   9.642  0.5876 -1.5370 -0.0167
 3485TIP3   OH231869   5.424   5.777  15.207  0.0258 -0.2091  0.0483
 3485TIP3    H131870   5.369   5.731  15.144  0.3281  0.3676 -0.6482
 3485TIP3    H231871   5.392   5.867  15.206  1.7797  0.4555 -1.3332
 3486TIP3   OH231872   6.319   6.119   0.863 -0.1266  0.2356  0.3323
 3486TIP3    H131873   6.224   6.124   0.856 -0.0523  0.4198 -0.6338
 3486TIP3    H231874   6.349   6.098   0.774  1.0765  4.8366 -0.5697
 3487TIP3   OH231875   2.111   2.018  12.866 -0.5908  0.0737 -0.1607
 3487TIP3    H131876   2.102   1.958  12.940  2.0598  0.6145  0.7155
 3487TIP3    H231877   2.191   1.990  12.822 -1.9440 -0.0415 -2.7238
 3488TIP3   OH231878   7.104   1.159  10.236  0.4655 -0.1407  0.4820
 3488TIP3    H131879   7.073   1.153  10.146  0.1688 -0.4018  0.5994
 3488TIP3    H231880   7.091   1.071  10.272  0.8107 -0.1019  0.7044
 3489TIP3   OH231881   1.060   2.646   1.025  0.1349 -0.0290  0.1541
 3489TIP3    H131882   1.105   2.643   0.940  0.0206  0.2411  0.0814
 3489TIP3    H231883   0.980   2.596   1.011  0.3421 -0.3845  0.2401
 3490TIP3   OH231884   3.529   7.060  11.103 -0.1266 -0.0184  0.0357
 3490TIP3    H131885   3.580   7.002  11.046 -0.4078  0.5765 -0.8298
 3490TIP3    H231886   3.444   7.018  11.111  0.2847 -0.7224  1.0266
 3491TIP3   OH231887   6.999   5.336   1.738  0.0048  0.0948  0.2638
 3491TIP3    H131888   7.005   5.420   1.693  1.4307 -0.2772 -0.3015
 3491TIP3    H231889   6.922   5.344   1.794 -0.9863  1.0754 -1.1765
 3492TIP3   OH231890   6.953   2.688  12.958 -0.2486  0.3521  0.1827
 3492TIP3    H131891   6.872   2.648  12.989 -0.0369 -0.1942  0.0473
 3492TIP3    H231892   6.970   2.646  12.874  0.4926  0.0063  0.4894
 3493TIP3   OH231893   3.036   3.616  11.061 -0.0804  0.6160 -0.3044
 3493TIP3    H131894   3.061   3.698  11.102 -1.7481  1.2295 -0.4320
 3493TIP3    H231895   3.050   3.550  11.129 -1.0172  1.3558  0.6434
 3494TIP3   OH231896   2.852   0.318   1.287 -0.1415  0.2778  0.4853
 3494TIP3    H131897   2.767   0.356   1.312  0.0513  0.0887  1.4773
 3494TIP3    H231898   2.857   0.330   1.192 -2.5113 -2.1546 -0.0639
 3495TIP3   OH231899   2.246   4.461  13.245 -0.5010 -0.4456  0.2691
 3495TIP3    H131900   2.208   4.420  13.167  0.1810  0.8042 -0.7774
 3495TIP3    H231901   2.309   4.524  13.210 -2.5461  2.6340  1.6309
 3496TIP3   OH231902   0.209   3.112  11.423 -0.1600 -0.1469 -0.3421
 3496TIP3    H131903   0.265   3.175  11.468  0.5928 -1.2958  0.3981
 3496TIP3    H231904   0.120   3.143  11.438  0.0138 -0.7016  2.3992
 3497TIP3   OH231905   1.919   4.333  13.614  1.0544  0.1552  0.6787
 3497TIP3    H131906   2.014   4.336  13.608  1.0282 -1.2703 -2.9372
 3497TIP3    H231907   1.889   4.331  13.523 -2.3608 -1.2852  1.6722
 3498TIP3   OH231908   5.091   0.839  13.776  0.1458 -0.2970  0.2633
 3498TIP3    H131909   5.183   0.863  13.792 -0.1534  0.4011  1.0615
 3498TIP3    H231910   5.070   0.777  13.845  0.3159 -1.3131 -0.5738
 3499TIP3   OH231911   1.201   6.937  10.962 -0.1080  0.8575 -0.2274
 3499TIP3    H131912   1.265   6.967  11.026  0.9311  1.7790 -1.6653
 3499TIP3    H231913   1.242   6.950  10.877 -1.8716  0.6897 -1.1704
 3500TIP3   OH231914   1.844   0.764   1.516 -0.2991  0.1185  0.2104
 3500TIP3    H131915   1.811   0.703   1.582  0.6854 -0.0003  0.6037
 3500TIP3    H231916   1.888   0.833   1.565  0.7227 -0.1375 -0.3122
 3501TIP3   OH231917   4.715   2.492   0.880  0.1291  0.4107 -0.6509
 3501TIP3    H131918   4.803   2.522   0.901 -0.4536  2.8982 -1.4754
 3501TIP3    H231919   4.674   2.477   0.965  0.0287  3.4539 -0.0733
 3502TIP3   OH231920   5.216   5.056  12.889  0.8423  0.1477  0.3022
 3502TIP3    H131921   5.299   5.015  12.863 -0.3466 -1.5050 -1.1067
 3502TIP3    H231922   5.175   4.993  12.948 -0.3879 -0.1244 -0.7827
 3503TIP3   OH231923   6.787   5.389  11.813  0.0264  0.0530  0.3427
 3503TIP3    H131924   6.820   5.478  11.799  0.7591 -0.3399 -0.5972
 3503TIP3    H231925   6.700   5.389  11.773  0.9212 -0.2343 -1.7131
 3504TIP3   OH231926   6.676   4.131  13.854  0.7670  0.1304  0.8374
 3504TIP3    H131927   6.607   4.071  13.825  1.3536  0.4733 -1.4002
 3504TIP3    H231928   6.630   4.195  13.909 -0.9332  0.8897 -1.3285
 3505TIP3   OH231929   3.705   6.885  13.863  0.4730 -0.2998 -0.1391
 3505TIP3    H131930   3.765   6.904  13.791  1.5692  2.7703  1.4353
 3505TIP3    H231931   3.635   6.834  13.822  1.9193 -0.2273 -2.9754
 3506TIP3   OH231932   2.309   6.919  12.800  0.3196  0.1451 -0.4633
 3506TIP3    H131933   2.218   6.931  12.828 -0.4566 -0.4371 -2.5210
 3506TIP3    H231934   2.310   6.950  12.709  1.5730 -2.0984 -1.2938
 3507TIP3   OH231935   2.329   2.057  12.662  0.3737 -0.4714 -0.3731
 3507TIP3    H131936   2.298   2.135  12.617  0.2391 -0.6278 -0.5528
 3507TIP3    H231937   2.392   2.018  12.601 -1.9915 -2.3412 -1.8235
 3508TIP3   OH231938   2.835   2.713   2.448 -0.1090  0.4958 -0.5244
 3508TIP3    H131939   2.883   2.636   2.419 -1.9064 -1.1154  0.5013
 3508TIP3    H231940   2.898   2.764   2.499  1.1110 -0.3109 -1.2019
 3509TIP3   OH231941   4.005   0.792  12.301 -0.0725 -0.1679 -0.2204
 3509TIP3    H131942   4.016   0.839  12.384 -3.1876 -0.3020  0.3953
 3509TIP3    H231943   3.984   0.702  12.327 -1.1210 -0.2047 -1.1316
 3510TIP3   OH231944   0.535   5.828  10.563 -0.8323 -0.1044  0.3272
 3510TIP3    H131945   0.518   5.897  10.499  1.4987 -0.3428 -0.6719
 3510TIP3    H231946   0.503   5.748  10.521  1.6414 -0.4272 -1.1441
 3511TIP3   OH231947   0.601   2.608  10.518 -0.3619  0.2804  0.4226
 3511TIP3    H131948   0.628   2.517  10.518 -0.0244  0.3723 -0.6403
 3511TIP3    H231949   0.661   2.651  10.580  0.3363  0.0186 -0.0605
 3512TIP3   OH231950   2.055   4.990  14.970 -0.7076  0.3539 -0.4720
 3512TIP3    H131951   2.063   4.981  15.065 -3.6276 -1.1842 -0.2367
 3512TIP3    H231952   2.000   5.067  14.958  1.0713  1.5885 -1.0772
 3513TIP3   OH231953   0.314   5.036  12.628  0.4281 -0.6792  0.3715
 3513TIP3    H131954   0.299   4.957  12.577  1.3668 -0.7395  0.1701
 3513TIP3    H231955   0.400   5.067  12.600  0.5271 -0.1696  1.2042
 3514TIP3   OH231956   1.046   1.915  11.524  0.4653  0.5797  0.4007
 3514TIP3    H131957   0.960   1.907  11.566 -0.2951  1.5144 -0.8959
 3514TIP3    H231958   1.062   2.009  11.520  0.5361  0.5188 -1.3012
 3515TIP3   OH231959   4.970   0.910  12.391 -0.3435 -0.2030  0.5618
 3515TIP3    H131960   5.024   0.831  12.393  1.1054  0.5783 -2.4402
 3515TIP3    H231961   5.026   0.979  12.426 -0.8312 -0.0805  1.1206
 3516TIP3   OH231962   5.418   1.191  14.008 -0.1670  0.1348  0.5964
 3516TIP3    H131963   5.473   1.259  13.970 -0.8009 -0.8873 -2.3800
 3516TIP3    H231964   5.376   1.234  14.083  1.5290  2.1366  0.4963
 3517TIP3   OH231965   2.971   4.235   1.234 -0.1077  0.2348 -0.0480
 3517TIP3    H131966   2.939   4.243   1.325 -0.2010 -1.0378  0.0507
 3517TIP3    H231967   3.021   4.154   1.234  0.4109  0.5498 -1.0051
 3518TIP3   OH231968   5.303   2.089   1.033 -0.1537  0.2920 -0.2535
 3518TIP3    H131969   5.245   2.079   1.109 -0.2984 -1.5569 -0.5413
 3518TIP3    H231970   5.309   2.000   0.997  1.7834  0.7085 -1.0377
 3519TIP3   OH231971   0.654   1.125  13.424 -0.1777  0.1802  0.6973
 3519TIP3    H131972   0.708   1.052  13.453 -0.3205 -0.2450 -0.0873
 3519TIP3    H231973   0.619   1.163  13.505 -0.3891 -0.8278  1.0860
 3520TIP3   OH231974   4.690   2.032  13.177  0.4685  0.0713 -0.3325
 3520TIP3    H131975   4.635   2.025  13.099 -0.9695  1.5827  0.4696
 3520TIP3    H231976   4.755   2.100  13.155 -1.4972  2.3910  0.5319
 3521TIP3   OH231977   2.843   4.692  10.285  0.5177  0.1270 -0.1021
 3521TIP3    H131978   2.875   4.610  10.246  0.7708 -0.1179  0.5915
 3521TIP3    H231979   2.838   4.753  10.212  1.5840 -0.1376 -0.4251
 3522TIP3   OH231980   5.600   1.647  14.047 -0.2815 -0.4131  0.0628
 3522TIP3    H131981   5.659   1.608  14.111 -1.7485 -2.3619  0.3207
 3522TIP3    H231982   5.538   1.698  14.099 -1.4737 -1.9970  0.2801
 3523TIP3   OH231983   5.046   5.362   9.499  0.2802 -0.2190  0.3283
 3523TIP3    H131984   5.056   5.331   9.589 -1.4489  0.8771  0.9657
 3523TIP3    H231985   4.970   5.314   9.466 -0.8969  1.4470  0.4956
 3524TIP3   OH231986   0.514   3.113   0.990  0.0810  0.1885 -0.3884
 3524TIP3    H131987   0.441   3.053   1.005 -1.1065  1.8466  0.8101
 3524TIP3    H231988   0.492   3.160   0.910  1.1608 -1.1065 -1.5007
 3525TIP3   OH231989   6.749   6.118  11.433  0.5340 -0.9281 -0.0196
 3525TIP3    H131990   6.761   6.048  11.369  1.5261  0.0149 -0.9048
 3525TIP3    H231991   6.820   6.106  11.496  1.2253 -0.2356 -0.6484
 3526TIP3   OH231992   0.880   0.526  12.746  0.3299  0.0757  0.1282
 3526TIP3    H131993   0.911   0.565  12.664 -0.1391  2.4784  1.0021
 3526TIP3    H231994   0.812   0.586  12.777 -2.4253 -2.8854  0.3263
 3527TIP3   OH231995   1.499   4.073   3.987 -0.4977  0.6248 -0.7588
 3527TIP3    H131996   1.519   3.981   3.974 -1.7702  0.2198 -0.0252
 3527TIP3    H231997   1.437   4.094   3.917 -1.7373  0.3765  0.2363
 3528TIP3   OH231998   5.906   3.206  13.130 -0.0281  0.2649 -0.1514
 3528TIP3    H131999   5.961   3.146  13.081 -0.8238 -1.2665  0.7692
 3528TIP3    H232000   5.968   3.258  13.182  0.6226 -0.5518 -0.0912
 3529TIP3   OH232001   6.512   5.512  11.911  0.3460 -0.6192  0.2048
 3529TIP3    H132002   6.540   5.537  11.823  0.7753  2.1702  1.0287
 3529TIP3    H232003   6.592   5.516  11.964 -0.4964  2.0809  1.5010
 3530TIP3   OH232004   2.257   5.063  12.586 -0.0623 -0.1881 -0.4890
 3530TIP3    H132005   2.199   5.028  12.519  1.1780 -1.6377 -0.8613
 3530TIP3    H232006   2.327   5.107  12.537  0.4702 -0.6282 -0.1362
 3531TIP3   OH232007   0.797   4.907  11.240 -0.5043  0.2742 -0.1547
 3531TIP3    H132008   0.819   4.981  11.184 -2.1896 -0.6598 -2.2066
 3531TIP3    H232009   0.836   4.831  11.196 -1.2050 -0.4033  0.3589
 3532TIP3   OH232010   6.641   2.667  15.070  0.2005 -0.3108  0.5162
 3532TIP3    H132011   6.678   2.609  15.137  0.0126  1.1118  1.8905
 3532TIP3    H232012   6.630   2.610  14.994 -0.0299 -2.1013  1.8171
 3533TIP3   OH232013   0.108   5.284  12.619  0.0543  0.5633 -0.0996
 3533TIP3    H132014   0.183   5.342  12.628  0.1717  0.1024  2.6439
 3533TIP3    H232015   0.145   5.196  12.614 -0.2306  0.2010  2.7024
 3534TIP3   OH232016   6.257   1.726  10.520 -0.3422 -0.3877 -1.1524
 3534TIP3    H132017   6.326   1.683  10.470 -1.0261 -1.7059 -1.0168
 3534TIP3    H232018   6.181   1.668  10.511 -0.6931 -0.2927  0.7699
 3535TIP3   OH232019   1.136   6.890  12.149  0.1108 -0.0413  0.1837
 3535TIP3    H132020   1.220   6.933  12.168 -0.2969  0.8492  0.0385
 3535TIP3    H232021   1.143   6.804  12.189  0.9651  0.1558  0.4757
 3536TIP3   OH232022   1.732   2.131  10.229 -0.6094  0.6835 -0.2184
 3536TIP3    H132023   1.676   2.070  10.277  0.5063 -0.5548 -0.4278
 3536TIP3    H232024   1.733   2.211  10.282 -1.3658  0.2006  0.5381
 3537TIP3   OH232025   2.077   0.977  10.701 -0.5611 -0.1869 -0.0151
 3537TIP3    H132026   2.099   1.010  10.788 -2.5424  1.9075 -0.2246
 3537TIP3    H232027   2.004   0.917  10.716  0.5134 -1.5369 -0.0473
 3538TIP3   OH232028   5.332   0.275  10.241  0.2019  0.6326 -0.0478
 3538TIP3    H132029   5.425   0.287  10.262  0.1652  0.6708  0.0936
 3538TIP3    H232030   5.314   0.342  10.175 -0.1210  1.7028  1.0777
 3539TIP3   OH232031   3.474   2.374  14.686  0.0719  0.4330 -0.4142
 3539TIP3    H132032   3.430   2.344  14.766  0.1858 -0.0652 -0.5348
 3539TIP3    H232033   3.410   2.358  14.616 -0.3004  1.5289 -0.3349
 3540TIP3   OH232034   4.346   2.826   9.351  0.3051  0.2631 -0.4083
 3540TIP3    H132035   4.294   2.900   9.319  2.1208  0.7843 -2.3874
 3540TIP3    H232036   4.400   2.863   9.421 -1.3105 -0.1107  1.1293
 3541TIP3   OH232037   0.157   1.859  13.541 -0.5263 -0.1077 -0.1631
 3541TIP3    H132038   0.133   1.925  13.477 -1.3522  0.7280  0.9541
 3541TIP3    H232039   0.074   1.817  13.564 -0.4239  0.3479  1.1222
 3542TIP3   OH232040   4.458   6.750  14.019  0.4121  0.0704 -0.6593
 3542TIP3    H132041   4.518   6.745  14.094 -0.4770 -2.5527 -0.0277
 3542TIP3    H232042   4.378   6.788  14.055 -0.5255 -2.4936  0.2141
 3543TIP3   OH232043   6.058   5.928  13.437  0.0597 -0.0229 -0.2002
 3543TIP3    H132044   6.026   5.989  13.503  0.1187 -0.7798  0.5291
 3543TIP3    H232045   6.046   5.975  13.354  0.0149  0.9389  0.3383
 3544TIP3   OH232046   6.176   1.866  12.416  0.3734  0.2798 -0.0840
 3544TIP3    H132047   6.108   1.929  12.440 -0.8063 -1.4483  1.4091
 3544TIP3    H232048   6.151   1.835  12.329 -1.2731 -0.8960  0.7527
 3545TIP3   OH232049   0.918   5.501   2.312  0.2123  0.6652  0.3914
 3545TIP3    H132050   0.891   5.577   2.261 -0.6166 -0.0631 -0.2914
 3545TIP3    H232051   1.013   5.500   2.304  0.1475  0.9715 -0.5682
 3546TIP3   OH232052   0.335   0.745   2.096  0.6732 -0.2397  0.2950
 3546TIP3    H132053   0.265   0.724   2.034 -0.6079 -0.9852  1.9097
 3546TIP3    H232054   0.367   0.831   2.069 -1.1261  0.2836 -0.2952
 3547TIP3   OH232055   1.475   2.096   3.680  0.7334  0.4324 -0.3511
 3547TIP3    H132056   1.533   2.025   3.655  1.1407  0.6138  0.0707
 3547TIP3    H232057   1.530   2.174   3.679  0.0600  0.9381 -1.8525
 3548TIP3   OH232058   5.366   5.152   9.564  0.1648 -0.1450 -0.3492
 3548TIP3    H132059   5.333   5.159   9.474  1.1684 -0.2394 -0.7459
 3548TIP3    H232060   5.289   5.161   9.619 -0.2774  1.5309 -1.1764
 3549TIP3   OH232061   3.005   4.465   0.562 -0.3100 -0.0366  0.2199
 3549TIP3    H132062   3.094   4.432   0.549 -0.1206 -0.5596  2.4635
 3549TIP3    H232063   2.952   4.386   0.575 -0.8780  0.3366  0.2215
 3550TIP3   OH232064   7.161   0.556  14.056  0.1588  0.0715 -0.0063
 3550TIP3    H132065   7.094   0.622  14.040 -0.4185 -0.5364 -0.1122
 3550TIP3    H232066   7.242   0.596  14.023 -0.3272  0.3950 -0.8353
 3551TIP3   OH232067   1.178   6.450   1.660 -0.4393 -0.2959 -0.4129
 3551TIP3    H132068   1.117   6.421   1.592 -1.4076 -1.3110  0.8508
 3551TIP3    H232069   1.255   6.395   1.648  0.2895  0.9752 -1.9992
 3552TIP3   OH232070   6.076   6.407  13.137  0.1122 -0.2395  0.1462
 3552TIP3    H132071   6.110   6.406  13.226 -0.1813  0.2785  0.2692
 3552TIP3    H232072   5.981   6.420  13.148  0.0997  0.0105 -0.2476
 3553TIP3   OH232073   6.820   2.505   4.376  0.1090  0.2076 -0.1356
 3553TIP3    H132074   6.862   2.444   4.315 -0.5238 -1.4000  0.9570
 3553TIP3    H232075   6.885   2.518   4.446  0.5325  1.4209 -0.7296
 3554TIP3   OH232076   6.712   0.563   2.316 -0.0390 -0.2221  0.6153
 3554TIP3    H132077   6.790   0.536   2.365 -0.8623  0.2684  2.2751
 3554TIP3    H232078   6.743   0.631   2.257  0.5501  1.1812  2.4378
 3555TIP3   OH232079   5.205   2.406  14.563 -0.1472 -0.2040  0.1181
 3555TIP3    H132080   5.245   2.319  14.553  1.9484  0.8268 -1.1107
 3555TIP3    H232081   5.276   2.467  14.546 -1.2376  1.8114  2.2973
 3556TIP3   OH232082   0.093   6.053  14.685 -0.0462 -0.9683  0.5405
 3556TIP3    H132083  -0.003   6.055  14.679  0.0133 -1.1127 -0.6243
 3556TIP3    H232084   0.122   6.024  14.599  1.1459  1.7634 -0.0890
 3557TIP3   OH232085   2.011   3.932  10.565  0.7913  0.2936  0.4036
 3557TIP3    H132086   2.074   4.000  10.589  0.7978  0.9355 -1.3055
 3557TIP3    H232087   1.957   3.921  10.643  0.8591  2.2046  0.7726
 3558TIP3   OH232088   0.173   5.690  10.365 -0.1840  0.0666 -0.0702
 3558TIP3    H132089   0.198   5.625  10.299  2.5122  1.1738 -0.2539
 3558TIP3    H232090   0.148   5.637  10.441  0.0939 -1.2082 -0.8239
 3559TIP3   OH232091   3.399   3.279  10.487  0.0855  0.4655 -0.3697
 3559TIP3    H132092   3.331   3.218  10.458  1.0676 -0.7590 -0.1611
 3559TIP3    H232093   3.387   3.285  10.582  1.8228 -1.7775  0.0585
 3560TIP3   OH232094   0.837   5.730  11.274 -0.0673 -0.1426  0.0456
 3560TIP3    H132095   0.823   5.705  11.183 -1.0922  0.2049  0.0988
 3560TIP3    H232096   0.784   5.809  11.287 -1.8428 -1.4604  1.5331
 3561TIP3   OH232097   6.413   5.525   2.409 -0.2260 -0.5192 -0.1540
 3561TIP3    H132098   6.346   5.463   2.381 -2.1455  1.2800  0.2443
 3561TIP3    H232099   6.400   5.533   2.504  1.4992 -1.1599  0.1771
 3562TIP3   OH232100   6.553   5.670   1.328  0.5197 -0.2042  0.0122
 3562TIP3    H132101   6.461   5.646   1.319  0.7881 -1.3712  0.2857
 3562TIP3    H232102   6.558   5.759   1.292 -0.3704 -0.7729 -1.6037
 3563TIP3   OH232103   6.182   2.378  11.840 -0.1084 -0.1687 -0.9767
 3563TIP3    H132104   6.173   2.287  11.810  1.4300 -1.0664  1.0685
 3563TIP3    H232105   6.092   2.408  11.851 -0.6509 -1.6802 -1.0183
 3564TIP3   OH232106   1.543   2.644  11.696  0.4464 -0.1737  0.1530
 3564TIP3    H132107   1.504   2.633  11.609  0.6399  2.4652 -0.3634
 3564TIP3    H232108   1.478   2.695  11.745  1.5963  1.0049  0.5142
 3565TIP3   OH232109   3.812   0.187  11.737  0.3349  0.6124 -0.4152
 3565TIP3    H132110   3.798   0.209  11.645  0.1025 -1.7605 -1.0175
 3565TIP3    H232111   3.724   0.182  11.775  0.2945 -0.5946 -0.6462
 3566TIP3   OH232112   0.831   2.911  12.752 -0.1012 -0.4925  0.4787
 3566TIP3    H132113   0.849   2.884  12.662  2.1083  1.4534  0.2171
 3566TIP3    H232114   0.759   2.974  12.745 -0.9871 -1.5078  0.3031
 3567TIP3   OH232115   5.746   0.585   3.364 -0.0152  0.2905 -0.1926
 3567TIP3    H132116   5.746   0.566   3.458 -0.0622  1.6961  0.1143
 3567TIP3    H232117   5.654   0.596   3.341  0.0210  0.3870 -0.2972
 3568TIP3   OH232118   1.809   4.797  10.748 -0.4727 -0.6146  0.9295
 3568TIP3    H132119   1.815   4.788  10.653  0.0691 -0.4392  0.9437
 3568TIP3    H232120   1.715   4.797  10.766 -0.5801 -0.6323  0.3924
 3569TIP3   OH232121   1.217   0.930   1.121 -0.0817  0.1165 -0.2301
 3569TIP3    H132122   1.285   0.993   1.098 -0.9592  0.7950 -1.0518
 3569TIP3    H232123   1.161   0.977   1.184 -2.1792  1.1610 -2.6920
 3570TIP3   OH232124   4.986   1.173  13.136 -0.0634  0.1143 -0.4770
 3570TIP3    H132125   4.977   1.101  13.198  2.0845 -1.1655 -1.5301
 3570TIP3    H232126   4.917   1.159  13.072 -2.1985  1.3588  1.4104
 3571TIP3   OH232127   1.011   0.166  15.448 -0.6443 -0.3203  0.3494
 3571TIP3    H132128   0.952   0.108  15.400 -0.5678 -0.9553  1.0038
 3571TIP3    H232129   1.098   0.130  15.431 -0.6180 -0.5523  0.9674
 3572TIP3   OH232130   3.698   3.085  13.643 -0.2755 -0.5083 -0.0896
 3572TIP3    H132131   3.783   3.122  13.668 -0.1872 -0.7349 -0.0443
 3572TIP3    H232132   3.638   3.115  13.711  0.0737 -1.5661  0.7191
 3573TIP3   OH232133   2.747   2.809   3.562  0.8520 -0.7865 -0.0180
 3573TIP3    H132134   2.793   2.829   3.644  1.4887 -2.1322 -0.0174
 3573TIP3    H232135   2.775   2.719   3.541 -1.9652 -1.7899  0.1291
 3574TIP3   OH232136   5.509   3.730  10.753 -0.3972  0.0029 -0.4196
 3574TIP3    H132137   5.433   3.706  10.701 -0.4015 -0.8139 -0.0469
 3574TIP3    H232138   5.575   3.664  10.733 -0.1774  0.0478  0.1267
 3575TIP3   OH232139   6.359   3.696  11.372 -0.0051 -0.0378  0.0450
 3575TIP3    H132140   6.444   3.657  11.388  0.7649  0.7271 -1.9152
 3575TIP3    H232141   6.367   3.786  11.403 -0.2792 -0.1103  0.3359
 3576TIP3   OH232142   3.596   3.685  14.510 -0.0264  0.3240  0.3507
 3576TIP3    H132143   3.639   3.742  14.446 -0.3205  0.7285  0.5033
 3576TIP3    H232144   3.666   3.634  14.549  0.2695  0.7282  0.3504
 3577TIP3   OH232145   3.100   7.142   9.558  0.4382  1.1245  0.0063
 3577TIP3    H132146   3.127   7.226   9.521  0.0040  1.4692  0.4731
 3577TIP3    H232147   3.010   7.155   9.585  1.0229  1.1792  2.0811
 3578TIP3   OH232148   3.920   2.206   0.673  0.5667 -0.2375 -0.2191
 3578TIP3    H132149   3.900   2.178   0.583  0.7400 -0.1253 -0.2948
 3578TIP3    H232150   3.938   2.300   0.665  0.3395 -0.1802 -0.0253
 3579TIP3   OH232151   0.273   1.640   0.548  0.1010 -0.1696 -0.1125
 3579TIP3    H132152   0.280   1.667   0.456 -0.6948 -0.0590 -0.1445
 3579TIP3    H232153   0.342   1.688   0.593 -1.0048  1.6071 -0.2394
 3580TIP3   OH232154   3.091   2.145  13.861 -0.3350 -0.3502 -0.1734
 3580TIP3    H132155   3.039   2.192  13.796 -0.4295 -1.4333 -0.8970
 3580TIP3    H232156   3.177   2.135  13.821  0.1831  0.6205  0.6451
 3581TIP3   OH232157   3.664   2.855  14.081  0.5942  0.0290  0.2848
 3581TIP3    H132158   3.624   2.921  14.138  2.1003  0.5734  0.7659
 3581TIP3    H232159   3.590   2.810  14.040 -0.4901  0.8617  1.2684
 3582TIP3   OH232160   6.848   0.658  11.266 -0.0703 -0.6330  0.1633
 3582TIP3    H132161   6.890   0.574  11.247 -1.2459 -1.3723  0.7069
 3582TIP3    H232162   6.913   0.724  11.241  0.3827 -1.6592 -1.5167
 3583TIP3   OH232163   0.509   3.684  11.368  0.1834  0.5085 -0.1352
 3583TIP3    H132164   0.426   3.704  11.411  1.0686  0.8553  1.5233
 3583TIP3    H232165   0.562   3.763  11.380  1.5847 -0.5394  1.0566
 3584TIP3   OH232166   0.259   4.213  14.011 -0.5725  0.2767  0.9188
 3584TIP3    H132167   0.232   4.164  13.933 -1.2817  0.0205  1.3205
 3584TIP3    H232168   0.184   4.267  14.033 -1.6056 -1.9231  3.2518
 3585TIP3   OH232169   1.142   4.707   2.186 -0.2588  0.0994 -0.1169
 3585TIP3    H132170   1.146   4.622   2.142 -1.2389 -0.9641  1.7394
 3585TIP3    H232171   1.057   4.743   2.160 -1.1154 -0.8055  1.2820
 3586TIP3   OH232172   7.032   2.524  11.621 -0.0741 -0.7759  0.1173
 3586TIP3    H132173   7.086   2.496  11.695  0.4979  1.3927  0.6007
 3586TIP3    H232174   6.952   2.557  11.662  1.2427  2.8797  0.1983
 3587TIP3   OH232175   2.396   3.738  13.302 -0.4394 -0.3765 -0.9366
 3587TIP3    H132176   2.395   3.668  13.236  0.0744 -1.0421 -0.2535
 3587TIP3    H232177   2.485   3.735  13.338 -1.1483 -1.0560  0.8748
 3588TIP3   OH232178   4.876   5.333   0.652 -0.6882 -0.3439  0.0175
 3588TIP3    H132179   4.940   5.370   0.590  0.0563  1.6943  1.8821
 3588TIP3    H232180   4.924   5.327   0.735 -2.9301  1.6622  1.5925
 3589TIP3   OH232181   1.933   4.936  11.816  0.3771  0.3137 -0.8375
 3589TIP3    H132182   1.938   4.926  11.911  0.4516  0.7524 -0.7908
 3589TIP3    H232183   1.945   5.030  11.802  0.0351  0.2962 -1.2562
 3590TIP3   OH232184   3.493   6.506  10.715 -0.0586 -0.0470 -0.0858
 3590TIP3    H132185   3.442   6.479  10.792  0.4366 -0.1010  0.2350
 3590TIP3    H232186   3.507   6.600  10.728 -2.6253  0.6489 -1.7003
 3591TIP3   OH232187   4.182   5.415   0.575 -0.3588 -0.1437  0.2312
 3591TIP3    H132188   4.100   5.402   0.527 -0.2374 -2.3062  0.4662
 3591TIP3    H232189   4.215   5.500   0.546 -1.6394 -0.1602 -1.4263
 3592TIP3   OH232190   4.734   0.606  13.760 -0.3527  0.1242  0.1820
 3592TIP3    H132191   4.818   0.631  13.721 -0.5281  0.2942 -0.0907
 3592TIP3    H232192   4.669   0.631  13.694 -0.7738  1.6453  1.1233
 3593TIP3   OH232193   1.366   2.888   2.065 -0.0652 -0.0261  0.1226
 3593TIP3    H132194   1.380   2.979   2.091 -0.8423  0.3179 -0.5908
 3593TIP3    H232195   1.451   2.857   2.035  0.3014  0.3226  0.8029
 3594TIP3   OH232196   6.300   2.630  11.647  0.1397  0.3044  0.2493
 3594TIP3    H132197   6.310   2.692  11.719 -0.5925  2.9512 -1.7759
 3594TIP3    H232198   6.261   2.681  11.576  0.6049 -2.2047 -1.9823
 3595TIP3   OH232199   6.823   5.864  10.039 -0.6491  0.1182  0.4771
 3595TIP3    H132200   6.731   5.888  10.044 -0.4434  0.9584  0.3546
 3595TIP3    H232201   6.869   5.936  10.083 -0.0697 -0.4070  0.7492
 3596TIP3   OH232202   4.380   0.610   3.678 -0.7272 -0.0610  0.7379
 3596TIP3    H132203   4.294   0.619   3.637  0.3155 -0.0073 -1.6072
 3596TIP3    H232204   4.401   0.517   3.669  0.3231  0.2859 -0.6639
 3597TIP3   OH232205   4.711   4.943   9.857 -0.4416  0.1796 -0.4506
 3597TIP3    H132206   4.786   4.984   9.814 -0.8830 -0.8956 -2.3633
 3597TIP3    H232207   4.644   5.012   9.860 -0.1106  0.5138 -0.7327
 3598TIP3   OH232208   0.009   0.897  11.281 -0.3285  0.4393 -0.0173
 3598TIP3    H132209  -0.035   0.865  11.202 -1.2834  1.3398  0.1156
 3598TIP3    H232210  -0.000   0.992  11.276  2.2525  0.7342 -0.3306
 3599TIP3   OH232211   4.444   1.471  12.867 -1.3171 -0.2386  0.3000
 3599TIP3    H132212   4.536   1.469  12.842 -0.7152 -0.0579  2.3303
 3599TIP3    H232213   4.396   1.472  12.783  0.4267 -2.3293 -0.8260
 3600TIP3   OH232214   6.113   2.309  10.611 -0.5505 -0.3145  0.0814
 3600TIP3    H132215   6.149   2.236  10.661 -0.6586  0.2123  0.9599
 3600TIP3    H232216   6.170   2.383  10.632 -0.2512 -0.2084 -1.0470
 3601TIP3   OH232217   3.778   5.525   9.955  0.3725 -0.6345  0.3028
 3601TIP3    H132218   3.871   5.529   9.977  0.7984 -1.7893 -1.0985
 3601TIP3    H232219   3.759   5.610   9.915  1.2381 -0.9387 -0.8055
 3602TIP3   OH232220   0.598   0.473  14.919 -0.5861 -0.0652  0.6320
 3602TIP3    H132221   0.652   0.460  14.841 -0.6170 -1.5201  0.8226
 3602TIP3    H232222   0.512   0.496  14.885 -0.7722 -1.3251  0.1704
 3603TIP3   OH232223   3.469   1.635   4.968  0.4286 -0.1277 -0.7207
 3603TIP3    H132224   3.533   1.682   4.914  0.5679 -0.3470 -0.7503
 3603TIP3    H232225   3.391   1.690   4.966  1.0550  0.8446  0.4522
 3604TIP3   OH232226   0.827   2.051  10.694  0.2155 -0.7592  0.6492
 3604TIP3    H132227   0.861   1.984  10.752  0.2922 -0.4848  0.9219
 3604TIP3    H232228   0.751   2.087  10.740  0.7505  0.0143  0.9543
 3605TIP3   OH232229   2.059   2.753  12.702  0.2758  0.2609  0.3615
 3605TIP3    H132230   2.099   2.695  12.767  1.2768 -0.7577 -1.0949
 3605TIP3    H232231   1.966   2.754  12.724  0.3926 -1.1635  0.9871
 3606TIP3   OH232232   4.599   4.329  12.881 -0.2263  0.4268 -0.7775
 3606TIP3    H132233   4.620   4.263  12.947 -0.1840  1.6133  0.4346
 3606TIP3    H232234   4.638   4.295  12.800  1.5889 -0.0771  0.2397
 3607TIP3   OH232235   0.793   4.314  12.603  0.4345  0.0363 -0.3923
 3607TIP3    H132236   0.741   4.345  12.677 -1.2389  1.0846 -1.9220
 3607TIP3    H232237   0.865   4.376  12.596  0.9926 -0.4534  0.7159
 3608TIP3   OH232238   0.327   1.190  10.885 -0.2807  0.1438  0.1893
 3608TIP3    H132239   0.333   1.110  10.936  1.7090  0.4796  0.5466
 3608TIP3    H232240   0.253   1.237  10.923 -0.5075 -0.8264  0.9714
 3609TIP3   OH232241   5.238   5.297  10.359  0.0820  0.2419  0.1472
 3609TIP3    H132242   5.211   5.357  10.289 -1.9108 -2.0935 -1.2219
 3609TIP3    H232243   5.295   5.234  10.315  0.1368 -0.3171  1.0110
 3610TIP3   OH232244   3.062   2.905   0.619 -0.0230  0.2788  0.4448
 3610TIP3    H132245   3.023   2.991   0.606 -0.1302  0.2191  0.3629
 3610TIP3    H232246   3.141   2.906   0.565  1.1331  1.0719  2.0600
 3611TIP3   OH232247   0.441   4.601   9.941 -0.4407 -0.0336 -0.0820
 3611TIP3    H132248   0.403   4.524   9.982 -1.5511  1.1984  1.3199
 3611TIP3    H232249   0.366   4.656   9.918  0.2624  0.1689 -2.0685
 3612TIP3   OH232250   0.280   3.843   1.239 -0.2095 -0.5641 -0.0038
 3612TIP3    H132251   0.284   3.939   1.242  1.9974 -0.6325  1.4275
 3612TIP3    H232252   0.364   3.817   1.200  0.2689 -1.9292  1.7901
 3613TIP3   OH232253   5.022   2.487   0.986  0.4215 -0.1730  0.0846
 3613TIP3    H132254   5.037   2.393   0.993  0.0577 -0.2033  0.5432
 3613TIP3    H232255   5.081   2.526   1.049  0.0855 -0.1435  0.3821
 3614TIP3   OH232256   4.882   6.853  11.015 -0.0723  0.1988 -0.0145
 3614TIP3    H132257   4.810   6.796  10.985 -0.0108 -0.0936  0.3726
 3614TIP3    H232258   4.909   6.901  10.937  0.9735 -1.4971 -0.7689
 3615TIP3   OH232259   0.481   3.654  13.325 -0.0074 -0.1562 -0.0254
 3615TIP3    H132260   0.568   3.620  13.342  0.2106  0.3701 -0.0627
 3615TIP3    H232261   0.450   3.606  13.249  0.8300  0.6573 -0.9119
 3616TIP3   OH232262   4.435   5.979  12.821 -0.3603 -0.7161 -0.2236
 3616TIP3    H132263   4.360   5.958  12.765 -0.6245  0.4312 -0.3232
 3616TIP3    H232264   4.485   6.043  12.770 -0.8715  0.7536  1.0306
 3617TIP3   OH232265   3.516   2.044  12.654  0.4310 -0.2337  0.0177
 3617TIP3    H132266   3.552   1.956  12.642  0.7272 -0.1605  0.3705
 3617TIP3    H232267   3.454   2.034  12.727  0.1735 -0.2329 -0.2002
 3618TIP3   OH232268   3.074   6.575  10.093 -0.0830  0.4110 -0.2440
 3618TIP3    H132269   3.051   6.583  10.000  0.2727 -0.2602 -0.4020
 3618TIP3    H232270   3.162   6.536  10.092 -0.0341  0.4981  0.3713
 3619TIP3   OH232271   0.126   6.491  13.805 -0.1363 -0.1512  0.5124
 3619TIP3    H132272   0.153   6.438  13.730  0.4971  1.3663 -0.3794
 3619TIP3    H232273   0.195   6.557  13.814 -0.2418 -0.2524  2.4033
 3620TIP3   OH232274   5.701   0.353   1.701 -0.1487 -0.1631 -0.0343
 3620TIP3    H132275   5.688   0.258   1.702  1.6493 -0.4477 -0.1854
 3620TIP3    H232276   5.762   0.369   1.773  1.5765  0.5091 -1.5861
 3621TIP3   OH232277   1.236   3.885  11.007  0.2478  0.1953  0.0699
 3621TIP3    H132278   1.149   3.848  10.993 -0.2135  1.0222  0.6119
 3621TIP3    H232279   1.288   3.854  10.933 -0.3430 -0.7931  0.0526
 3622TIP3   OH232280   5.485   5.044  10.540 -0.3177  0.4643 -0.0731
 3622TIP3    H132281   5.493   5.137  10.520  1.8651  0.5772  1.0354
 3622TIP3    H232282   5.559   5.025  10.598 -1.4564 -1.6827  0.7950
 3623TIP3   OH232283   0.280   0.060  10.012 -0.0913 -0.4152  0.1237
 3623TIP3    H132284   0.185   0.064  10.002 -0.1070 -0.6679  0.1441
 3623TIP3    H232285   0.311   0.147   9.990 -0.3357 -0.3139  0.1802
 3624TIP3   OH232286   4.536   4.173  14.161  0.0969 -1.0834  0.2764
 3624TIP3    H132287   4.587   4.095  14.178 -2.0064 -1.9986  3.2300
 3624TIP3    H232288   4.524   4.214  14.247 -0.4156  1.5084 -0.9196
 3625TIP3   OH232289   0.940   3.661  14.844 -0.6640 -0.1520  0.2773
 3625TIP3    H132290   0.925   3.647  14.938  1.6665  0.5087  0.8109
 3625TIP3    H232291   0.907   3.749  14.828 -1.7544 -0.5420  0.2745
 3626TIP3   OH232292   0.247   0.199  14.052  0.1033  0.0093  0.4023
 3626TIP3    H132293   0.287   0.197  14.139 -0.8548  1.8121  0.9371
 3626TIP3    H232294   0.253   0.291  14.025 -1.4623 -0.1324 -0.5362
 3627TIP3   OH232295   2.414   0.289  13.484 -0.0449 -0.3135  0.3177
 3627TIP3    H132296   2.329   0.285  13.526 -0.5977 -0.3190 -0.7704
 3627TIP3    H232297   2.420   0.208  13.433  0.1936  0.1213 -0.3654
 3628TIP3   OH232298   0.413   3.240  13.259 -0.1553 -0.0059 -0.5705
 3628TIP3    H132299   0.413   3.236  13.164 -1.2276  0.2779 -0.5954
 3628TIP3    H232300   0.500   3.209  13.285 -0.9075 -3.2506 -1.5007
 3629TIP3   OH232301   5.822   5.105   0.028 -0.3114  0.6308  0.2404
 3629TIP3    H132302   5.812   5.049  -0.049 -0.1181 -1.1722  1.4760
 3629TIP3    H232303   5.746   5.164   0.024 -1.1932 -0.5062 -0.4603
 3630TIP3   OH232304   7.131   6.566   1.746  0.9063 -0.1817  0.2792
 3630TIP3    H132305   7.044   6.540   1.776  0.6415  0.6383  0.2464
 3630TIP3    H232306   7.119   6.654   1.711  1.2320 -0.9785 -2.0608
 3631TIP3   OH232307   5.739   3.497   0.967 -0.1341 -0.1702  0.0809
 3631TIP3    H132308   5.662   3.441   0.976 -1.0571  1.3260  2.0751
 3631TIP3    H232309   5.731   3.534   0.879 -0.6278 -1.5080 -0.4595
 3632TIP3   OH232310   5.429   4.264  13.208  0.5330 -0.3888 -0.0498
 3632TIP3    H132311   5.407   4.352  13.239 -0.1729 -0.1709 -1.1044
 3632TIP3    H232312   5.495   4.233  13.269  1.7794  1.4038 -0.4038
 3633TIP3   OH232313   7.152   1.034  14.669 -0.0347 -0.5196 -0.0654
 3633TIP3    H132314   7.186   1.121  14.650 -0.0931 -0.4591  0.1071
 3633TIP3    H232315   7.196   0.977  14.607 -1.2298 -0.1351 -1.3282
 3634TIP3   OH232316   1.630   4.870  14.140 -0.0795 -0.1013  0.1831
 3634TIP3    H132317   1.631   4.933  14.212 -0.2367  1.9832 -1.5181
 3634TIP3    H232318   1.568   4.803  14.167 -2.3342  2.1112  0.8778
 3635TIP3   OH232319   5.156   6.953   2.158  0.5787 -0.1047 -0.1620
 3635TIP3    H132320   5.108   6.913   2.086  1.5571  0.0331 -0.9047
 3635TIP3    H232321   5.163   7.046   2.133  2.7823 -0.4377 -0.9714
 3636TIP3   OH232322   4.699   3.935   2.895  0.5675  0.4116  0.4552
 3636TIP3    H132323   4.679   3.941   2.802 -0.8706 -0.7624  0.6478
 3636TIP3    H232324   4.728   4.023   2.919 -0.2738  1.0776 -0.8320
 3637TIP3   OH232325   0.550   5.993  13.339  0.0482  0.2013 -0.0417
 3637TIP3    H132326   0.575   5.941  13.415  1.3254 -0.9843 -1.2232
 3637TIP3    H232327   0.627   6.048  13.322  0.9080 -1.4961 -2.0544
 3638TIP3   OH232328   2.007   3.885  14.580 -0.3106 -0.1533  0.2064
 3638TIP3    H132329   1.983   3.964  14.629  0.6263 -0.3471  1.0174
 3638TIP3    H232330   1.987   3.814  14.641  1.7755 -0.3521  0.7411
 3639TIP3   OH232331   1.780   2.147  11.548 -0.1806 -0.1947 -0.1026
 3639TIP3    H132332   1.741   2.174  11.464  1.2269 -1.4345 -1.2102
 3639TIP3    H232333   1.800   2.230  11.592  1.1186  0.5939 -2.0066
 3640TIP3   OH232334   6.045   5.589  11.898  0.2433  0.7329  0.1406
 3640TIP3    H132335   6.026   5.576  11.805 -0.1750  2.2072 -0.0043
 3640TIP3    H232336   6.118   5.651  11.899 -0.9733  2.1994  0.7975
 3641TIP3   OH232337   6.208   4.637  12.660 -0.7702  0.5461  0.2595
 3641TIP3    H132338   6.294   4.676  12.644 -0.9073  0.7210 -0.0685
 3641TIP3    H232339   6.155   4.667  12.586 -0.9946  0.0847  0.2353
 3642TIP3   OH232340   0.594   1.046   3.180 -0.4518 -0.2778 -0.7868
 3642TIP3    H132341   0.561   1.026   3.092 -1.4505 -1.3042 -0.2198
 3642TIP3    H232342   0.593   0.962   3.225  0.8378  0.0926 -0.0348
 3643TIP3   OH232343   5.135   3.932  11.240  0.0333 -0.7006  1.0083
 3643TIP3    H132344   5.070   3.960  11.176 -0.4070 -0.9141  1.3526
 3643TIP3    H232345   5.205   3.996  11.233 -0.3550 -0.2871  0.8505
 3644TIP3   OH232346   6.503   6.261  10.443  0.0425  0.4994  0.1993
 3644TIP3    H132347   6.585   6.215  10.461  0.2177  0.4030 -0.8084
 3644TIP3    H232348   6.480   6.302  10.526  0.9250  0.2307  0.5866
 3645TIP3   OH232349   0.213   5.724  10.034  0.0424 -0.4906 -0.1557
 3645TIP3    H132350   0.138   5.679  10.073 -1.3980  0.7723 -1.3596
 3645TIP3    H232351   0.273   5.653  10.010 -1.0582 -1.5862  0.1994
 3646TIP3   OH232352   4.556   5.431  11.365 -0.0544  0.5300  0.5670
 3646TIP3    H132353   4.630   5.475  11.406  1.5999 -0.1863 -1.4788
 3646TIP3    H232354   4.522   5.495  11.302 -0.1515  0.2800  0.3623
 3647TIP3   OH232355   2.084   5.819  13.805 -0.0655 -0.4037 -0.2214
 3647TIP3    H132356   2.029   5.819  13.726 -0.1352  1.2469 -0.2049
 3647TIP3    H232357   2.104   5.911  13.820  1.7309 -0.8727  0.4709
 3648TIP3   OH232358   3.604   3.356  14.271  0.2383 -0.4636 -0.0253
 3648TIP3    H132359   3.690   3.356  14.314  0.4129 -0.9912 -0.3568
 3648TIP3    H232360   3.612   3.420  14.200  1.1193 -2.0612 -1.4737
 3649TIP3   OH232361   5.124   3.912  10.385  0.5190  0.5691 -0.4380
 3649TIP3    H132362   5.087   3.925  10.472  2.5483  1.5875  0.3225
 3649TIP3    H232363   5.212   3.950  10.390  0.6168  0.8534 -2.9876
 3650TIP3   OH232364   6.772   4.600   1.167  0.1447 -0.3664 -0.0659
 3650TIP3    H132365   6.860   4.571   1.192  0.9476  3.8587  3.2224
 3650TIP3    H232366   6.715   4.564   1.235 -0.2254 -0.8507 -0.6282
 3651TIP3   OH232367   3.949   4.951   1.427  0.0392 -0.6281 -0.2344
 3651TIP3    H132368   3.854   4.965   1.433  0.0809 -0.4766  0.1047
 3651TIP3    H232369   3.966   4.942   1.333  0.1258  2.6226 -0.6620
 3652TIP3   OH232370   2.279   3.702  12.308 -0.5647 -0.3534  0.7542
 3652TIP3    H132371   2.234   3.703  12.224 -1.6336 -0.2674  1.3064
 3652TIP3    H232372   2.371   3.691  12.286 -0.4881  2.2011 -0.5543
 3653TIP3   OH232373   3.252   3.929   1.517 -0.0944  0.1847 -1.1224
 3653TIP3    H132374   3.186   3.862   1.535  0.3235 -0.0839 -0.5863
 3653TIP3    H232375   3.331   3.880   1.494  0.2298  0.4858 -0.6732
 3654TIP3   OH232376   3.426   1.790  12.386  0.0238 -0.0930  0.7501
 3654TIP3    H132377   3.402   1.735  12.461 -0.8175 -0.0572  0.5152
 3654TIP3    H232378   3.379   1.751  12.313  1.0091 -0.2548  0.1885
 3655TIP3   OH232379   1.443   0.549  11.717 -0.2443 -0.6275 -0.7292
 3655TIP3    H132380   1.502   0.556  11.793 -1.1609 -0.1419 -0.0400
 3655TIP3    H232381   1.366   0.599  11.742 -0.4774 -0.2618 -2.0942
 3656TIP3   OH232382   1.536   1.378   1.845  0.3637 -0.4051  0.9403
 3656TIP3    H132383   1.518   1.287   1.869 -1.1028 -0.3890  0.0074
 3656TIP3    H232384   1.571   1.418   1.925 -0.7327 -1.3159  1.9102
 3657TIP3   OH232385   5.272   5.396  14.184  0.1984 -0.3879 -0.0563
 3657TIP3    H132386   5.338   5.404  14.253 -1.6646 -0.8593  1.8999
 3657TIP3    H232387   5.269   5.483  14.144  1.1982 -0.0534  0.5618
 3658TIP3   OH232388   1.565   2.738  11.149  0.4401  0.4666  0.0265
 3658TIP3    H132389   1.652   2.775  11.131  1.2755 -0.7579  1.2759
 3658TIP3    H232390   1.513   2.813  11.176  1.2358  1.1765 -0.3593
 3659TIP3   OH232391   6.652   1.135  12.880 -0.0972  0.4690  0.1579
 3659TIP3    H132392   6.594   1.186  12.823  1.4715  0.4017 -1.6013
 3659TIP3    H232393   6.736   1.181  12.876  0.5889 -0.6766  0.8242
 3660TIP3   OH232394   5.273   6.896  10.617  0.7439  0.1819 -0.3767
 3660TIP3    H132395   5.336   6.922  10.684  1.1833 -1.5292 -0.0920
 3660TIP3    H232396   5.293   6.952  10.542  0.4737  1.8865  0.7766
 3661TIP3   OH232397   3.347   2.036  12.288 -0.3704 -0.9298 -0.2103
 3661TIP3    H132398   3.364   1.956  12.338  0.3176 -1.0657 -0.6502
 3661TIP3    H232399   3.377   2.107  12.346  0.4465 -1.0879 -0.4197
 3662TIP3   OH232400   4.964   2.795  12.867 -0.2146 -0.5498  0.6078
 3662TIP3    H132401   4.871   2.777  12.877 -0.6071  1.6392  1.4079
 3662TIP3    H232402   4.968   2.879  12.822  1.3467  0.0678  1.7984
 3663TIP3   OH232403   2.202   6.373   2.105  0.1803  0.6562  0.3525
 3663TIP3    H132404   2.146   6.324   2.044 -0.5731  1.6505  0.2267
 3663TIP3    H232405   2.214   6.458   2.063  2.6618  0.1594 -0.1154
 3664TIP3   OH232406   4.946   5.376   4.548 -0.0061  1.0146 -0.3798
 3664TIP3    H132407   5.034   5.353   4.518 -0.4370  0.6735 -1.4271
 3664TIP3    H232408   4.959   5.451   4.605  1.2428 -0.6351  1.6557
 3665TIP3   OH232409   5.499   3.006  11.337 -0.0419 -0.0296  0.5622
 3665TIP3    H132410   5.424   3.065  11.324 -0.9813 -1.3856 -0.4518
 3665TIP3    H232411   5.511   3.003  11.432 -2.0991 -0.7323  0.8528
 3666TIP3   OH232412   5.985   5.366  10.287  1.0846 -0.9323 -0.2550
 3666TIP3    H132413   5.929   5.444  10.292 -0.2859 -1.8996  0.0318
 3666TIP3    H232414   5.975   5.335  10.197 -1.3154 -2.8058  0.5522
 3667TIP3   OH232415   5.258   2.916  12.142 -0.0095 -1.1585  0.5408
 3667TIP3    H132416   5.337   2.892  12.190  1.1343  0.1959 -0.5458
 3667TIP3    H232417   5.196   2.943  12.209  1.0964 -0.5362  1.3599
 3668TIP3   OH232418   5.703   0.671   1.936 -0.4528  0.0535 -0.1338
 3668TIP3    H132419   5.776   0.687   1.996 -0.4890  0.3086 -0.1556
 3668TIP3    H232420   5.742   0.677   1.848 -0.2840 -0.8913 -0.1310
 3669TIP3   OH232421   6.066   0.749  13.446  0.2660  0.0209 -0.4237
 3669TIP3    H132422   6.038   0.664  13.483  0.3750 -0.7754 -2.0905
 3669TIP3    H232423   5.987   0.784  13.405  0.0975  0.9991  0.6758
 3670TIP3   OH232424   7.021   4.834   0.274 -0.2780 -0.0617  0.0982
 3670TIP3    H132425   6.998   4.745   0.247  0.9594 -0.3876  0.0127
 3670TIP3    H232426   6.943   4.886   0.258 -0.8883 -1.0543 -0.2378
 3671TIP3   OH232427   4.963   0.521  13.295 -0.2351  0.4755  0.4217
 3671TIP3    H132428   4.968   0.426  13.300 -0.2302  0.4225 -0.4712
 3671TIP3    H232429   5.054   0.550  13.289 -0.2066  0.5784  1.2142
 3672TIP3   OH232430   7.137   6.667  12.620  0.2753 -0.1052  0.4984
 3672TIP3    H132431   7.170   6.654  12.531 -1.0014  1.2396 -0.2065
 3672TIP3    H232432   7.103   6.582  12.645 -1.9898  0.1166 -1.4598
 3673TIP3   OH232433   0.361   1.607   5.597  0.2867 -0.1080  0.0866
 3673TIP3    H132434   0.418   1.539   5.633  1.2140  0.6545  0.1004
 3673TIP3    H232435   0.272   1.578   5.620  0.6567 -1.3126  0.0683
 3674TIP3   OH232436   0.280   0.799  11.965  0.5310 -0.1886 -0.7930
 3674TIP3    H132437   0.275   0.723  12.024  2.0839  0.6792  0.5478
 3674TIP3    H232438   0.372   0.802  11.938  0.8043  1.8873  0.1565
 3675TIP3   OH232439   0.434   6.103  14.402  0.4839 -0.2005  0.1948
 3675TIP3    H132440   0.497   6.042  14.361  0.2742 -1.1237  1.1977
 3675TIP3    H232441   0.367   6.046  14.439 -1.1149  0.7708 -1.0522
 3676TIP3   OH232442   3.154   4.743   1.714  0.1325 -0.4787  0.5657
 3676TIP3    H132443   3.113   4.658   1.732  0.8018 -0.4890  2.2086
 3676TIP3    H232444   3.195   4.732   1.628 -0.4781 -1.5469  0.3981
 3677TIP3   OH232445   6.613   2.707  11.994 -0.3410  0.4511 -0.0913
 3677TIP3    H132446   6.705   2.683  11.982  0.2800  1.7707  1.4673
 3677TIP3    H232447   6.614   2.803  11.994 -1.7926  0.4814 -0.4694
 3678TIP3   OH232448   3.253   2.998   9.790 -0.6768 -0.3126  0.0476
 3678TIP3    H132449   3.318   3.012   9.722 -0.3646 -1.4178  0.0897
 3678TIP3    H232450   3.170   3.023   9.750 -0.4547 -0.6628 -0.6484
 3679TIP3   OH232451   2.482   4.945   3.064  0.6121 -0.1695  1.0082
 3679TIP3    H132452   2.423   4.916   2.994  0.4703  1.1789  0.5356
 3679TIP3    H232453   2.491   4.869   3.121  0.5116 -1.2231 -0.3282
 3680TIP3   OH232454   6.945   6.914  14.003  0.3134 -0.5394  0.0629
 3680TIP3    H132455   7.007   6.856  13.959 -0.3483 -1.3295  0.1508
 3680TIP3    H232456   6.866   6.861  14.015  0.3303 -0.2250  1.8136
 3681TIP3   OH232457   3.516   3.405  14.954 -0.2987  0.5331  0.9984
 3681TIP3    H132458   3.444   3.349  14.984 -1.6832  1.9089  0.4385
 3681TIP3    H232459   3.474   3.466  14.893  1.9361 -0.5844 -1.8598
 3682TIP3   OH232460   6.063   6.158  14.192  0.1868  0.3281  0.1557
 3682TIP3    H132461   6.008   6.142  14.115 -1.1182 -1.0723  1.3226
 3682TIP3    H232462   6.127   6.087  14.190  0.2660  0.3966  0.2620
 3683TIP3   OH232463   4.293   6.625  11.248 -0.4183  0.4948  0.2771
 3683TIP3    H132464   4.342   6.658  11.172 -1.1872  0.9578 -0.0244
 3683TIP3    H232465   4.297   6.530  11.238  1.4479  0.4587  0.9224
 3684TIP3   OH232466   4.444   3.913  11.898  0.1313  0.2207 -0.3194
 3684TIP3    H132467   4.421   3.852  11.828 -0.5814  0.6829 -0.5057
 3684TIP3    H232468   4.430   3.864  11.979 -2.6471  0.7641 -0.3626
 3685TIP3   OH232469   6.509   4.904  12.679 -0.2656 -0.6985 -0.2793
 3685TIP3    H132470   6.545   4.990  12.660 -0.1347 -0.7703 -0.3635
 3685TIP3    H232471   6.464   4.878  12.598  0.0697 -0.8941 -0.4070
 3686TIP3   OH232472   6.072   1.375  15.110 -0.5625 -0.6142  0.5763
 3686TIP3    H132473   6.034   1.376  15.022 -1.2906  1.7579  0.8221
 3686TIP3    H232474   6.051   1.289  15.144 -1.7187 -1.0116 -0.9916
 3687TIP3   OH232475   7.068   5.287  13.755 -0.4416 -0.3027  0.1426
 3687TIP3    H132476   7.083   5.362  13.812  0.1844  0.0108 -0.4153
 3687TIP3    H232477   6.999   5.237  13.798  1.2539 -1.0604  2.1478
 3688TIP3   OH232478   1.858   6.129  14.297 -0.2617  0.1877 -0.4497
 3688TIP3    H132479   1.784   6.171  14.253 -0.3671  0.9607  0.4553
 3688TIP3    H232480   1.935   6.170  14.257 -0.3599  1.0151  0.1973
 3689TIP3   OH232481   4.015   5.642  10.821  0.5297 -0.2808  0.1997
 3689TIP3    H132482   4.027   5.719  10.877 -0.5972  0.6463 -0.7588
 3689TIP3    H232483   3.920   5.636  10.809  0.7239  1.4370 -3.9741
 3690TIP3   OH232484   6.389   2.249  13.718 -0.2026  0.1924  0.0416
 3690TIP3    H132485   6.394   2.156  13.743  0.4320  0.7165  2.0319
 3690TIP3    H232486   6.320   2.285  13.774  0.3841  1.1749  0.1440
 3691TIP3   OH232487   1.332   4.115  14.520 -0.2622 -0.3325 -0.3806
 3691TIP3    H132488   1.379   4.072  14.449  1.0178  0.3117  0.0523
 3691TIP3    H232489   1.306   4.199  14.484 -0.1110 -0.2347 -0.2590
 3692TIP3   OH232490   0.776   6.450  14.067  0.1225  0.2891  0.1526
 3692TIP3    H132491   0.703   6.462  14.129 -1.2009 -2.0986 -0.8226
 3692TIP3    H232492   0.844   6.407  14.119 -0.8862 -1.4718  0.0992
 3693TIP3   OH232493   0.109   1.103   0.758 -0.0182  0.3332 -0.3562
 3693TIP3    H132494   0.201   1.121   0.775 -0.0039  0.8817 -0.9810
 3693TIP3    H232495   0.088   1.154   0.680 -1.1354  1.0591  0.3948
 3694TIP3   OH232496   2.402   6.872  10.941  0.4353 -0.1047 -0.6656
 3694TIP3    H132497   2.325   6.918  10.974  1.0036  0.6347 -0.3256
 3694TIP3    H232498   2.383   6.779  10.956 -0.5966  0.0260 -1.0657
 3695TIP3   OH232499   3.017   6.166  14.870  0.5211  0.1416 -0.5206
 3695TIP3    H132500   3.078   6.092  14.870  1.1158  0.5889  1.0089
 3695TIP3    H232501   3.048   6.223  14.941 -1.5940  0.4542  0.2389
 3696TIP3   OH232502   1.425   2.281  15.327  0.1945 -0.3977 -1.1987
 3696TIP3    H132503   1.350   2.316  15.279 -0.8669 -1.2940 -0.2429
 3696TIP3    H232504   1.420   2.322  15.413  1.0466 -0.1538 -1.2584
 3697TIP3   OH232505   2.305   2.477   9.627  0.1708 -0.4207  0.5792
 3697TIP3    H132506   2.400   2.485   9.614  0.0113 -0.2795 -0.6090
 3697TIP3    H232507   2.281   2.552   9.681  0.3777  0.9984 -1.1907
 3698TIP3   OH232508   5.894   7.121  11.490  0.3412  0.1833  0.0868
 3698TIP3    H132509   5.811   7.074  11.481  0.5514  0.0682 -1.7657
 3698TIP3    H232510   5.950   7.083  11.422  2.7769 -1.3773  2.7753
 3699TIP3   OH232511   0.501   4.785   1.945 -0.3180 -0.0793  0.5682
 3699TIP3    H132512   0.596   4.783   1.951 -0.1927 -0.3602 -1.0260
 3699TIP3    H232513   0.476   4.869   1.982  0.5626  0.0839  0.8175
 3700TIP3   OH232514   5.750   5.193  13.492 -0.1520  0.1069  0.5317
 3700TIP3    H132515   5.831   5.240  13.473 -0.2028  0.3378  0.8829
 3700TIP3    H232516   5.725   5.154  13.408  0.6999 -0.5643  0.5795
 3701TIP3   OH232517   5.106   4.633  13.990 -0.5326  0.0038  0.6362
 3701TIP3    H132518   5.153   4.701  13.943 -1.6447  0.6048  0.3519
 3701TIP3    H232519   5.053   4.589  13.923 -0.1825 -0.8475  0.8979
 3702TIP3   OH232520   0.587   3.183  11.589  0.3529  0.0503  0.1943
 3702TIP3    H132521   0.510   3.127  11.593  0.2947  0.1887  1.4765
 3702TIP3    H232522   0.642   3.145  11.520 -0.2286 -0.8641  0.2297
 3703TIP3   OH232523   0.566   5.433  12.796 -0.4065 -0.2963  0.4674
 3703TIP3    H132524   0.500   5.463  12.733 -0.1782  1.2937  0.9465
 3703TIP3    H232525   0.581   5.341  12.773 -2.0986 -0.4319 -0.2376
 3704TIP3   OH232526   4.228   3.618  10.199  0.2616  0.1211  1.4198
 3704TIP3    H132527   4.275   3.547  10.242  1.0690  0.5028  1.1758
 3704TIP3    H232528   4.273   3.698  10.228  0.0472  0.4609  0.8297
 3705TIP3   OH232529   4.725   3.052  14.961  0.1281  0.5810 -0.3398
 3705TIP3    H132530   4.713   3.132  14.910 -0.1290  0.1331 -0.9928
 3705TIP3    H232531   4.636   3.022  14.980  0.1979  1.1692  1.0814
 3706TIP3   OH232532   7.059   1.146   0.281  0.1294  0.0188  0.6584
 3706TIP3    H132533   7.138   1.138   0.335  0.7957  0.5477 -0.2208
 3706TIP3    H232534   7.075   1.090   0.206 -0.8962 -0.8990  1.0849
 3707TIP3   OH232535   6.801   6.170  12.816 -0.0911  0.0119  0.6724
 3707TIP3    H132536   6.856   6.092  12.810  0.5969  0.5818 -1.3451
 3707TIP3    H232537   6.810   6.200  12.906  0.8591 -1.3604  1.0566
 3708TIP3   OH232538   4.256   3.084  12.291  0.1528 -0.3495 -0.0029
 3708TIP3    H132539   4.198   3.100  12.217  0.6963  0.6891 -0.2253
 3708TIP3    H232540   4.197   3.075  12.366 -0.3335  0.0121 -0.3384
 3709TIP3   OH232541   2.223   2.874   1.441 -0.1912  1.1849  0.3307
 3709TIP3    H132542   2.293   2.811   1.459 -0.6889  0.3164 -0.6372
 3709TIP3    H232543   2.162   2.826   1.384 -1.1405  2.1955  0.4589
 3710TIP3   OH232544   1.558   6.018  12.579 -0.7219  0.0003  0.2658
 3710TIP3    H132545   1.564   5.932  12.537 -0.6363  0.4778 -0.7153
 3710TIP3    H232546   1.470   6.049  12.559 -0.1692  0.8864 -0.8738
 3711TIP3   OH232547   6.906   2.313  12.963 -1.1213 -0.7631 -0.1024
 3711TIP3    H132548   6.977   2.318  13.027 -0.0434 -0.8208 -1.2514
 3711TIP3    H232549   6.946   2.271  12.887 -1.8223  1.0102 -1.5225
 3712TIP3   OH232550   4.450   2.867   0.278 -1.3090  0.0557  0.5047
 3712TIP3    H132551   4.501   2.928   0.331  1.4529 -0.5968 -1.2029
 3712TIP3    H232552   4.365   2.911   0.266 -1.1052  1.3811  3.1560
 3713TIP3   OH232553   3.961   6.451  14.295  0.4291 -0.3596  0.3578
 3713TIP3    H132554   4.052   6.424  14.312  0.6382  0.3625  0.4108
 3713TIP3    H232555   3.951   6.534  14.342  0.0179  0.0142 -0.3673
 3714TIP3   OH232556   5.859   5.360  11.022 -0.4757 -0.2650  0.5384
 3714TIP3    H132557   5.876   5.417  11.097 -0.8100 -0.5705  0.8518
 3714TIP3    H232558   5.782   5.310  11.048 -0.7926 -0.1358 -0.1467
 3715TIP3   OH232559   0.992   1.475  11.946 -0.1591  0.3243  0.3329
 3715TIP3    H132560   1.009   1.513  11.860 -2.4272  2.6705  0.8098
 3715TIP3    H232561   0.953   1.389  11.927  3.5080 -1.2869 -0.7849
 3716TIP3   OH232562   2.532   0.863  13.297  0.1015  0.0457 -0.0564
 3716TIP3    H132563   2.445   0.848  13.332 -1.5675 -0.1966 -3.8393
 3716TIP3    H232564   2.583   0.787  13.325 -0.9736 -0.0429  1.8304
 3717TIP3   OH232565   7.008   0.531  15.101  0.1146 -0.1484 -0.0755
 3717TIP3    H132566   7.016   0.530  15.196 -1.8525 -0.8002  0.1170
 3717TIP3    H232567   6.934   0.474  15.082  1.5091 -1.4038 -2.1424
 3718TIP3   OH232568   1.395   5.638   2.710  0.4422 -0.2195  0.5009
 3718TIP3    H132569   1.366   5.557   2.752  0.9364 -0.5402  0.2396
 3718TIP3    H232570   1.468   5.610   2.654  0.6328  0.4106  0.4349
 3719TIP3   OH232571   5.282   0.485  10.060  0.4417 -0.0968  0.1939
 3719TIP3    H132572   5.205   0.526  10.099 -0.4405 -1.3160 -0.2193
 3719TIP3    H232573   5.344   0.557  10.049  0.2653  0.5439  2.6499
 3720TIP3   OH232574   5.767   2.667  14.611  0.5641 -0.5803 -0.3883
 3720TIP3    H132575   5.767   2.655  14.706  1.2700 -1.2212 -0.4586
 3720TIP3    H232576   5.675   2.684  14.589  0.6253  1.2169  0.5985
 3721TIP3   OH232577   1.582   6.976  13.502  0.2223  0.0434 -0.1881
 3721TIP3    H132578   1.659   7.025  13.471  0.5995  0.3269  1.1488
 3721TIP3    H232579   1.512   7.002  13.442  0.1771  2.9555  0.9871
 3722TIP3   OH232580   2.247   6.216   9.603  0.4014  0.1953  0.1998
 3722TIP3    H132581   2.257   6.121   9.614  1.2049  0.1738 -0.5831
 3722TIP3    H232582   2.318   6.240   9.543 -0.6881  1.0572 -0.7777
 3723TIP3   OH232583   3.181   1.458  14.226 -0.0927  0.0020 -0.0500
 3723TIP3    H132584   3.178   1.445  14.321  1.4501 -0.8764 -0.0937
 3723TIP3    H232585   3.273   1.473  14.207 -0.3884  0.1665 -1.4170
 3724TIP3   OH232586   2.232   6.581   1.005  0.3724  0.0934  0.1397
 3724TIP3    H132587   2.179   6.559   1.081  2.4444  0.5272  1.7974
 3724TIP3    H232588   2.272   6.498   0.979  0.2035  0.0701 -0.0497
 3725TIP3   OH232589   1.406   5.205   0.071  0.0748  0.6604  0.2591
 3725TIP3    H132590   1.418   5.225  -0.022 -0.5012  3.2006  0.6658
 3725TIP3    H232591   1.352   5.126   0.071 -0.7703  1.1748 -1.5925
 3726TIP3   OH232592   5.390   2.983  14.988 -0.8248 -0.0959 -0.2780
 3726TIP3    H132593   5.435   2.899  14.988  0.5347  0.5666 -1.8396
 3726TIP3    H232594   5.428   3.030  14.914  0.0013  2.7037  1.7467
 3727TIP3   OH232595   6.378   5.525  13.470 -0.1961 -0.8133 -0.4389
 3727TIP3    H132596   6.430   5.470  13.528  2.5612  2.1903  0.1913
 3727TIP3    H232597   6.321   5.576  13.528  0.5144  0.1624 -0.5740
 3728TIP3   OH232598   3.785   5.844  12.843 -0.4825  0.0142 -0.4864
 3728TIP3    H132599   3.774   5.921  12.899  0.2364  0.2037 -0.5949
 3728TIP3    H232600   3.879   5.832  12.838 -0.5986 -0.9993 -0.3135
 3729TIP3   OH232601   3.529   2.424  12.087 -0.6730  0.3233 -0.7353
 3729TIP3    H132602   3.475   2.425  12.166 -2.2013 -2.3450 -1.6492
 3729TIP3    H232603   3.618   2.410  12.119 -1.1863 -0.1100  0.5511
 3730TIP3   OH232604   7.163   1.997  11.109 -0.0432 -0.2897 -0.2263
 3730TIP3    H132605   7.070   1.987  11.087  0.2831 -0.4427 -1.6219
 3730TIP3    H232606   7.208   1.993  11.025  1.0752  1.7556  0.2096
 3731TIP3   OH232607   2.545   0.231   1.467 -0.2071 -0.2902 -0.4439
 3731TIP3    H132608   2.575   0.321   1.450  0.7370 -0.2398  1.3233
 3731TIP3    H232609   2.617   0.190   1.514 -0.3694 -2.2092 -1.7762
 3732TIP3   OH232610   4.422   7.132   9.724 -0.1907  0.1384 -0.0854
 3732TIP3    H132611   4.416   7.199   9.656  1.4526  0.1354 -0.2650
 3732TIP3    H232612   4.509   7.094   9.713  1.1742  1.7677  3.5119
 3733TIP3   OH232613   1.564   3.157  10.548  0.3651 -0.2936 -0.5671
 3733TIP3    H132614   1.470   3.158  10.532  0.1399 -1.2879  0.5851
 3733TIP3    H232615   1.586   3.248  10.565 -0.5838 -0.1916  0.1779
 3734TIP3   OH232616   0.358   6.661  10.474 -0.1294  0.0444  0.1941
 3734TIP3    H132617   0.448   6.629  10.474 -0.6641 -1.5600  0.9951
 3734TIP3    H232618   0.305   6.585  10.497 -1.6275  1.1512  0.5790
 3735TIP3   OH232619   3.554   3.123  14.899  0.6348  0.5381 -0.1457
 3735TIP3    H132620   3.532   3.054  14.836 -0.1057  1.0506 -0.4673
 3735TIP3    H232621   3.480   3.184  14.894  1.0807  1.1376  0.4383
 3736TIP3   OH232622   0.574   5.890  12.775 -0.1210  0.7877 -0.1276
 3736TIP3    H132623   0.599   5.876  12.867  0.1757  0.2235 -0.2923
 3736TIP3    H232624   0.619   5.820  12.727 -1.9153 -0.1834 -0.4576
 3737TIP3   OH232625   3.812   2.573  13.543 -0.1845 -0.4579 -0.1933
 3737TIP3    H132626   3.900   2.563  13.580 -0.5760  0.8876  1.1829
 3737TIP3    H232627   3.784   2.660  13.570 -0.7136  0.4578 -3.3161
 3738TIP3   OH232628   3.477   4.660  13.042 -0.2162 -0.5282  0.8800
 3738TIP3    H132629   3.503   4.740  12.998 -1.4712  1.6478  3.7518
 3738TIP3    H232630   3.559   4.614  13.059  0.9087  1.6195  1.6575
 3739TIP3   OH232631   3.948   6.381   3.655 -0.3684  0.3665 -0.1070
 3739TIP3    H132632   3.943   6.307   3.717  1.0811  0.1706 -0.1998
 3739TIP3    H232633   3.900   6.452   3.699 -1.2372 -0.4213  0.2604
 3740TIP3   OH232634   6.182   5.199  12.527  0.0798  0.4453 -0.2394
 3740TIP3    H132635   6.133   5.138  12.472 -0.0914 -0.3346  0.7553
 3740TIP3    H232636   6.256   5.226  12.473  0.8925 -1.6528 -0.2537
 3741TIP3   OH232637   3.327   6.361  13.667 -0.3813 -0.4224 -0.1099
 3741TIP3    H132638   3.344   6.325  13.581  1.0330 -0.3819  0.1400
 3741TIP3    H232639   3.320   6.456  13.652  1.8983 -0.1709  0.0626
 3742TIP3   OH232640   4.295   3.961   4.215  0.3725 -0.1092 -0.3534
 3742TIP3    H132641   4.327   4.050   4.206 -0.9158  0.2026 -2.8942
 3742TIP3    H232642   4.297   3.943   4.309  1.7085  2.1552  0.1137
 3743TIP3   OH232643   2.550   6.529   0.706  0.4815  0.0314  0.4715
 3743TIP3    H132644   2.475   6.586   0.726 -0.2410 -0.8659  0.3866
 3743TIP3    H232645   2.622   6.565   0.758  0.1221  1.1959  0.1952
 3744TIP3   OH232646   0.755   0.167  11.781  0.2725 -0.5348 -0.7840
 3744TIP3    H132647   0.849   0.183  11.795  0.2653 -1.2033  0.1008
 3744TIP3    H232648   0.741   0.077  11.811 -0.5406 -0.6651 -1.5039
 3745TIP3   OH232649   7.082   4.507  14.871 -0.2693  0.2043 -0.0264
 3745TIP3    H132650   7.173   4.514  14.900  0.1893 -0.8502 -1.1210
 3745TIP3    H232651   7.069   4.582  14.814  0.0575  0.1309 -0.2015
 3746TIP3   OH232652   1.517   2.622  14.694  0.1869 -0.1367 -0.5072
 3746TIP3    H132653   1.452   2.560  14.727 -0.0496  0.0573 -0.6107
 3746TIP3    H232654   1.487   2.643  14.606  0.2828  0.1050 -0.4810
 3747TIP3   OH232655   1.145   1.643  14.694  0.3479  0.3597 -0.6201
 3747TIP3    H132656   1.078   1.711  14.696 -0.9905 -0.9091  1.0310
 3747TIP3    H232657   1.201   1.663  14.769  1.5677  1.1210 -1.6963
 3748TIP3   OH232658   3.729   6.477   0.193 -0.6168 -0.1584  0.2336
 3748TIP3    H132659   3.824   6.462   0.188 -0.7000 -0.2530 -2.5599
 3748TIP3    H232660   3.720   6.570   0.212  0.0819  0.1150 -0.6880
 3749TIP3   OH232661   4.788   5.145   2.126  0.2863  0.0102 -0.0118
 3749TIP3    H132662   4.856   5.126   2.190 -0.2281 -0.6031  0.3574
 3749TIP3    H232663   4.812   5.231   2.091  1.1695 -0.1339  0.2147
 3750TIP3   OH232664   1.556   0.363   0.871  0.2331 -0.1829  0.3455
 3750TIP3    H132665   1.492   0.424   0.833  0.4808 -0.7012 -0.9563
 3750TIP3    H232666   1.520   0.276   0.853  0.7885 -0.4535  0.5378
 3751TIP3   OH232667   2.583   6.755  10.010 -0.4306  0.3006  0.4433
 3751TIP3    H132668   2.581   6.799   9.925 -0.2037 -0.8186 -0.1661
 3751TIP3    H232669   2.612   6.666   9.990 -2.8961 -0.8039  1.3227
 3752TIP3   OH232670   0.159   5.636   0.422 -0.0164  0.1793  0.3047
 3752TIP3    H132671   0.127   5.611   0.335 -0.6320  0.7855  0.3491
 3752TIP3    H232672   0.246   5.596   0.428  1.1602  2.2505 -1.6087
 3753TIP3   OH232673   0.518   1.278   9.349  0.1633  0.1235  0.3161
 3753TIP3    H132674   0.483   1.193   9.375 -1.5416  0.0557 -1.8694
 3753TIP3    H232675   0.595   1.257   9.296 -0.0834 -0.0669  0.0278
 3754TIP3   OH232676   0.352   6.694  11.294  0.7479 -0.1695  0.1112
 3754TIP3    H132677   0.313   6.777  11.267  0.5167 -0.7068 -1.2765
 3754TIP3    H232678   0.431   6.686  11.241  1.4120 -0.3017  1.0848
 3755TIP3   OH232679   2.344   6.971   0.751 -0.1838 -0.4060  0.7303
 3755TIP3    H132680   2.279   6.901   0.756 -0.4642 -0.2450 -0.4769
 3755TIP3    H232681   2.428   6.925   0.749 -0.3933 -0.7794 -0.8932
 3756TIP3   OH232682   2.553   5.088   4.755 -0.1086  0.5028 -0.2843
 3756TIP3    H132683   2.531   5.044   4.838 -1.0291 -1.5265 -1.5396
 3756TIP3    H232684   2.620   5.151   4.780  0.0802 -0.4439  1.9280
 3757TIP3   OH232685   4.127   3.372   4.053 -0.2284 -0.1288 -0.1813
 3757TIP3    H132686   4.176   3.324   4.119  2.5204  1.5792 -0.8379
 3757TIP3    H232687   4.037   3.374   4.087  0.5256 -1.5822  2.1385
 3758TIP3   OH232688   6.515   5.485  10.230 -0.2433 -0.5576 -0.1263
 3758TIP3    H132689   6.606   5.458  10.218 -0.1483 -0.3221  0.0545
 3758TIP3    H232690   6.518   5.581  10.232 -0.3176 -0.5696  1.2287
 3759TIP3   OH232691   2.544   5.534  15.471  0.4447 -0.2022  0.7055
 3759TIP3    H132692   2.538   5.463  15.535 -1.2156  0.3107  1.1502
 3759TIP3    H232693   2.454   5.559  15.454  0.9328  0.6677 -0.7470
 3760TIP3   OH232694   1.340   0.273  14.365  0.2565 -0.0203 -0.1032
 3760TIP3    H132695   1.425   0.274  14.321 -0.3899 -1.1323 -1.4560
 3760TIP3    H232696   1.283   0.325  14.308 -0.0149  0.6161  0.7295
 3761TIP3   OH232697   1.068   6.038   1.125  0.0273 -0.4651  0.6874
 3761TIP3    H132698   1.156   6.029   1.089  0.0458  0.0248  0.5932
 3761TIP3    H232699   1.040   6.125   1.097 -0.4723 -0.6037  0.7506
 3762TIP3   OH232700   2.014   5.164  13.482 -0.1310 -0.4820  0.2638
 3762TIP3    H132701   2.049   5.186  13.569 -1.5159  1.6375  0.3321
 3762TIP3    H232702   2.084   5.189  13.422 -0.3085  0.8243  0.5873
 3763TIP3   OH232703   5.035   1.199  11.216  0.1266 -0.9361 -0.7059
 3763TIP3    H132704   5.113   1.203  11.270 -0.9158 -2.4693  1.0376
 3763TIP3    H232705   5.067   1.198  11.126  1.8747  3.9024 -0.3996
 3764TIP3   OH232706   6.341   1.427   1.420  0.3021 -0.2047 -0.3086
 3764TIP3    H132707   6.253   1.460   1.404  1.3126  2.3436 -1.1506
 3764TIP3    H232708   6.383   1.427   1.334  2.1033  1.9452  0.4620
 3765TIP3   OH232709   2.088   6.864  12.420 -0.3188  0.2166 -0.0553
 3765TIP3    H132710   2.062   6.860  12.512  1.9133  1.9520  0.7560
 3765TIP3    H232711   2.177   6.829  12.419 -0.7874 -1.0290 -1.8241
 3766TIP3   OH232712   1.550   4.043  13.557 -0.5534 -0.2517  0.2173
 3766TIP3    H132713   1.478   4.004  13.507 -0.7563  0.1389  0.2082
 3766TIP3    H232714   1.628   4.022  13.505 -0.8634  1.0949 -0.8586
 3767TIP3   OH232715   3.775   5.002  12.699  0.0308  0.3321 -0.8835
 3767TIP3    H132716   3.766   4.907  12.693 -0.5820  0.4366 -1.7179
 3767TIP3    H232717   3.721   5.025  12.775 -0.7672  0.1325 -1.3771
 3768TIP3   OH232718   5.482   4.181   1.359  0.3830  0.0930  0.1609
 3768TIP3    H132719   5.531   4.098   1.360  0.1026 -0.1109 -1.1242
 3768TIP3    H232720   5.429   4.176   1.280  0.5615  1.6247 -0.0828
 3769TIP3   OH232721   6.143   3.535  10.648  0.0982  0.1295 -0.0011
 3769TIP3    H132722   6.211   3.595  10.616  0.9728 -1.0961 -0.4880
 3769TIP3    H232723   6.111   3.577  10.728  1.9187  0.4120  0.6214
 3770TIP3   OH232724   3.577   1.680  14.708 -0.0943  0.0072 -0.5726
 3770TIP3    H132725   3.549   1.637  14.789  1.8375  0.1451  0.2219
 3770TIP3    H232726   3.559   1.616  14.639 -0.1377 -0.8268  0.1943
 3771TIP3   OH232727   4.754   2.619  13.100 -0.2105 -0.0527 -0.2669
 3771TIP3    H132728   4.715   2.671  13.030  1.4897 -0.3474 -1.5032
 3771TIP3    H232729   4.840   2.594  13.066  1.6545  1.6565  2.7485
 3772TIP3   OH232730   4.498   4.514  14.239  0.0664 -0.6403  0.5757
 3772TIP3    H132731   4.532   4.429  14.210  1.1277  0.5449 -1.9588
 3772TIP3    H232732   4.405   4.511  14.214 -0.1654 -1.3934  1.4472
 3773TIP3   OH232733   6.494   0.389  14.290  0.2845  0.1417 -0.1346
 3773TIP3    H132734   6.588   0.403  14.278  0.1400  1.6184  0.2648
 3773TIP3    H232735   6.483   0.375  14.384  0.2153 -1.0986 -0.3163
 3774TIP3   OH232736   3.901   1.549  13.976 -0.5131 -0.2722  0.0618
 3774TIP3    H132737   3.971   1.577  14.035 -3.0291  1.3478  2.5184
 3774TIP3    H232738   3.929   1.463  13.945  2.5210  0.2961  0.9026
 3775TIP3   OH232739   5.384   2.516  13.559 -0.7605 -0.1937 -0.0923
 3775TIP3    H132740   5.314   2.573  13.592 -0.3784 -0.6197  1.5170
 3775TIP3    H232741   5.440   2.575  13.507 -0.4434  0.9008  1.4348
 3776TIP3   OH232742   1.998   5.337   9.758 -0.0824 -0.4057  0.1783
 3776TIP3    H132743   2.083   5.368   9.725 -0.5326 -0.4459 -1.0808
 3776TIP3    H232744   1.938   5.411   9.744 -0.2766 -0.3894  1.0266
 3777TIP3   OH232745   3.018   1.988  12.811 -0.4045  0.5642  0.0466
 3777TIP3    H132746   2.977   1.996  12.724 -0.1761  1.4106  0.0147
 3777TIP3    H232747   2.950   1.947  12.865 -0.4886 -0.1340 -0.5689
 3778TIP3   OH232748   4.639   3.684  11.860  0.0842  0.4119 -0.2793
 3778TIP3    H132749   4.720   3.715  11.900  0.4083  0.6137 -1.0784
 3778TIP3    H232750   4.571   3.707  11.923  0.6872 -0.1818  0.6158
 3779TIP3   OH232751   2.682   6.541  10.443 -0.0980 -0.0512 -0.2476
 3779TIP3    H132752   2.639   6.526  10.358 -3.1304 -1.7784  1.4199
 3779TIP3    H232753   2.765   6.494  10.435 -0.2998 -0.1904 -2.2506
 3780TIP3   OH232754   4.575   1.481  15.099  0.4594 -0.5298 -0.1935
 3780TIP3    H132755   4.514   1.459  15.029 -0.9874  1.0203  0.4890
 3780TIP3    H232756   4.606   1.569  15.077  1.2851 -0.7032  0.2523
 3781TIP3   OH232757   3.888   1.354  12.989  0.0078 -0.1882 -0.1952
 3781TIP3    H132758   3.887   1.357  13.085 -2.1986 -0.5955 -0.1631
 3781TIP3    H232759   3.868   1.444  12.963  0.3803 -0.1286 -0.2822
 3782TIP3   OH232760   2.680   5.579  10.389  0.5779  0.0343  0.3938
 3782TIP3    H132761   2.585   5.590  10.382  0.5427 -0.6195 -0.3190
 3782TIP3    H232762   2.694   5.485  10.372  1.3350  0.0952  0.6602
 3783TIP3   OH232763   5.326   3.154   9.775  0.0066 -0.8617 -0.1342
 3783TIP3    H132764   5.288   3.086   9.720 -0.1503 -0.1899 -0.8605
 3783TIP3    H232765   5.325   3.233   9.721  1.5489 -0.6021  0.1684
 3784TIP3   OH232766   5.153   3.596   9.835  0.1319  0.3165 -0.3975
 3784TIP3    H132767   5.200   3.601   9.751  1.0580 -1.5207 -0.0418
 3784TIP3    H232768   5.081   3.658   9.825  1.4800  1.7877 -1.7116
 3785TIP3   OH232769   2.930   5.419  13.704 -0.3291  0.1716  0.2289
 3785TIP3    H132770   2.877   5.432  13.782  1.5741  1.5344  1.3979
 3785TIP3    H232771   2.948   5.507  13.671  0.8102 -0.2537 -0.3799
 3786TIP3   OH232772   2.622   1.407   0.692 -0.7301 -0.1925 -0.3886
 3786TIP3    H132773   2.540   1.397   0.740 -0.8458  2.1654  0.0357
 3786TIP3    H232774   2.690   1.413   0.760 -0.5411  0.3509 -0.6154
 3787TIP3   OH232775   6.498   4.601  14.517 -0.0550 -0.3661 -1.0705
 3787TIP3    H132776   6.473   4.537  14.451 -0.5126 -0.9867 -0.3117
 3787TIP3    H232777   6.415   4.631  14.554  0.1985 -0.0649 -0.7352
 3788TIP3   OH232778   2.579   2.498  11.564  0.0207 -0.4841 -0.7263
 3788TIP3    H132779   2.488   2.497  11.594  0.0672  0.1743 -0.5418
 3788TIP3    H232780   2.591   2.585  11.527  0.8295 -0.2336  0.0749
 3789TIP3   OH232781   4.946   3.924  10.595 -0.0252 -0.0529  0.2207
 3789TIP3    H132782   4.917   4.002  10.546  1.1165 -0.1748 -0.6772
 3789TIP3    H232783   4.866   3.873  10.606 -0.4595  0.3675 -0.8192
 3790TIP3   OH232784   6.961   2.797  11.509  0.1788 -0.3840 -0.3376
 3790TIP3    H132785   6.923   2.811  11.422  1.5929 -0.1798 -0.9459
 3790TIP3    H232786   7.053   2.778  11.492  0.9911  1.7345  1.2142
 3791TIP3   OH232787   4.227   6.188  13.763 -0.3533 -0.0990 -0.1482
 3791TIP3    H132788   4.207   6.155  13.851  1.2086 -0.1053  0.2407
 3791TIP3    H232789   4.275   6.117  13.721  0.7594  0.6721 -0.2342
 3792TIP3   OH232790   0.414   0.912  12.665  0.3542 -0.0326  0.0866
 3792TIP3    H132791   0.407   0.840  12.603 -1.6158 -3.0189  3.3816
 3792TIP3    H232792   0.324   0.933  12.688  0.9061  3.0965 -0.1803
 3793TIP3   OH232793   1.400   4.461   0.102  0.4652 -0.7331 -0.2199
 3793TIP3    H132794   1.449   4.540   0.122  0.4300 -0.7114 -0.2201
 3793TIP3    H232795   1.464   4.390   0.114  0.8234 -0.6199 -1.3288
 3794TIP3   OH232796   2.759   3.870  14.392  0.2161  0.1297 -0.3232
 3794TIP3    H132797   2.734   3.836  14.478 -0.1377  0.4527 -0.2930
 3794TIP3    H232798   2.727   3.960  14.392  2.1531  0.8704  0.0445
 3795TIP3   OH232799   6.071   4.430  12.808  0.3068  0.6313 -0.4261
 3795TIP3    H132800   6.107   4.406  12.893 -0.5570  0.4862 -0.0941
 3795TIP3    H232801   6.131   4.497  12.775 -0.1089  1.7013  0.9205
 3796TIP3   OH232802   5.751   4.319  11.315 -0.4543  0.2934  1.1122
 3796TIP3    H132803   5.681   4.350  11.372  0.1093 -0.7773  2.4469
 3796TIP3    H232804   5.829   4.322  11.370  0.3350  0.3335  0.0221
 3797TIP3   OH232805   1.750   5.374  12.823 -0.0085 -0.0418  0.6258
 3797TIP3    H132806   1.683   5.425  12.869  1.8804  1.6471  1.6254
 3797TIP3    H232807   1.700   5.310  12.772 -2.4390  1.8271  0.4775
 3798TIP3   OH232808   0.844   0.246   2.251 -0.0797 -0.2992  0.5081
 3798TIP3    H132809   0.933   0.249   2.217 -0.2897  0.4685  0.0071
 3798TIP3    H232810   0.843   0.170   2.310  1.7159  1.3274  2.8075
 3799TIP3   OH232811   4.802   6.233   1.805 -0.2373  0.5954  0.2793
 3799TIP3    H132812   4.713   6.247   1.837 -1.0109 -1.7951 -0.5966
 3799TIP3    H232813   4.796   6.250   1.711  0.3335  0.7492  0.2654
 3800TIP3   OH232814   2.465   0.553  12.173 -0.0399  0.3912 -0.4470
 3800TIP3    H132815   2.452   0.602  12.254 -1.3928  0.4528 -0.6668
 3800TIP3    H232816   2.389   0.577  12.119  0.1347 -0.6858 -1.1983
 3801TIP3   OH232817   5.530   0.939  13.901  0.0017  0.3210  0.7635
 3801TIP3    H132818   5.486   1.003  13.958  0.4560 -1.7146  3.5901
 3801TIP3    H232819   5.514   0.855  13.942  0.4685 -1.3468 -2.1635
 3802TIP3   OH232820   5.636   6.369   9.959 -0.4439  0.2582 -0.0624
 3802TIP3    H132821   5.716   6.398  10.002  0.1335 -0.7368 -0.4354
 3802TIP3    H232822   5.650   6.389   9.867 -0.4710 -0.2443 -0.1765
 3803TIP3   OH232823   5.904   3.714  13.946 -0.0020 -0.0216 -0.0637
 3803TIP3    H132824   5.815   3.679  13.936 -0.5802  0.5223  2.3534
 3803TIP3    H232825   5.946   3.654  14.007  0.1270  1.5334  1.4545
 3804TIP3   OH232826   0.358   0.535  11.799 -0.5514 -0.4404  0.1838
 3804TIP3    H132827   0.306   0.599  11.750 -1.3570 -1.0915  0.1819
 3804TIP3    H232828   0.422   0.503  11.735  0.2972  0.8333  0.3635
 3805TIP3   OH232829   1.653   5.659  14.186 -0.3136 -0.2934  0.6361
 3805TIP3    H132830   1.707   5.739  14.189  0.6131 -0.9185  1.2495
 3805TIP3    H232831   1.705   5.594  14.233 -2.2389 -0.5602  2.5634
 3806TIP3   OH232832   5.870   6.801  14.061  0.5844 -0.0846 -0.4953
 3806TIP3    H132833   5.933   6.849  14.008 -0.7658  0.2093 -1.9076
 3806TIP3    H232834   5.831   6.738  14.000 -1.2256  0.4587  0.0455
 3807TIP3   OH232835   4.124   5.113  10.029 -0.2039 -0.2861  0.3982
 3807TIP3    H132836   4.114   5.163  10.110 -1.8449 -0.4747  0.3348
 3807TIP3    H232837   4.075   5.163   9.963  0.5543 -0.4798 -0.3386
 3808TIP3   OH232838   6.463   6.834   1.098  0.0374 -0.3672 -0.1800
 3808TIP3    H132839   6.517   6.820   1.175 -0.2348 -0.3102  0.0228
 3808TIP3    H232840   6.525   6.863   1.030  0.3841 -1.1095 -0.1930
 3809TIP3   OH232841   2.322   2.331  12.567  0.3009  0.0313  0.0971
 3809TIP3    H132842   2.389   2.353  12.631  0.4061 -1.8185  0.7077
 3809TIP3    H232843   2.255   2.398  12.577  1.5436  1.2829  0.2369
 3810TIP3   OH232844   3.399   4.825   0.915  0.0507 -0.0328 -0.5191
 3810TIP3    H132845   3.390   4.730   0.907 -0.9728  0.0301 -0.1897
 3810TIP3    H232846   3.443   4.852   0.834  0.2253 -0.7639 -0.6748
 3811TIP3   OH232847   4.213   2.774  14.449  0.5850 -0.1293  0.3753
 3811TIP3    H132848   4.242   2.862  14.471 -1.8958  1.3546 -1.9010
 3811TIP3    H232849   4.257   2.753  14.367  1.2859 -1.1540  0.9736
 3812TIP3   OH232850   6.603   4.275  11.386 -0.3882 -0.1556 -0.3889
 3812TIP3    H132851   6.565   4.193  11.354  0.8152 -1.5387  1.4433
 3812TIP3    H232852   6.556   4.344  11.340 -1.5316 -1.8749 -1.9233
 3813TIP3   OH232853   5.754   1.410   1.816  0.4257  0.1865 -0.4924
 3813TIP3    H132854   5.684   1.345   1.812  0.1877  0.4486 -0.6969
 3813TIP3    H232855   5.827   1.365   1.857 -0.3289  0.3145  1.0789
 3814TIP3   OH232856   0.991   6.760  14.069  0.2035 -0.0718  0.1330
 3814TIP3    H132857   0.933   6.785  14.142 -0.5037 -0.2316 -0.3600
 3814TIP3    H232858   1.052   6.698  14.108  0.5909  0.7368  0.8650
 3815TIP3   OH232859   3.701   6.413   1.164 -0.4038  0.3638 -0.2592
 3815TIP3    H132860   3.606   6.426   1.164 -0.1651  2.3803 -1.1189
 3815TIP3    H232861   3.712   6.318   1.166 -2.4672  0.0404 -1.6833
 3816TIP3   OH232862   6.367   7.053   0.936 -0.9347  0.5257 -0.0971
 3816TIP3    H132863   6.367   7.138   0.978 -3.5777  0.6077 -0.1544
 3816TIP3    H232864   6.390   6.992   1.006  1.9542  1.2596 -0.2617
 3817TIP3   OH232865   3.877   3.801  14.955  0.1036 -0.6485 -1.3257
 3817TIP3    H132866   3.837   3.836  14.876 -0.7453  2.8586  0.4417
 3817TIP3    H232867   3.901   3.878  15.007  2.7189 -2.6960  0.8961
 3818TIP3   OH232868   1.998   1.240  11.966 -0.0401 -0.0063 -0.3831
 3818TIP3    H132869   2.021   1.303  11.898  1.7765 -0.2187 -0.0015
 3818TIP3    H232870   2.016   1.285  12.048  1.2360 -0.9851 -0.1043
 3819TIP3   OH232871   4.033   6.433  11.453  0.0073 -0.6657  0.7750
 3819TIP3    H132872   3.984   6.515  11.458  1.9489  0.4842  1.8186
 3819TIP3    H232873   4.007   6.396  11.368 -1.7040  0.4788  0.7459
 3820TIP3   OH232874   2.823   6.686   0.820 -0.0786  0.2706 -0.1555
 3820TIP3    H132875   2.902   6.712   0.867  0.6787  0.4650 -1.4869
 3820TIP3    H232876   2.851   6.614   0.763 -1.1293 -0.4376  0.1785
 3821TIP3   OH232877   5.825   2.401  10.808 -0.0483 -0.3355 -0.4440
 3821TIP3    H132878   5.783   2.487  10.799 -0.9342 -0.6002  0.8900
 3821TIP3    H232879   5.787   2.364  10.888  1.9520 -1.0446  0.2494
 3822TIP3   OH232880   6.626   5.751  10.718 -0.0852  0.1192 -0.2544
 3822TIP3    H132881   6.677   5.832  10.719 -0.0422  0.1082 -1.0461
 3822TIP3    H232882   6.555   5.768  10.656 -0.3248 -0.2962 -0.0962
 3823TIP3   OH232883   0.363   5.567   1.053 -0.6577  0.0463 -0.3808
 3823TIP3    H132884   0.454   5.558   1.081 -0.7430  0.9273  0.1959
 3823TIP3    H232885   0.368   5.615   0.970 -0.6392  0.7972  0.0484
 3824TIP3   OH232886   6.998   4.482   1.251  0.1675  0.2903 -0.1496
 3824TIP3    H132887   6.945   4.403   1.254  2.4288 -1.2817  1.2709
 3824TIP3    H232888   7.028   4.488   1.160 -0.6355 -0.0054 -0.4443
 3825TIP3   OH232889   2.344   0.961  14.731  0.4051  1.0181  0.2598
 3825TIP3    H132890   2.344   0.968  14.636 -2.4889 -2.3044 -0.1595
 3825TIP3    H232891   2.367   0.870  14.749 -3.4871  0.2340  2.3767
 3826TIP3   OH232892   0.065   2.988  10.188  0.1514 -0.1649 -0.0419
 3826TIP3    H132893   0.040   3.074  10.221  2.8507  0.6461  0.1205
 3826TIP3    H232894   0.068   2.999  10.093  0.0584 -0.2116 -0.0505
 3827TIP3   OH232895   6.236   4.636   3.366  0.2681 -0.2651  0.1973
 3827TIP3    H132896   6.179   4.596   3.431 -0.4613 -1.1495 -0.9444
 3827TIP3    H232897   6.313   4.580   3.364  1.3397  1.0597  1.9056
 3828TIP3   OH232898   1.338   6.640  13.565 -0.6530  0.3537 -0.4755
 3828TIP3    H132899   1.388   6.563  13.537 -2.8704 -0.6944 -1.7664
 3828TIP3    H232900   1.401   6.691  13.617  0.6773 -2.7187  1.1811
 3829TIP3   OH232901   0.046   3.558  10.334  0.2368 -0.2165 -0.2854
 3829TIP3    H132902  -0.004   3.570  10.253  0.0368  0.9414 -0.0234
 3829TIP3    H232903   0.029   3.639  10.384  3.5497  0.9257 -0.8011
 3830TIP3   OH232904   5.269   5.376  13.483 -0.0403  0.3637  0.2502
 3830TIP3    H132905   5.330   5.327  13.428 -1.1150 -1.5874  0.7131
 3830TIP3    H232906   5.291   5.350  13.573  0.5697  2.1987  0.6883
 3831TIP3   OH232907   1.622   2.376  12.019 -0.2803  0.0869 -0.6692
 3831TIP3    H132908   1.705   2.342  12.053 -1.0296 -2.4693 -1.1684
 3831TIP3    H232909   1.575   2.298  11.989 -4.0865  1.0465  2.0962
 3832TIP3   OH232910   2.754   2.400  14.784 -0.1403  0.2072 -0.2615
 3832TIP3    H132911   2.708   2.457  14.723 -0.1890 -0.2748 -0.6819
 3832TIP3    H232912   2.794   2.333  14.729  0.2040  0.0313  0.1955
 3833TIP3   OH232913   5.840   4.917  12.665 -0.6952  0.1066  0.2719
 3833TIP3    H132914   5.866   4.986  12.603  1.3885 -1.8122 -1.1283
 3833TIP3    H232915   5.745   4.917  12.662 -0.7472  2.3208 -0.3047
 3834TIP3   OH232916   3.007   5.220  14.064  0.1082  0.3250 -0.1181
 3834TIP3    H132917   2.930   5.232  14.119 -1.1874 -0.3357 -1.7168
 3834TIP3    H232918   3.023   5.307  14.027  1.5106  0.9829  1.8638
 3835TIP3   OH232919   0.277   1.093   3.357 -0.0932 -0.0683  0.2861
 3835TIP3    H132920   0.333   1.170   3.359 -1.0950  0.7147  3.3683
 3835TIP3    H232921   0.208   1.112   3.420 -1.6978 -2.5524 -0.5862
 3836TIP3   OH232922   3.005   2.212  11.947 -0.3185  0.1979 -0.0336
 3836TIP3    H132923   3.082   2.204  12.003 -0.3192  1.2550  0.1551
 3836TIP3    H232924   2.989   2.124  11.914 -0.6464 -0.5769  2.0431
 3837TIP3   OH232925   6.101   1.141  12.182 -0.1548 -0.4377 -0.5657
 3837TIP3    H132926   6.099   1.120  12.275 -1.4032 -0.5723 -0.6089
 3837TIP3    H232927   6.145   1.066  12.141  0.7392 -0.2049 -0.0579
 3838TIP3   OH232928   2.407   6.443  10.511 -0.1451 -0.1706  0.1826
 3838TIP3    H132929   2.426   6.349  10.511  0.4226 -0.1069  2.3496
 3838TIP3    H232930   2.492   6.484  10.498 -0.2030  0.0468  0.4831
 3839TIP3   OH232931   0.804   4.042  11.200  0.1276 -0.7836  0.5255
 3839TIP3    H132932   0.813   4.129  11.162  0.4402 -0.0237  2.2233
 3839TIP3    H232933   0.890   4.001  11.190 -0.4405 -1.5627 -1.6959
 3840TIP3   OH232934   6.503   0.372  13.363 -0.0162  0.3922  0.3963
 3840TIP3    H132935   6.435   0.422  13.317 -0.0491 -0.6212 -0.6999
 3840TIP3    H232936   6.469   0.363  13.452 -1.7828 -0.8533 -0.3430
 3841TIP3   OH232937   4.668   2.124  12.025  0.2318  0.0204  0.0629
 3841TIP3    H132938   4.636   2.094  11.940  0.9086  0.5021 -0.3775
 3841TIP3    H232939   4.721   2.052  12.058  2.1711  0.7877 -1.1647
 3842TIP3   OH232940   3.015   0.049  13.857  0.7873  0.2581  0.2600
 3842TIP3    H132941   3.110   0.064  13.861  1.4539 -3.4156  2.3088
 3842TIP3    H232942   2.980   0.099  13.930  1.1514  1.2022 -0.1827
 3843TIP3   OH232943   6.665   3.162  11.231 -1.0419 -0.2953 -0.3145
 3843TIP3    H132944   6.712   3.079  11.225  2.1275  1.0123  3.2166
 3843TIP3    H232945   6.697   3.213  11.156  1.4313 -0.3261  0.6451
 3844TIP3   OH232946   2.299   1.135   2.081 -0.0736  0.3211  0.4583
 3844TIP3    H132947   2.243   1.203   2.118 -0.5169 -0.5888  1.5048
 3844TIP3    H232948   2.345   1.098   2.156  0.1481 -0.5434 -0.0941
 3845TIP3   OH232949   6.232   2.204   9.645 -0.0731  0.3775  0.2309
 3845TIP3    H132950   6.157   2.145   9.653 -0.6928  1.0952 -0.0631
 3845TIP3    H232951   6.283   2.190   9.725 -0.8380  0.2995  0.7189
 3846TIP3   OH232952   3.846   0.553  13.153 -0.3448 -0.0840  0.3361
 3846TIP3    H132953   3.887   0.636  13.177  2.2891 -0.8901 -0.9606
 3846TIP3    H232954   3.824   0.564  13.060 -0.6471 -0.5735  0.3501
 3847TIP3   OH232955   3.018   4.580   0.832 -0.3299  0.5950 -0.0633
 3847TIP3    H132956   2.923   4.574   0.844 -0.5105  2.6126 -0.1747
 3847TIP3    H232957   3.034   4.534   0.749 -1.0865 -0.4223  0.3352
 3848TIP3   OH232958   1.808   0.115   5.691  0.0876  0.0093  0.4222
 3848TIP3    H132959   1.891   0.072   5.671 -0.9170 -1.5735 -0.4952
 3848TIP3    H232960   1.793   0.174   5.616 -0.0109 -0.3096  0.1905
 3849TIP3   OH232961   3.080   4.972  11.206 -0.3009 -0.0450  0.0823
 3849TIP3    H132962   3.134   5.022  11.145 -0.1564  1.7223  1.5705
 3849TIP3    H232963   3.135   4.962  11.284 -2.0361  1.9484  1.7010
 3850TIP3   OH232964   0.003   4.392  10.350  0.4101 -0.1969  0.4083
 3850TIP3    H132965  -0.045   4.430  10.424  0.9068  1.8440 -0.2523
 3850TIP3    H232966  -0.062   4.341  10.303 -0.7772  1.2837  0.3763
 3851TIP3   OH232967   4.629   5.747  12.147 -0.0947  1.1992 -0.0527
 3851TIP3    H132968   4.649   5.805  12.221  2.7614  0.1213  0.1596
 3851TIP3    H232969   4.710   5.698  12.133 -1.1341  0.0719 -2.7618
 3852TIP3   OH232970   3.255   5.017  11.828 -0.1234 -0.3649 -0.1944
 3852TIP3    H132971   3.268   5.084  11.761  1.2997  0.3381  0.7249
 3852TIP3    H232972   3.234   5.067  11.907  1.5227 -0.9274  0.6451
 3853TIP3   OH232973   5.997   5.465  14.847  0.1767 -0.6080 -0.1099
 3853TIP3    H132974   5.970   5.541  14.795  0.1698  0.3306  1.2310
 3853TIP3    H232975   5.916   5.415  14.862  0.4226 -1.8727 -2.4373
 3854TIP3   OH232976   4.020   4.798   1.757  0.0322 -0.2084  0.1097
 3854TIP3    H132977   4.005   4.743   1.680 -0.5895 -0.8996  0.7070
 3854TIP3    H232978   4.028   4.736   1.830  1.7372  0.3664  0.4501
 3855TIP3   OH232979   2.109   0.498  11.885 -0.1112 -0.4255  0.1027
 3855TIP3    H132980   2.053   0.492  11.963 -0.1764 -2.0056 -0.0252
 3855TIP3    H232981   2.081   0.578  11.841 -0.6998  0.0070  1.2294
 3856TIP3   OH232982   1.416   1.216  13.649  0.1249  0.2483 -0.3275
 3856TIP3    H132983   1.391   1.177  13.565 -2.4844  2.1433 -0.5724
 3856TIP3    H232984   1.510   1.202  13.655 -0.1441 -3.1469 -1.8221
 3857TIP3   OH232985   4.673   6.468   3.052  0.0422  0.1071  0.2224
 3857TIP3    H132986   4.641   6.475   2.962  0.5521  1.1120  0.1055
 3857TIP3    H232987   4.744   6.531   3.057  0.4022 -0.3560  1.1767
 3858TIP3   OH232988   1.523   3.562   1.038  0.0963  0.2589  0.0180
 3858TIP3    H132989   1.591   3.579   1.104  0.5000  0.9884 -0.5612
 3858TIP3    H232990   1.500   3.649   1.006 -1.1313  0.0158  0.2099
 3859TIP3   OH232991   3.502   2.145   1.808  0.3294 -0.5542  0.2164
 3859TIP3    H132992   3.447   2.223   1.801  1.3555  0.4535  2.2676
 3859TIP3    H232993   3.568   2.156   1.740  0.2480  0.2085  0.2518
 3860TIP3   OH232994   3.081   2.219  12.608  0.3440  0.1890 -0.2641
 3860TIP3    H132995   3.103   2.237  12.699 -0.1362 -0.1927 -0.0632
 3860TIP3    H232996   3.165   2.212  12.563  0.6130 -0.4222  0.3146
 3861TIP3   OH232997   4.945   2.999  12.692 -0.3533 -0.0183  0.0638
 3861TIP3    H132998   4.872   3.005  12.631  1.1984  0.3597 -1.8983
 3861TIP3    H232999   5.021   3.027  12.640  1.3250 -1.2424  1.7190
 3862TIP3   OH233000   2.881   0.996  13.143 -0.6931 -0.1204 -0.2895
 3862TIP3    H133001   2.798   1.027  13.106  0.7766  0.9515 -2.9157
 3862TIP3    H233002   2.893   0.909  13.105  0.2960  0.5283 -1.5021
 3863TIP3   OH233003   5.349   6.191   1.729 -0.3678  0.4858 -0.1372
 3863TIP3    H133004   5.423   6.233   1.684 -0.0317  0.5105  0.4290
 3863TIP3    H233005   5.289   6.263   1.748 -0.4409  0.4978 -0.4115
 3864TIP3   OH233006   2.683   6.495   9.951  0.4180  0.1053 -0.7111
 3864TIP3    H133007   2.758   6.446   9.984 -0.1174 -2.4556 -2.9054
 3864TIP3    H233008   2.677   6.469   9.859 -2.3361  1.2832 -0.9466
 3865TIP3   OH233009   4.062   4.144  14.776  0.0530 -0.8670  0.3441
 3865TIP3    H133010   4.112   4.062  14.772  1.3190 -0.1374  0.7199
 3865TIP3    H233011   4.016   4.147  14.692  1.1135 -1.2813 -0.2805
 3866TIP3   OH233012   0.645   6.524  11.858 -0.0164 -0.4876 -0.4162
 3866TIP3    H133013   0.571   6.531  11.919 -0.1534 -1.7287 -0.4288
 3866TIP3    H233014   0.653   6.613  11.822 -2.2042 -0.5350 -1.2251
 3867TIP3   OH233015   5.542   4.586  14.285 -0.6646 -0.1327 -0.6512
 3867TIP3    H133016   5.632   4.556  14.288 -1.2403 -2.0932 -1.3173
 3867TIP3    H233017   5.537   4.640  14.205  0.1047  0.7989 -0.0915
 3868TIP3   OH233018   3.899   4.065  10.761 -0.0494 -0.5493  0.4539
 3868TIP3    H133019   3.930   4.146  10.799 -1.4013  0.0684  0.2935
 3868TIP3    H233020   3.970   4.002  10.777  0.6704  0.4435  1.2863
 3869TIP3   OH233021   3.136   2.985  10.201  0.2045  0.4206 -0.1069
 3869TIP3    H133022   3.056   3.022  10.165 -0.0266  0.3797  0.3582
 3869TIP3    H233023   3.207   3.034  10.158 -0.0693  0.5610 -0.4024
 3870TIP3   OH233024   6.721   2.173   5.025  0.2307  0.3409 -0.1024
 3870TIP3    H133025   6.710   2.257   5.070 -4.3345 -0.6655  1.2172
 3870TIP3    H233026   6.689   2.189   4.936  1.6474  0.4886 -0.6058
 3871TIP3   OH233027   3.981   3.012   3.673 -0.5648  0.2403 -0.3002
 3871TIP3    H133028   4.006   2.945   3.736 -1.8407  0.1974  0.2080
 3871TIP3    H233029   3.901   2.978   3.632  1.4315 -0.8517 -3.7306
 3872TIP3   OH233030   1.477   6.276  12.310 -0.0285  0.1960  0.5549
 3872TIP3    H133031   1.414   6.230  12.366 -0.8160 -1.0648 -1.2234
 3872TIP3    H233032   1.479   6.223  12.230  2.4399  0.8685  0.0908
 3873TIP3   OH233033   2.012   4.769  15.271  0.4334  0.2467  0.2506
 3873TIP3    H133034   2.082   4.714  15.236  0.7662 -1.2068  2.9423
 3873TIP3    H233035   1.933   4.716  15.262  0.0477  0.9419 -0.6382
 3874TIP3   OH233036   3.904   1.215   0.271  0.0143 -0.0937 -0.8229
 3874TIP3    H133037   3.903   1.120   0.269 -0.0699 -0.0850 -1.2483
 3874TIP3    H233038   3.853   1.238   0.349 -0.7094 -0.3848 -1.2007
 3875TIP3   OH233039   0.390   5.127  12.887  0.4556 -0.2186 -0.0302
 3875TIP3    H133040   0.359   5.113  12.797  1.0086 -1.2256 -0.0833
 3875TIP3    H233041   0.473   5.174  12.876 -0.5698  1.7071  0.0745
 3876TIP3   OH233042   3.220   4.463   1.161 -0.4673 -0.0511 -0.0305
 3876TIP3    H133043   3.293   4.514   1.197  0.1609 -1.7804  1.3351
 3876TIP3    H233044   3.142   4.503   1.200 -0.1101  0.6679 -0.0248
 3877TIP3   OH233045   6.001   4.338  10.217  0.3624  0.1786 -0.7907
 3877TIP3    H133046   6.031   4.351  10.127 -1.0047 -0.8935 -1.4506
 3877TIP3    H233047   5.910   4.309  10.207  0.5580 -1.1474  0.8841
 3878TIP3   OH233048   4.459   6.660  11.031 -0.3719  0.2065 -0.0952
 3878TIP3    H133049   4.511   6.583  11.008  0.0430  0.3784  0.2455
 3878TIP3    H233050   4.465   6.716  10.953  2.6287  1.6391  0.9950
 3879TIP3   OH233051   0.111   2.093  15.198  0.7473  0.4452  0.6099
 3879TIP3    H133052   0.171   2.156  15.158  1.5198 -1.2175 -0.9979
 3879TIP3    H233053   0.057   2.062  15.125  1.4196 -1.8685  1.0334
 3880TIP3   OH233054   4.261   2.997  10.670 -0.0344 -0.3242  0.4969
 3880TIP3    H133055   4.328   2.947  10.717 -0.3647 -0.3782  0.9182
 3880TIP3    H233056   4.305   3.028  10.591  0.0868 -1.5696  0.0591
 3881TIP3   OH233057   5.292   1.869  11.908  0.3607  0.5005 -0.1359
 3881TIP3    H133058   5.360   1.888  11.972  1.0340  1.8590 -1.2076
 3881TIP3    H233059   5.309   1.780  11.880  0.3279  0.0468  1.2186
 3882TIP3   OH233060   4.149   2.460  11.446  0.0749  0.3928  0.1924
 3882TIP3    H133061   4.075   2.401  11.437  0.8310 -0.3914 -1.3157
 3882TIP3    H233062   4.201   2.424  11.517 -0.2126  0.0791  0.2431
 3883TIP3   OH233063   0.716   6.972  12.732 -0.0042  0.0215 -0.2105
 3883TIP3    H133064   0.686   6.929  12.652  0.7302 -1.0617  0.0719
 3883TIP3    H233065   0.766   6.905  12.778 -0.5594  0.5632  1.2577
 3884TIP3   OH233066   4.540   0.026  14.279  0.0226 -0.0101  0.0392
 3884TIP3    H133067   4.582   0.094  14.226 -1.5904 -0.9464 -2.6130
 3884TIP3    H233068   4.447   0.034  14.258 -0.7643 -0.2831  3.0198
 3885TIP3   OH233069   5.905   3.916   9.401 -0.0389 -0.0782 -0.3220
 3885TIP3    H133070   5.849   3.988   9.430 -0.0661 -0.2938  0.1590
 3885TIP3    H233071   5.931   3.941   9.312 -1.2854 -0.1925 -0.7493
 3886TIP3   OH233072   5.002   5.625   1.351  0.5724 -0.3101 -0.6177
 3886TIP3    H133073   5.066   5.555   1.359  1.6143  0.8131  1.9568
 3886TIP3    H233074   4.918   5.584   1.371  0.9607 -1.1198 -0.6169
 3887TIP3   OH233075   4.092   1.481  10.569  0.0996 -0.5256  0.0654
 3887TIP3    H133076   4.050   1.532  10.638 -1.3104 -0.4694 -0.7753
 3887TIP3    H233077   4.030   1.486  10.495  2.5825  1.4579 -2.0822
 3888TIP3   OH233078   1.070   4.652  10.090  0.2091  0.3283 -0.1932
 3888TIP3    H133079   1.117   4.596  10.029  0.6997  0.7966 -0.2580
 3888TIP3    H233080   1.136   4.679  10.154  0.6503  2.8437 -1.5682
 3889TIP3   OH233081   0.131   1.994  14.057  0.7381  0.2810 -0.3940
 3889TIP3    H133082   0.099   1.917  14.010  1.2381  0.1270 -0.4870
 3889TIP3    H233083   0.077   2.066  14.025  1.0278  0.1637 -1.1577
 3890TIP3   OH233084   6.014   5.677   9.734  0.2782  0.5263  0.3015
 3890TIP3    H133085   6.038   5.731   9.658 -0.2764  1.7845  1.0009
 3890TIP3    H233086   5.919   5.678   9.735  0.2815  0.3666  0.9235
 3891TIP3   OH233087   2.098   2.505  12.068 -0.0541 -0.1943 -0.0701
 3891TIP3    H133088   2.109   2.510  12.163 -0.1401  1.3670 -0.1175
 3891TIP3    H233089   2.184   2.479  12.036  0.9027  2.2479  0.2674
 3892TIP3   OH233090   1.742   2.201  12.595 -0.2882 -0.5209 -0.2915
 3892TIP3    H133091   1.823   2.159  12.566  0.9669  0.3619  1.7238
 3892TIP3    H233092   1.725   2.268  12.529 -0.5452 -2.0233 -1.8079
 3893TIP3   OH233093   6.559   3.861  15.150 -0.1855  0.1950  0.1426
 3893TIP3    H133094   6.597   3.776  15.131 -0.2398 -0.1633  1.5201
 3893TIP3    H233095   6.482   3.842  15.204  0.1325  1.1448  0.9644
 3894TIP3   OH233096   6.619   2.571   1.110  0.1665 -0.0903  0.0961
 3894TIP3    H133097   6.648   2.598   1.197 -1.0339 -0.2226  0.5596
 3894TIP3    H233098   6.683   2.609   1.050  1.5820 -0.8086  1.0782
 3895TIP3   OH233099   1.641   2.765  13.048 -0.4983  0.2444  0.0478
 3895TIP3    H133100   1.645   2.707  13.124 -0.0977 -1.5160 -1.2361
 3895TIP3    H233101   1.550   2.757  13.017  0.2315 -2.0151 -1.7605
 3896TIP3   OH233102   5.172   5.844  15.059  0.5220 -0.3559 -0.1990
 3896TIP3    H133103   5.116   5.786  15.007  1.9673 -0.7643 -1.3914
 3896TIP3    H233104   5.140   5.835  15.148 -1.3037 -0.5466 -0.8308
 3897TIP3   OH233105   1.370   3.823  14.521 -0.1127 -0.3572  0.3341
 3897TIP3    H133106   1.284   3.857  14.546 -0.3725 -0.1377 -0.8089
 3897TIP3    H233107   1.352   3.758  14.453  0.4508 -2.2316  1.9034
 3898TIP3   OH233108   3.787   0.387  10.959 -0.4801  0.5428 -0.2747
 3898TIP3    H133109   3.798   0.297  10.930  0.9977 -0.4124  2.8424
 3898TIP3    H233110   3.693   0.397  10.974 -0.6778 -0.3751 -0.8724
 3899TIP3   OH233111   0.716   2.994  10.661 -0.0920 -0.0008 -0.7913
 3899TIP3    H133112   0.812   2.997  10.665 -0.1470  0.1522  1.5097
 3899TIP3    H233113   0.695   3.032  10.576  1.8478  0.6723 -1.0260
 3900TIP3   OH233114   2.091   0.410  12.362  0.0919 -0.3272 -0.0777
 3900TIP3    H133115   2.097   0.399  12.457 -2.0452 -0.9562  0.0422
 3900TIP3    H233116   2.094   0.504  12.348 -3.2911  0.0598  1.0424
 3901TIP3   OH233117   5.300   4.985   2.256 -0.7077 -0.0085 -0.4586
 3901TIP3    H133118   5.349   5.051   2.207 -0.1492 -0.4442 -0.4907
 3901TIP3    H233119   5.253   4.936   2.188  1.1565 -1.5207 -0.7271
 3902TIP3   OH233120   2.834   3.650   2.172 -0.1838  0.1877  0.3873
 3902TIP3    H133121   2.835   3.558   2.144 -0.6976  0.4601 -0.5323
 3902TIP3    H233122   2.885   3.696   2.106 -1.3795  0.8330 -0.1021
 3903TIP3   OH233123   2.826   5.696  12.939 -0.2124 -0.5686 -0.3812
 3903TIP3    H133124   2.736   5.700  12.908 -0.2402  4.2356 -0.4571
 3903TIP3    H233125   2.820   5.713  13.033  0.5584 -1.3829 -0.1752
 3904TIP3   OH233126   5.626   7.029   9.870 -0.6886  0.0341 -0.3683
 3904TIP3    H133127   5.677   7.008   9.792  0.5384 -0.5200  0.5591
 3904TIP3    H233128   5.641   7.122   9.884 -0.7095  0.0808 -0.6369
 3905TIP3   OH233129   3.275   5.564  10.997  0.3514  0.1437 -0.0872
 3905TIP3    H133130   3.195   5.511  10.996  0.8196 -0.5899  0.1688
 3905TIP3    H233131   3.245   5.652  11.019 -0.2038 -0.4834  1.8695
 3906TIP3   OH233132   1.522   0.940  14.422  0.3982 -0.6259  0.2174
 3906TIP3    H133133   1.543   1.032  14.438  2.4253 -1.0604  0.3763
 3906TIP3    H233134   1.450   0.942  14.360 -0.0317  1.0599  0.7120
 3907TIP3   OH233135   6.398   2.073  12.422 -0.0633  0.4477 -0.0807
 3907TIP3    H133136   6.341   1.997  12.415 -0.2310  0.5655  0.0035
 3907TIP3    H233137   6.486   2.039  12.407 -0.2955  0.5038 -1.7304
 3908TIP3   OH233138   1.599   4.602  10.156 -0.5046  0.2232 -0.0889
 3908TIP3    H133139   1.682   4.626  10.197 -1.2888  0.6986  1.3033
 3908TIP3    H233140   1.608   4.630  10.065 -0.0157  2.5305  0.5955
 3909TIP3   OH233141   5.722   3.788   9.731  0.2560  0.0121  0.3736
 3909TIP3    H133142   5.734   3.699   9.765 -0.5000 -0.1184  0.3191
 3909TIP3    H233143   5.673   3.776   9.650  1.3416  0.3828 -0.3526
 3910TIP3   OH233144   1.538   1.212  13.381 -0.0306 -0.0879  0.0733
 3910TIP3    H133145   1.443   1.220  13.377  0.1145  1.4053 -2.2206
 3910TIP3    H233146   1.567   1.291  13.427  0.1809  0.8018 -1.5144
 3911TIP3   OH233147   1.380   4.230  12.764 -0.5401 -0.2666 -0.7309
 3911TIP3    H133148   1.430   4.208  12.685  1.0593 -0.3118  0.2600
 3911TIP3    H233149   1.444   4.271  12.823 -1.4738 -1.0996  0.9303
 3912TIP3   OH233150   1.842   1.288   3.113  0.1973 -0.6051  0.1224
 3912TIP3    H133151   1.797   1.205   3.124 -0.3602 -0.4852 -1.1470
 3912TIP3    H233152   1.933   1.269   3.135  0.5318 -2.1148 -2.2991
 3913TIP3   OH233153   3.346   1.998   0.004 -0.4329  0.4111  0.4190
 3913TIP3    H133154   3.258   2.035   0.002  0.0804  1.6156 -1.1762
 3913TIP3    H233155   3.391   2.045   0.074 -0.4665  1.1834 -0.0802
 3914TIP3   OH233156   3.969   6.567  10.554 -1.0453 -0.3125  0.0304
 3914TIP3    H133157   3.875   6.557  10.541 -0.7196 -1.4120 -1.7743
 3914TIP3    H233158   3.986   6.660  10.536 -1.6828 -0.2626 -0.3253
 3915TIP3   OH233159   0.964   5.691  12.605  0.0588  0.8432 -0.1973
 3915TIP3    H133160   0.939   5.779  12.574 -0.6181  0.5611 -0.4846
 3915TIP3    H233161   1.059   5.693  12.609  0.0050  2.0680  1.2112
 3916TIP3   OH233162   4.227   1.146  12.151  0.1611  0.1551 -0.2592
 3916TIP3    H133163   4.239   1.127  12.244  0.7851 -1.3845 -0.6232
 3916TIP3    H233164   4.168   1.077  12.120 -1.3807  1.6059 -0.6872
 3917TIP3   OH233165   1.046   1.531  11.674  0.0663  0.5474  0.3421
 3917TIP3    H133166   1.136   1.554  11.654 -0.3288  1.0338 -1.0228
 3917TIP3    H233167   1.027   1.456  11.617 -0.5066  0.7177  0.3013
 3918TIP3   OH233168   6.152   1.019  12.442  0.5318  0.0322 -0.4807
 3918TIP3    H133169   6.211   0.945  12.459  0.6682  0.3404  0.4126
 3918TIP3    H233170   6.067   0.989  12.473  0.4127 -0.0357 -0.8558
 3919TIP3   OH233171   3.014   0.695  14.937  0.4439 -0.5250  0.6274
 3919TIP3    H133172   2.971   0.610  14.949 -0.1208 -0.6133 -1.5343
 3919TIP3    H233173   3.070   0.683  14.860  1.7221  0.5891  1.3375
 3920TIP3   OH233174   1.378   3.203  12.714  0.2311 -0.7702 -0.5029
 3920TIP3    H133175   1.354   3.191  12.806  1.2275 -1.2528 -0.2897
 3920TIP3    H233176   1.457   3.150  12.703  0.2123 -0.5951 -1.6030
 3921TIP3   OH233177   5.925   3.372  14.579 -0.3096  0.2798  0.0660
 3921TIP3    H133178   5.943   3.417  14.497 -0.3453  2.2099  1.0593
 3921TIP3    H233179   6.007   3.376  14.628 -1.0918  1.8975  1.3283
 3922TIP3   OH233180   4.841   1.138  13.438 -0.1759 -0.8557 -0.7538
 3922TIP3    H133181   4.756   1.126  13.396 -0.1590 -4.2151 -0.1270
 3922TIP3    H233182   4.877   1.050  13.446  3.2262  0.3722 -0.5918
 3923TIP3   OH233183   4.479   0.281  11.877 -0.0108 -0.1493  0.1054
 3923TIP3    H133184   4.408   0.246  11.931  1.4599 -0.4790  1.9228
 3923TIP3    H233185   4.543   0.210  11.872  0.5446  0.3960 -0.8570
 3924TIP3   OH233186   0.908   6.852  15.088 -0.4859 -0.0791  0.1757
 3924TIP3    H133187   0.874   6.896  15.010  1.3064 -1.4097 -1.4587
 3924TIP3    H233188   0.872   6.763  15.083 -0.2517 -0.2158  0.8189
 3925TIP3   OH233189   0.305   2.666   0.613 -0.5990 -0.1901 -0.1091
 3925TIP3    H133190   0.356   2.744   0.637 -1.0340 -0.0545  0.3921
 3925TIP3    H233191   0.360   2.621   0.550  0.6167 -0.5666  1.1639
 3926TIP3   OH233192   1.886   4.407  14.121 -0.2150 -0.2558  0.7003
 3926TIP3    H133193   1.850   4.320  14.102 -0.3522 -0.0929  0.1866
 3926TIP3    H233194   1.849   4.463  14.053 -0.3706  0.2703  1.2129
 3927TIP3   OH233195   2.274   1.000  13.431 -0.0854 -0.1782  0.8036
 3927TIP3    H133196   2.273   1.079  13.378  0.0376 -0.8887 -0.2932
 3927TIP3    H233197   2.256   1.030  13.520  2.2364  1.3962  0.8495
 3928TIP3   OH233198   1.117   2.851  14.529  0.4899 -0.8611  0.3060
 3928TIP3    H133199   1.101   2.937  14.489  0.9296 -1.2456 -0.7370
 3928TIP3    H233200   1.088   2.861  14.620 -1.5321 -0.2569 -0.3446
 3929TIP3   OH233201   2.192   0.680  11.255  0.2460 -0.0393  0.0365
 3929TIP3    H133202   2.209   0.618  11.185 -0.6300 -1.1349  0.7752
 3929TIP3    H233203   2.177   0.626  11.333  1.5101  1.1414  1.1744
 3930TIP3   OH233204   3.094   5.754  10.210 -0.4651  0.3912  0.3581
 3930TIP3    H133205   3.131   5.837  10.240 -2.2270  1.8810 -1.2871
 3930TIP3    H233206   3.151   5.726  10.139  0.4823 -0.1727  1.3113
 3931TIP3   OH233207   3.193   0.446  11.224  0.0047 -0.0650 -0.4238
 3931TIP3    H133208   3.203   0.499  11.144  2.2541  1.4895  0.7834
 3931TIP3    H233209   3.271   0.466  11.276 -1.5106 -0.7866  2.3078
 3932TIP3   OH233210   2.871   0.822  10.119  0.2078  0.3241 -0.1951
 3932TIP3    H133211   2.859   0.777  10.035  1.2056  0.8951 -0.6542
 3932TIP3    H233212   2.839   0.759  10.184  2.1141 -1.3347 -0.7591
 3933TIP3   OH233213   3.483   3.877  13.128  0.2311 -0.2109  0.4966
 3933TIP3    H133214   3.496   3.971  13.115  0.2950 -0.0945  1.3622
 3933TIP3    H233215   3.397   3.870  13.171 -0.2641 -0.6250 -0.5333
 3934TIP3   OH233216   2.250   4.560   5.554 -0.2895  0.9225 -0.3234
 3934TIP3    H133217   2.158   4.581   5.570 -0.2975  2.1149 -1.6490
 3934TIP3    H233218   2.248   4.508   5.473  0.1992  1.0257 -0.4008
 3935TIP3   OH233219   0.138   6.994  12.439  0.0206  0.0926  0.4959
 3935TIP3    H133220   0.108   6.999  12.529  0.4589 -1.7218  0.7771
 3935TIP3    H233221   0.182   7.077  12.424 -0.6866  0.7146  1.7091
 3936TIP3   OH233222   1.755   1.621  14.196  0.0598 -0.1412 -0.3342
 3936TIP3    H133223   1.814   1.573  14.254 -0.3116 -0.1244  0.0566
 3936TIP3    H233224   1.808   1.695  14.165  0.4444 -0.4758 -0.4866
 3937TIP3   OH233225   1.257   6.807  13.930  0.3655 -0.1783  0.5280
 3937TIP3    H133226   1.331   6.814  13.870  1.1766 -2.4122  1.1821
 3937TIP3    H233227   1.181   6.828  13.876  1.2371 -0.3170 -0.8173
 3938TIP3   OH233228   6.717   4.582  15.476  0.2234  0.0077 -0.2396
 3938TIP3    H133229   6.663   4.563  15.399 -0.3117 -0.3400  0.2126
 3938TIP3    H233230   6.782   4.512  15.478 -1.5752 -1.7432  1.2698
 3939TIP3   OH233231   4.238   2.085  12.092  0.1774 -0.4845  0.2821
 3939TIP3    H133232   4.223   2.110  12.183 -0.6403  0.3479 -0.0497
 3939TIP3    H233233   4.303   2.015  12.095  1.4522  0.6886  1.3954
 3940TIP3   OH233234   4.675   4.890  11.599 -0.1919 -0.3555 -0.2908
 3940TIP3    H133235   4.696   4.819  11.538  1.4644  0.6434 -0.9530
 3940TIP3    H233236   4.592   4.925  11.567  0.0792 -0.5838 -1.2901
 3941TIP3   OH233237   4.720   0.733  10.559  0.0115 -0.0084  0.2994
 3941TIP3    H133238   4.663   0.746  10.483  0.9590  0.9659 -0.2747
 3941TIP3    H233239   4.663   0.695  10.626 -0.9664 -0.3833 -0.7220
 3942TIP3   OH233240   4.039   0.946  12.056  0.4438  0.3092  0.0255
 3942TIP3    H133241   3.980   0.958  11.982  0.7120  0.7762 -0.1195
 3942TIP3    H233242   3.998   0.878  12.109 -0.5314  1.0408  0.2398
 3943TIP3   OH233243   6.967   6.513  11.193  0.3759  0.3112  0.0906
 3943TIP3    H133244   6.898   6.478  11.250  1.0689 -0.8427  0.2519
 3943TIP3    H233245   6.922   6.533  11.110 -0.3988  0.8604  0.6226
 3944TIP3   OH233246   0.589   5.990  14.039 -0.4074  0.1225 -0.0542
 3944TIP3    H133247   0.609   5.905  13.999 -1.4537  0.0238 -0.4190
 3944TIP3    H233248   0.531   5.968  14.112 -0.0655  0.4628  0.3161
 3945TIP3   OH233249   6.032   2.257  13.435 -0.1374  0.3920  0.4537
 3945TIP3    H133250   5.997   2.208  13.510  1.2517 -0.9715  0.2556
 3945TIP3    H233251   6.076   2.332  13.475  1.7791 -1.0428  1.1755
 3946TIP3   OH233252   0.383   4.250  12.574 -0.3951  0.7564 -0.1856
 3946TIP3    H133253   0.457   4.201  12.536 -1.6704  0.3087 -2.2492
 3946TIP3    H233254   0.393   4.338  12.540 -1.7580  0.2620 -1.9760
 3947TIP3   OH233255   5.221   2.177  11.169 -0.1438  0.8901 -0.3542
 3947TIP3    H133256   5.179   2.217  11.245 -0.2028 -0.8818  0.5802
 3947TIP3    H233257   5.165   2.203  11.095 -2.2614 -0.4275  0.6921
 3948TIP3   OH233258   5.590   5.318  10.129  0.5571  0.1314 -0.4827
 3948TIP3    H133259   5.523   5.382  10.103  0.9747  0.4428 -0.8044
 3948TIP3    H233260   5.670   5.348  10.086  1.2069  0.4889  0.9347
 3949TIP3   OH233261   4.770   1.868  12.095  0.7411 -0.5930  0.0300
 3949TIP3    H133262   4.862   1.880  12.119  0.8943 -1.3104 -0.1560
 3949TIP3    H233263   4.771   1.794  12.034  0.1616  0.0790 -0.8209
 3950TIP3   OH233264   6.900   4.705  13.078 -0.0937 -0.7397  0.1907
 3950TIP3    H133265   6.937   4.643  13.141 -0.7308 -1.4244 -0.0948
 3950TIP3    H233266   6.805   4.699  13.091 -0.1664  0.1684  0.1484
 3951TIP3   OH233267   6.983   5.038  12.106  0.1516 -0.0465  0.0286
 3951TIP3    H133268   6.888   5.030  12.097  0.3369 -1.3608 -1.1973
 3951TIP3    H233269   6.995   5.106  12.171 -1.6096  3.3614 -2.8418
 3952TIP3   OH233270   6.372   2.429   0.224 -0.0949 -0.0052  0.4452
 3952TIP3    H133271   6.331   2.436   0.310 -1.6230 -0.5017 -0.1952
 3952TIP3    H233272   6.424   2.508   0.214  0.9299 -0.4149  2.2194
 3953TIP3   OH233273   0.543   1.767  12.032  0.1267  0.5859 -0.0216
 3953TIP3    H133274   0.633   1.736  12.024 -0.5438 -1.1631 -1.4925
 3953TIP3    H233275   0.498   1.697  12.080 -0.8356  0.5500 -0.9568
 3954TIP3   OH233276   6.367   4.431   5.573 -0.0716 -0.0791  0.4538
 3954TIP3    H133277   6.400   4.435   5.484 -0.4458 -0.8070  0.2759
 3954TIP3    H233278   6.308   4.506   5.581  2.1617  1.7303  1.0195
 3955TIP3   OH233279   5.905   1.079  10.279  0.3929  0.2632  0.4824
 3955TIP3    H133280   5.877   1.001  10.232  1.2080 -0.9716  1.9749
 3955TIP3    H233281   5.898   1.150  10.214 -0.3567 -1.0188 -0.8973
 3956TIP3   OH233282   1.572   5.992  10.803  0.0323  0.4520  0.6789
 3956TIP3    H133283   1.583   5.898  10.814 -1.9659  0.0187 -0.5547
 3956TIP3    H233284   1.604   6.011  10.715 -1.9277  0.4298 -0.0841
 3957TIP3   OH233285   3.821   2.783   0.079  0.8188  0.3864  0.0643
 3957TIP3    H133286   3.849   2.851   0.018  0.0300  0.2476 -0.4738
 3957TIP3    H233287   3.868   2.802   0.160  1.0843  1.2003 -0.2705
 3958TIP3   OH233288   6.523   3.850  11.142 -0.2507  0.0180 -0.1508
 3958TIP3    H133289   6.565   3.764  11.138  0.7885  0.5178 -0.4230
 3958TIP3    H233290   6.445   3.842  11.087 -0.4238 -0.8829  0.2078
 3959TIP3   OH233291   2.734   5.881  15.200 -0.0368 -0.3663  0.1975
 3959TIP3    H133292   2.814   5.850  15.158  0.5757 -0.5950  1.4890
 3959TIP3    H233293   2.733   5.838  15.285 -1.4992 -0.2967  0.2497
 3960TIP3   OH233294   2.902   4.289   1.513 -0.0719  0.8585 -0.3414
 3960TIP3    H133295   2.969   4.346   1.552 -0.9665  0.8814  1.2623
 3960TIP3    H233296   2.823   4.342   1.514 -0.2364  0.6901 -1.8653
 3961TIP3   OH233297   4.269   5.326   2.089 -0.1667 -0.3044  0.2902
 3961TIP3    H133298   4.301   5.415   2.076 -0.3176 -0.4917 -1.6351
 3961TIP3    H233299   4.284   5.308   2.182  1.0097  1.2719  0.4359
 3962TIP3   OH233300   4.070   3.907   1.226 -0.2337  0.3128 -0.4906
 3962TIP3    H133301   3.985   3.900   1.182  0.1055 -0.1614 -1.0821
 3962TIP3    H233302   4.111   3.984   1.186 -0.7634  1.1231  0.4750
 3963TIP3   OH233303   5.393   3.277  10.728 -0.3525  0.1758  0.0284
 3963TIP3    H133304   5.312   3.308  10.767 -0.0229  1.8406 -0.5397
 3963TIP3    H233305   5.437   3.230  10.798 -1.5737 -0.3526  0.4746
 3964TIP3   OH233306   3.829   0.555  11.228 -0.0726  0.3551  0.2016
 3964TIP3    H133307   3.904   0.501  11.252 -0.3725 -0.3568 -0.4164
 3964TIP3    H233308   3.753   0.500  11.248 -0.4748  1.2903  1.3988
 3965TIP3   OH233309   2.492   4.989  10.606 -0.2339  0.2335 -0.3573
 3965TIP3    H133310   2.410   5.023  10.572 -0.2967  0.0726 -0.3654
 3965TIP3    H233311   2.549   5.066  10.612 -0.2660  0.2846 -0.6938
 3966TIP3   OH233312   2.697   7.060  10.884 -0.0764  0.1508  0.2639
 3966TIP3    H133313   2.655   7.146  10.879 -0.9183 -0.3218 -2.1911
 3966TIP3    H233314   2.641   7.002  10.832  2.2899 -1.0880 -1.1103
 3967TIP3   OH233315   4.512   3.261  12.908 -0.3601 -0.1396 -0.2461
 3967TIP3    H133316   4.458   3.297  12.837 -1.9696  0.4077  1.1990
 3967TIP3    H233317   4.578   3.208  12.863 -2.3119 -1.1481 -2.1038
 3968TIP3   OH233318   1.193   5.954  15.172 -0.1389  0.5496  0.6864
 3968TIP3    H133319   1.197   6.037  15.124  0.3404  0.1754  0.0595
 3968TIP3    H233320   1.235   5.972  15.256 -0.9609  1.2074  0.9620
 3969TIP3   OH233321   0.728   1.208   3.362 -0.6713 -0.5521 -0.0216
 3969TIP3    H133322   0.680   1.161   3.294  0.1555 -0.9229 -0.3569
 3969TIP3    H233323   0.662   1.228   3.428 -1.4466 -0.3769 -0.8222
 3970TIP3   OH233324   2.211   5.443  10.186  1.1379  0.2111 -0.0911
 3970TIP3    H133325   2.218   5.361  10.136  0.8159  0.1345 -0.0142
 3970TIP3    H233326   2.143   5.425  10.251  0.4298  0.8252 -0.6427
 3971TIP3   OH233327   1.049   3.077  12.728  0.2769  0.0208 -0.4696
 3971TIP3    H133328   0.985   3.019  12.769 -0.0653  1.4289  1.1084
 3971TIP3    H233329   0.997   3.152  12.699  1.1541  1.1875  0.8334
 3972TIP3   OH233330   2.534   0.035   2.115  0.3701 -0.6804 -0.3415
 3972TIP3    H133331   2.565  -0.055   2.103  2.1137 -0.1935  0.2126
 3972TIP3    H233332   2.517   0.042   2.209  2.0547  0.0596 -0.0458
 3973TIP3   OH233333   5.555   0.829  11.925  0.6552 -0.2952 -0.5389
 3973TIP3    H133334   5.489   0.847  11.858  1.0086  3.1319 -0.1633
 3973TIP3    H233335   5.505   0.803  12.002  0.0372 -1.2205 -1.2283
 3974TIP3   OH233336   3.822   3.836   1.135  0.2458  0.1064 -0.1569
 3974TIP3    H133337   3.792   3.745   1.130 -0.3586  0.3437 -1.2869
 3974TIP3    H233338   3.742   3.887   1.140  0.6065  0.5469  1.4530
 3975TIP3   OH233339   5.962   6.486  10.702  0.3662 -0.2722 -0.8095
 3975TIP3    H133340   5.878   6.442  10.719  1.1628 -1.6161 -0.1912
 3975TIP3    H233341   5.994   6.445  10.622  0.8665 -0.4490 -0.5219
 3976TIP3   OH233342   6.532   0.790   4.526  0.6950 -0.4260 -0.4220
 3976TIP3    H133343   6.489   0.833   4.600  1.6178  0.1096 -0.1721
 3976TIP3    H233344   6.464   0.781   4.460  0.1432  0.1721  0.0526
 3977TIP3   OH233345   3.165   5.345   4.188 -0.1319  0.2218 -0.1219
 3977TIP3    H133346   3.182   5.314   4.277 -0.0310 -0.5552 -0.4050
 3977TIP3    H233347   3.156   5.265   4.136 -0.3558  0.6667 -0.7799
 3978TIP3   OH233348   4.284   0.462   0.164 -0.2720 -0.7415  0.2077
 3978TIP3    H133349   4.297   0.436   0.255  2.9062  0.9818  0.3900
 3978TIP3    H233350   4.350   0.529   0.149 -0.3765 -1.2871 -3.5211
 3979TIP3   OH233351   0.674   3.349  11.794 -0.0396  0.0851 -0.3707
 3979TIP3    H133352   0.637   3.363  11.707 -0.7737 -1.1651 -0.2820
 3979TIP3    H233353   0.599   3.360  11.854  0.5016  1.1573  0.1455
 3980TIP3   OH233354   6.474   0.710  14.406 -0.0956  0.2854  0.4050
 3980TIP3    H133355   6.476   0.806  14.408 -0.5401  0.2975  0.3511
 3980TIP3    H233356   6.411   0.689  14.337  1.8546 -0.0661 -1.3842
 3981TIP3   OH233357   5.056   2.193   0.208  0.1441 -0.1559 -0.2171
 3981TIP3    H133358   4.984   2.256   0.217  0.3656  0.1047 -0.2579
 3981TIP3    H233359   5.104   2.200   0.290  1.7465  1.6979 -1.2117
 3982TIP3   OH233360   1.249   4.759  12.772 -0.5385 -0.0391 -0.4502
 3982TIP3    H133361   1.224   4.745  12.863  1.2061  0.1805  0.0980
 3982TIP3    H233362   1.259   4.671  12.736 -0.2338 -0.1358 -0.1327
 3983TIP3   OH233363   4.685   4.582  12.203  0.3001  0.2073 -0.3872
 3983TIP3    H133364   4.627   4.543  12.138  0.8716 -1.7489  0.2014
 3983TIP3    H233365   4.644   4.562  12.287  0.7309  0.6996 -0.0578
 3984TIP3   OH233366   0.210   0.209   2.275 -0.0216  0.2352  0.1172
 3984TIP3    H133367   0.187   0.272   2.206  0.9588 -0.7057 -1.1257
 3984TIP3    H233368   0.155   0.234   2.349 -0.1065  2.1670 -0.5268
 3985TIP3   OH233369   2.670   4.145   1.152  0.6871 -0.2203  0.2675
 3985TIP3    H133370   2.690   4.074   1.092  2.2045  1.2877 -1.0819
 3985TIP3    H233371   2.753   4.190   1.167 -0.0583  0.7850  1.7630
 3986TIP3   OH233372   3.834   6.482  13.036 -0.0671  0.4258  0.3986
 3986TIP3    H133373   3.850   6.408  13.094  0.2521 -0.9631 -1.3634
 3986TIP3    H233374   3.915   6.533  13.039  1.9235 -2.2154 -2.3255
 3987TIP3   OH233375   5.851   5.101  15.038 -0.0698  0.7123 -0.2814
 3987TIP3    H133376   5.768   5.136  15.068 -1.5506 -1.1047 -1.9954
 3987TIP3    H233377   5.897   5.075  15.118 -2.7233 -1.5563  0.6575
 3988TIP3   OH233378   3.728   5.471  13.387 -0.1341 -0.0814  0.0536
 3988TIP3    H133379   3.688   5.459  13.474  1.1207  0.4009  0.7294
 3988TIP3    H233380   3.757   5.383  13.362 -1.4959 -0.4266 -0.4185
 3989TIP3   OH233381   4.556   3.099  14.708 -0.0884  0.3250 -0.5101
 3989TIP3    H133382   4.474   3.060  14.738  0.0163  0.3845 -0.1462
 3989TIP3    H233383   4.565   3.070  14.617 -0.3261  0.0155 -0.4338
 3990TIP3   OH233384   6.752   4.344   9.953  0.3026 -0.2523  0.1215
 3990TIP3    H133385   6.846   4.340   9.971  0.2094 -0.8454  0.4905
 3990TIP3    H233386   6.718   4.260   9.984 -0.5902  0.5531  1.4365
 3991TIP3   OH233387   3.537   3.090  14.216 -0.3652  0.0427  0.2135
 3991TIP3    H133388   3.596   3.056  14.283  0.1127  1.2379  0.4241
 3991TIP3    H233389   3.542   3.185  14.225 -0.8005  0.2171 -1.0830
 3992TIP3   OH233390   3.609   5.842   0.448  0.5127  0.1869 -0.2344
 3992TIP3    H133391   3.525   5.887   0.455  0.9287  0.9574  0.0460
 3992TIP3    H233392   3.608   5.777   0.518  0.1974  0.2723 -0.1578
 3993TIP3   OH233393   1.251   3.804  15.318  0.2856 -0.4254  0.0563
 3993TIP3    H133394   1.290   3.724  15.354  2.9885  0.1867 -1.2859
 3993TIP3    H233395   1.226   3.780  15.229 -0.3262 -0.1883  0.1634
 3994TIP3   OH233396   2.098   1.118   0.475 -0.0371 -0.0322  0.4050
 3994TIP3    H133397   2.116   1.117   0.569  0.6071 -2.0444  0.3113
 3994TIP3    H233398   2.009   1.083   0.467 -0.6082  1.3777  0.3139
 3995TIP3   OH233399   3.117   5.443  14.720  0.3908 -0.0962 -0.2005
 3995TIP3    H133400   3.092   5.432  14.812 -0.2186  0.2047 -0.3246
 3995TIP3    H233401   3.064   5.379  14.674  0.4254  0.0080 -0.3840
 3996TIP3   OH233402   1.217   5.372  10.637  0.3812 -0.5557 -0.1380
 3996TIP3    H133403   1.199   5.458  10.675 -2.6943 -0.6550 -1.1317
 3996TIP3    H233404   1.194   5.310  10.706  0.2483 -0.6206 -0.2396
 3997TIP3   OH233405   2.302   6.560   3.094  0.0459 -0.0395 -0.7333
 3997TIP3    H133406   2.333   6.608   3.017  0.6560  1.0916  0.1911
 3997TIP3    H233407   2.284   6.628   3.159  0.2134 -1.0217  0.3699
 3998TIP3   OH233408   0.309   1.617  11.453 -0.3047  0.1998 -0.2036
 3998TIP3    H133409   0.359   1.550  11.408 -0.0457  1.4784 -1.9217
 3998TIP3    H233410   0.235   1.570  11.491  1.2509 -1.4404  0.9257
 3999TIP3   OH233411   3.524   4.616  11.287  0.2813  0.0270  0.2281
 3999TIP3    H133412   3.534   4.560  11.365  0.5733 -0.1269  0.0830
 3999TIP3    H233413   3.609   4.612  11.244  0.4921  1.0357  0.5172
 4000TIP3   OH233414   1.948   4.794  14.829 -0.6981  0.3495 -0.3165
 4000TIP3    H133415   2.007   4.853  14.876 -2.7045  1.8274  0.5113
 4000TIP3    H233416   1.875   4.781  14.890 -2.3512  0.5320 -2.1669
 4001TIP3   OH233417   4.501   1.834   5.092 -0.2339  0.1418 -0.1266
 4001TIP3    H133418   4.460   1.784   5.021 -0.0576  0.1695 -0.2501
 4001TIP3    H233419   4.429   1.857   5.150 -0.3574 -0.0182 -0.2145
 4002TIP3   OH233420   2.016   4.883   1.310  0.2007 -0.2255  0.1468
 4002TIP3    H133421   1.941   4.929   1.273 -0.9967  0.1226  2.7620
 4002TIP3    H233422   1.982   4.796   1.332  1.1849 -0.8058 -0.5472
 4003TIP3   OH233423   0.533   0.955   0.988 -0.5023  0.3456  0.6297
 4003TIP3    H133424   0.541   1.034   1.042  0.0145 -0.1860  1.3459
 4003TIP3    H233425   0.600   0.896   1.023 -0.6200 -0.2632 -0.1606
 4004TIP3   OH233426   0.868   3.639   3.491 -0.2730 -0.8751  0.2538
 4004TIP3    H133427   0.939   3.638   3.554 -1.4979 -0.6511  1.6942
 4004TIP3    H233428   0.798   3.688   3.534 -0.7138  0.4398 -1.7876
 4005TIP3   OH233429   2.235   0.796  12.060  0.1124  0.0670  0.0870
 4005TIP3    H133430   2.271   0.784  11.972  0.8981  1.3696  0.2020
 4005TIP3    H233431   2.239   0.890  12.075 -0.8513 -0.0446  1.1824
 4006TIP3   OH233432   1.430   6.700  11.946  0.1655  0.0707 -0.1503
 4006TIP3    H133433   1.447   6.611  11.977  0.6238  0.3157  0.3292
 4006TIP3    H233434   1.493   6.754  11.994  1.9228  0.3152 -2.5587
 4007TIP3   OH233435   0.235   5.639   9.585  0.3944  0.1253  0.0008
 4007TIP3    H133436   0.278   5.680   9.510  1.1624  0.7906  0.7807
 4007TIP3    H233437   0.291   5.660   9.660  0.8588 -2.3924  0.4656
 4008TIP3   OH233438   4.428   5.880  11.003  0.3242  0.4595  0.1425
 4008TIP3    H133439   4.491   5.900  10.934  0.0492  1.2749  0.1218
 4008TIP3    H233440   4.412   5.786  10.994  0.9030  0.4029 -0.3813
 4009TIP3   OH233441   6.805   4.663   3.636 -0.1081 -0.1844 -0.4013
 4009TIP3    H133442   6.864   4.605   3.587 -0.4391 -1.1871  0.3353
 4009TIP3    H233443   6.717   4.631   3.614 -0.3400  0.6677 -0.7323
 4010TIP3   OH233444   5.737   0.204   1.073 -0.0579 -0.2072  0.4164
 4010TIP3    H133445   5.705   0.117   1.098  0.5380 -0.5137  0.1473
 4010TIP3    H233446   5.813   0.186   1.018 -0.0495  0.4873  0.1899
 4011TIP3   OH233447   1.667   0.068  14.898 -0.5104 -0.3545 -0.4003
 4011TIP3    H133448   1.673   0.020  14.981 -1.6709 -0.8430 -0.5771
 4011TIP3    H233449   1.718   0.016  14.836  1.5550  0.7368  0.2744
 4012TIP3   OH233450   5.164   4.633  12.764  0.0890 -0.3246 -0.4662
 4012TIP3    H133451   5.213   4.652  12.844 -0.5818 -1.6212  0.2748
 4012TIP3    H233452   5.072   4.631  12.791 -0.0722 -1.8734 -1.0208
 4013TIP3   OH233453   4.571   5.690   3.312  0.0426  0.2814  0.0235
 4013TIP3    H133454   4.664   5.715   3.315  0.6855 -1.9670  1.7540
 4013TIP3    H233455   4.543   5.712   3.224  2.3935  0.4773 -0.7442
 4014TIP3   OH233456   3.399   3.631  11.176  0.3932 -0.1294  0.4542
 4014TIP3    H133457   3.440   3.547  11.155  0.5013  0.0098  0.0896
 4014TIP3    H233458   3.465   3.696  11.152  1.2452  0.0081  2.9170
 4015TIP3   OH233459   5.892   2.514   9.986  0.2060 -0.3913  0.5565
 4015TIP3    H133460   5.878   2.420   9.988 -1.7070 -0.2952 -2.1230
 4015TIP3    H233461   5.841   2.547  10.061 -0.8257 -1.3718  0.3193
 4016TIP3   OH233462   2.129   0.532  11.489  0.0053 -0.2335  0.1775
 4016TIP3    H133463   2.211   0.575  11.511  0.2598  0.4622 -1.9863
 4016TIP3    H233464   2.148   0.439  11.497  0.9437 -0.0741 -0.1240
 4017TIP3   OH233465   4.094   1.205   5.003 -0.3032  0.1955  0.6785
 4017TIP3    H133466   4.114   1.258   5.080 -0.5289 -0.2747  1.0647
 4017TIP3    H233467   4.022   1.149   5.031 -0.0273 -0.3581  0.2913
 4018TIP3   OH233468   0.219   6.210  12.625  0.7139 -0.1095  0.3247
 4018TIP3    H133469   0.247   6.275  12.689  1.1204 -0.4317  0.4841
 4018TIP3    H233470   0.296   6.153  12.614  0.4275 -0.4494  0.0503
 4019TIP3   OH233471   5.748   5.945  12.232  0.6800  0.3381  0.4996
 4019TIP3    H133472   5.670   5.895  12.254  1.5434 -0.6420  1.4561
 4019TIP3    H233473   5.793   5.891  12.167  0.4924  0.9761 -0.1701
 4020TIP3   OH233474   5.415   6.993   9.600 -0.3595 -0.2334 -0.6920
 4020TIP3    H133475   5.472   7.060   9.561 -1.1964  0.5713 -0.5495
 4020TIP3    H233476   5.330   7.006   9.558 -1.0951  0.1913  0.8524
 4021TIP3   OH233477   1.428   5.235  11.744 -0.3680  0.2178  0.1103
 4021TIP3    H133478   1.373   5.172  11.698  0.2059  0.9879 -1.7292
 4021TIP3    H233479   1.376   5.316  11.746 -1.1093 -0.2411  2.4721
 4022TIP3   OH233480   2.023   5.146  14.350  0.3770  0.4818  0.4351
 4022TIP3    H133481   2.107   5.117  14.385  1.4247  1.9516 -0.7324
 4022TIP3    H233482   2.028   5.242  14.350 -2.4048  0.7832  2.8989
 4023TIP3   OH233483   5.825   0.698  10.923  0.2442 -0.0486  0.5122
 4023TIP3    H133484   5.833   0.786  10.885 -0.1018 -0.7712 -1.3576
 4023TIP3    H233485   5.816   0.713  11.017  0.3248  1.9080  0.2495
 4024TIP3   OH233486   0.358   4.012  10.108 -0.1629  0.2524 -0.6581
 4024TIP3    H133487   0.347   4.093  10.158  2.2027  0.1738  0.1163
 4024TIP3    H233488   0.298   3.950  10.149 -0.9521  1.1931 -0.3304
 4025TIP3   OH233489   4.802   0.185  10.885 -0.3854 -0.3353  0.3413
 4025TIP3    H133490   4.770   0.172  10.974 -3.4058 -0.0526 -0.5733
 4025TIP3    H233491   4.771   0.108  10.837  3.5440 -1.8734 -0.0159
 4026TIP3   OH233492   2.018   0.266  11.693  0.7013 -0.1172 -0.8520
 4026TIP3    H133493   2.047   0.191  11.744 -0.2407 -0.1190 -0.3024
 4026TIP3    H233494   2.023   0.340  11.754  0.2150  0.0014 -0.9536
 4027TIP3   OH233495   0.188   2.835  13.362  0.1413  0.1121 -0.7510
 4027TIP3    H133496   0.181   2.886  13.443 -0.6543  0.0862 -0.7959
 4027TIP3    H233497   0.154   2.749  13.385  0.9162 -0.2259 -0.8383
 4028TIP3   OH233498   1.135   5.664  10.469 -0.5952  0.0764  0.1055
 4028TIP3    H133499   1.077   5.589  10.479  2.6992 -2.6676  0.6118
 4028TIP3    H233500   1.153   5.692  10.558 -0.4333  0.3116 -0.0001
 4029TIP3   OH233501   6.979   2.044   2.463  0.0352  0.6786  0.3363
 4029TIP3    H133502   6.986   2.102   2.388  1.1254 -0.6484 -0.6339
 4029TIP3    H233503   6.886   2.025   2.471 -0.3143  2.3998  0.5754
 4030TIP3   OH233504   1.654   2.129  14.773 -0.6371 -0.0839 -0.1357
 4030TIP3    H133505   1.627   2.221  14.780 -0.0496  0.2900 -2.2315
 4030TIP3    H233506   1.709   2.114  14.850 -0.3958  1.4361  0.0086
 4031TIP3   OH233507   2.780   4.836  13.343  0.0731  0.2082  0.3417
 4031TIP3    H133508   2.838   4.912  13.347 -1.3590  1.3707 -0.0007
 4031TIP3    H233509   2.793   4.792  13.427  1.3102  0.5150  0.3406
 4032TIP3   OH233510   4.200   3.757   9.868 -0.2777 -0.1615 -0.3917
 4032TIP3    H133511   4.246   3.826   9.915  0.4548 -1.9534  1.6685
 4032TIP3    H233512   4.138   3.803   9.812  1.2660  2.1867 -0.2795
 4033TIP3   OH233513   6.901   1.088  10.748  0.3002 -0.3009  0.3840
 4033TIP3    H133514   6.980   1.037  10.766  1.4287  0.5614 -1.7629
 4033TIP3    H233515   6.931   1.179  10.745 -1.1675  0.2567  1.4733
 4034TIP3   OH233516   0.714   2.964  11.919 -0.0611 -0.8396  0.1285
 4034TIP3    H133517   0.769   2.953  11.997  1.2839 -2.8429 -1.0122
 4034TIP3    H233518   0.627   2.986  11.954  0.8921  0.0368  2.0912
 4035TIP3   OH233519   4.277   0.591  10.253  0.0150  0.5242 -0.2491
 4035TIP3    H133520   4.359   0.590  10.303  0.9867 -1.4260 -1.7343
 4035TIP3    H233521   4.305   0.581  10.162 -1.8176  1.5430 -0.9771
 4036TIP3   OH233522   2.960   5.764  12.327 -0.0878 -0.5049  0.5047
 4036TIP3    H133523   2.961   5.672  12.299 -1.8703  0.4645 -3.4947
 4036TIP3    H233524   2.868   5.790  12.319  0.5833  1.9605  0.0745
 4037TIP3   OH233525   4.282   3.725  12.416  0.7285 -0.6541  0.1636
 4037TIP3    H133526   4.276   3.632  12.395  1.0567 -0.8396  0.8374
 4037TIP3    H233527   4.292   3.726  12.512  1.1227  0.0543  0.1151
 4038TIP3   OH233528   0.058   4.126   9.987  0.0374 -0.1882  0.0225
 4038TIP3    H133529   0.100   4.119  10.073  0.4004  2.4510  0.1437
 4038TIP3    H233530   0.117   4.181   9.937 -0.5894 -1.0120 -1.6897
 4039TIP3   OH233531   6.666   0.355  10.383 -0.6278  0.0444  0.7028
 4039TIP3    H133532   6.584   0.310  10.360 -0.3019 -0.3993  0.3975
 4039TIP3    H233533   6.732   0.313  10.329 -0.5629  2.0696 -0.9332
 4040TIP3   OH233534   5.870   2.508  10.515 -0.4320  0.0448 -0.3121
 4040TIP3    H133535   5.927   2.585  10.524 -0.3608 -0.1573  1.2219
 4040TIP3    H233536   5.782   2.545  10.506 -0.3416  0.3147 -0.0923
 4041TIP3   OH233537   3.726   3.057  11.063 -0.1556  0.2042  0.0051
 4041TIP3    H133538   3.782   3.111  11.120  1.9169 -2.0081  0.2252
 4041TIP3    H233539   3.697   2.985  11.120 -3.6558  1.3847 -0.0086
 4042TIP3   OH233540   7.143   5.422  11.820  0.2902 -0.1427 -0.3238
 4042TIP3    H133541   7.079   5.450  11.754 -0.8063  0.2273  0.8606
 4042TIP3    H233542   7.146   5.327  11.812 -0.5919 -0.1860 -0.2381
 4043TIP3   OH233543   2.459   2.208   0.583 -0.1975  0.0204  0.4185
 4043TIP3    H133544   2.384   2.242   0.633 -2.3161 -2.3078 -0.9412
 4043TIP3    H233545   2.451   2.113   0.590  2.2143 -0.3002 -0.4623
 4044TIP3   OH233546   1.339   4.859   9.276 -0.3140 -0.0079 -0.1461
 4044TIP3    H133547   1.390   4.791   9.232 -1.1449 -1.2154  0.6904
 4044TIP3    H233548   1.342   4.835   9.369  0.4447  1.8359  0.3555
 4045TIP3   OH233549   1.826   0.319  11.236 -0.3844 -0.4280  0.7130
 4045TIP3    H133550   1.829   0.336  11.142 -1.7099  0.4075  0.7964
 4045TIP3    H233551   1.830   0.223  11.243  1.1448 -0.4552 -0.0958
 4046TIP3   OH233552   4.466   0.306  13.652  0.0154  0.6022  0.2069
 4046TIP3    H133553   4.515   0.285  13.573 -2.4182 -0.8053 -1.0678
 4046TIP3    H233554   4.501   0.246  13.718  1.2868  0.9837 -0.0916
 4047TIP3   OH233555   2.655   5.542  11.142  0.2235 -0.4620 -0.4872
 4047TIP3    H133556   2.741   5.558  11.179 -0.2201  0.1122  0.3179
 4047TIP3    H233557   2.624   5.629  11.115 -0.5081 -0.5264  0.1338
 4048TIP3   OH233558   1.794   5.458  11.823  0.4570  0.4822 -0.3042
 4048TIP3    H133559   1.761   5.394  11.886  0.2844 -0.4178 -1.2887
 4048TIP3    H233560   1.741   5.445  11.745  1.4897  0.7287 -1.0652
 4049TIP3   OH233561   6.555   3.810  11.639  0.0977  0.0743  0.7397
 4049TIP3    H133562   6.479   3.863  11.615 -1.6352 -1.8786  1.6292
 4049TIP3    H233563   6.549   3.733  11.583  1.4326 -0.1287  0.8530
 4050TIP3   OH233564   0.693   6.299   9.982  0.0590 -0.6804  0.3416
 4050TIP3    H133565   0.787   6.278   9.977  0.1362 -0.5034  1.0511
 4050TIP3    H233566   0.652   6.234   9.925  0.4168 -2.0214  1.5614
 4051TIP3   OH233567   4.958   3.777   0.008 -0.5752  0.1851  1.2855
 4051TIP3    H133568   4.981   3.756   0.098  0.5506 -1.5166  0.6341
 4051TIP3    H233569   4.875   3.731  -0.007 -1.2026  1.1509  1.6771
 4052TIP3   OH233570   2.490   6.601   9.702 -0.7735  0.3947 -0.2257
 4052TIP3    H133571   2.426   6.671   9.715 -0.0702  1.0555 -0.2476
 4052TIP3    H233572   2.560   6.641   9.651 -0.1513 -0.2087  0.1309
 4053TIP3   OH233573   3.521   0.271  12.988 -0.0677  0.3104  0.9966
 4053TIP3    H133574   3.580   0.273  13.063 -1.0955  1.9828  1.8225
 4053TIP3    H233575   3.435   0.292  13.025 -0.4456  2.1228 -0.7556
 4054TIP3   OH233576   1.868   4.525  11.207  0.3694  0.1987 -0.0318
 4054TIP3    H133577   1.955   4.564  11.211 -0.0075  1.0637  0.1737
 4054TIP3    H233578   1.883   4.431  11.213  1.1931  0.3884  1.6719
 4055TIP3   OH233579   0.098   6.780  11.836  0.3276 -0.0125  0.7783
 4055TIP3    H133580   0.009   6.756  11.862  0.1689 -2.0808 -1.4109
 4055TIP3    H233581   0.088   6.865  11.792 -0.3105  0.4264  1.7288
 4056TIP3   OH233582   6.459   5.306   3.710  0.6823 -0.5675  0.2452
 4056TIP3    H133583   6.492   5.394   3.726  1.6267 -0.8466 -0.1040
 4056TIP3    H233584   6.433   5.274   3.797  0.7382 -0.1082  0.4323
 4057TIP3   OH233585   2.296   0.774   2.297  0.6405 -0.3205  0.2517
 4057TIP3    H133586   2.259   0.757   2.210  0.8451 -0.0024  0.1019
 4057TIP3    H233587   2.260   0.859   2.323 -0.4675 -1.0038  1.0514
 4058TIP3   OH233588   1.918   2.508   5.337 -0.7486  0.0684 -0.2482
 4058TIP3    H133589   1.937   2.516   5.430 -1.2343  1.2440 -0.2401
 4058TIP3    H233590   1.822   2.504   5.333 -0.7421  0.3536 -0.7147
 4059TIP3   OH233591   1.333   3.848  10.121 -0.8660  0.3863  0.1764
 4059TIP3    H133592   1.310   3.877  10.032 -2.0926  0.9506  0.6605
 4059TIP3    H233593   1.284   3.766  10.133 -1.5176  0.8446  0.6937
 4060TIP3   OH233594   1.794   0.966  12.527  0.2962 -0.7623 -0.1466
 4060TIP3    H133595   1.823   0.987  12.616  1.1443 -1.4465 -0.2482
 4060TIP3    H233596   1.701   0.989  12.526  0.4570 -0.0275  0.6819
 4061TIP3   OH233597   4.582   4.589  11.050 -0.6348  0.5528 -0.3057
 4061TIP3    H133598   4.653   4.629  11.000 -1.2631  0.9015 -0.9336
 4061TIP3    H233599   4.620   4.576  11.137  0.5349 -0.2529 -0.9009
 4062TIP3   OH233600   6.677   3.289   0.818 -0.3219  0.1250  0.0670
 4062TIP3    H133601   6.594   3.297   0.863 -0.2260 -1.6142  0.6493
 4062TIP3    H233602   6.655   3.249   0.734 -0.3084  1.8258 -0.7910
 4063TIP3   OH233603   3.130   4.578  10.557  0.0730  0.1862 -0.0512
 4063TIP3    H133604   3.129   4.528  10.639 -1.8799  0.1378 -0.0685
 4063TIP3    H233605   3.133   4.669  10.584  0.9641  0.1421  0.0274
 4064TIP3   OH233606   1.961   7.133   1.131  0.6020  0.1584  0.2108
 4064TIP3    H133607   2.029   7.185   1.088 -0.3235 -0.9560 -2.8685
 4064TIP3    H233608   2.007   7.060   1.171  1.3803  0.1930 -0.5985
 4065TIP3   OH233609   6.492   3.114  14.108  0.3103  0.6865  0.4109
 4065TIP3    H133610   6.529   3.061  14.178  0.2203  0.5541  0.3581
 4065TIP3    H233611   6.417   3.158  14.149  0.8649  1.4002  0.6736
 4066TIP3   OH233612   5.467   4.252  11.547  0.5947  0.1609  0.1670
 4066TIP3    H133613   5.534   4.288  11.604  0.4759  1.7180 -0.6182
 4066TIP3    H233614   5.468   4.309  11.469 -1.8885  0.5150  0.2949
 4067TIP3   OH233615   5.223   1.036  10.803 -0.1311 -0.4850  0.0039
 4067TIP3    H133616   5.220   0.945  10.833  2.2790 -1.2914 -1.9277
 4067TIP3    H233617   5.232   1.088  10.883 -1.4254 -1.8995  1.1292
 4068TIP3   OH233618   3.096   2.864  12.948 -0.0067 -0.4844 -0.1182
 4068TIP3    H133619   3.169   2.923  12.929 -1.8613  2.0053 -0.0201
 4068TIP3    H233620   3.113   2.835  13.038  0.0619  1.3852  0.5178
 4069TIP3   OH233621   6.501   7.035   9.388  0.5866  0.1930  0.0737
 4069TIP3    H133622   6.491   7.130   9.390  0.6654  0.2652 -1.4315
 4069TIP3    H233623   6.540   7.017   9.302  0.1342 -1.2342  0.1372
 4070TIP3   OH233624   1.869   6.112  12.199 -0.0397 -0.2069 -0.5755
 4070TIP3    H133625   1.814   6.035  12.213 -2.1135  1.3000  0.1267
 4070TIP3    H233626   1.951   6.092  12.246 -1.2412 -1.2596  1.1929
 4071TIP3   OH233627   5.408   0.266  15.312 -0.3424 -0.1653  0.0279
 4071TIP3    H133628   5.385   0.192  15.256  0.4977  0.0239 -0.5801
 4071TIP3    H233629   5.422   0.339  15.252  0.1349  0.1516  0.5127
 4072TIP3   OH233630   6.505   4.294  12.600 -0.2835 -0.3046 -0.1417
 4072TIP3    H133631   6.456   4.364  12.556  0.7909 -1.3622 -3.3040
 4072TIP3    H233632   6.571   4.339  12.653 -2.4710  1.0561  1.6022
 4073TIP3   OH233633   1.045   5.598  15.130 -0.1919  0.0603  0.5335
 4073TIP3    H133634   1.105   5.658  15.085 -0.5931 -0.0518 -0.1626
 4073TIP3    H233635   1.089   5.578  15.213  0.9697 -0.3861 -0.1618
 4074TIP3   OH233636   5.355   3.958  14.658  0.0631 -0.8339 -0.4866
 4074TIP3    H133637   5.389   4.042  14.691 -0.2449 -0.9744  0.2150
 4074TIP3    H233638   5.313   3.980  14.575  1.6823 -0.6201 -1.2879
 4075TIP3   OH233639   6.775   3.113  10.036  0.5227  0.2912  0.4430
 4075TIP3    H133640   6.773   3.138  10.129  3.8583  1.6389  0.3212
 4075TIP3    H233641   6.716   3.039  10.029 -0.4215  0.6329  3.4888
 4076TIP3   OH233642   1.336   6.162  12.500  0.2644 -0.2100  0.4834
 4076TIP3    H133643   1.278   6.232  12.531 -0.1890 -0.3622 -0.0137
 4076TIP3    H233644   1.277   6.093  12.472  0.7140 -0.8292  1.0372
 4077TIP3   OH233645   1.076   1.984  10.774 -0.4361 -0.5765  0.0294
 4077TIP3    H133646   1.056   2.077  10.773  0.5835 -0.3502 -0.2956
 4077TIP3    H233647   1.033   1.950  10.695  0.1784 -0.1589 -0.4921
 4078TIP3   OH233648   3.338   1.396   9.685  0.0326 -0.0019  0.3132
 4078TIP3    H133649   3.345   1.404   9.590  0.3704 -0.8324  0.2606
 4078TIP3    H233650   3.250   1.363   9.701  0.2967 -0.7590  0.2247
 4079TIP3   OH233651   5.509   0.515  11.153 -0.3651 -0.6100 -0.2633
 4079TIP3    H133652   5.584   0.473  11.196 -0.4107 -0.4444 -0.0218
 4079TIP3    H233653   5.506   0.474  11.067  0.3155 -0.2543 -0.4643
 4080TIP3   OH233654   1.451   2.550   0.027 -0.7099  0.4490  0.1914
 4080TIP3    H133655   1.530   2.592   0.061 -1.0165  0.5662  0.7781
 4080TIP3    H233656   1.428   2.602  -0.050 -0.3032  0.5074  0.1046
 4081TIP3   OH233657   1.170   1.398  12.316 -0.0859  0.3757  0.4208
 4081TIP3    H133658   1.138   1.488  12.309  1.4395  0.9185 -0.1445
 4081TIP3    H233659   1.132   1.365  12.397 -0.9101  1.4257  0.4891
 4082TIP3   OH233660   5.627   0.928   1.335 -0.3755 -0.1865  0.6002
 4082TIP3    H133661   5.636   0.847   1.285  0.9196 -1.0803  2.2172
 4082TIP3    H233662   5.713   0.969   1.330 -0.3700 -0.0549  1.6945
 4083TIP3   OH233663   0.662   2.436  13.631 -0.7342  0.3872  0.0354
 4083TIP3    H133664   0.670   2.413  13.724 -0.1398  0.2670 -0.0433
 4083TIP3    H233665   0.575   2.475  13.624 -1.5255 -1.2279  0.3021
 4084TIP3   OH233666   6.362   4.708   1.619  0.0187 -0.0225  0.3727
 4084TIP3    H133667   6.275   4.668   1.614 -0.1226  0.4501 -1.7611
 4084TIP3    H233668   6.347   4.800   1.595  1.0905  0.0953  0.1314
 4085TIP3   OH233669   6.619   2.638   0.529 -0.5028 -0.6305 -0.1861
 4085TIP3    H133670   6.671   2.718   0.534 -1.0482 -0.1949 -1.2378
 4085TIP3    H233671   6.529   2.667   0.543 -0.6100 -1.1962  0.3260
 4086TIP3   OH233672   4.795   2.746  11.622 -0.3220 -0.6373  0.2591
 4086TIP3    H133673   4.868   2.706  11.669 -1.5089 -1.3951  1.5357
 4086TIP3    H233674   4.829   2.830  11.592  1.0319 -0.9283  0.8967
 4087TIP3   OH233675   3.139   6.668  12.421 -0.5708 -0.2667 -0.0183
 4087TIP3    H133676   3.176   6.676  12.333 -0.8259  0.3140 -0.0773
 4087TIP3    H233677   3.184   6.592  12.459  0.3640  0.1619 -0.2442
 4088TIP3   OH233678   1.982   6.935  11.163 -0.2958 -0.0081 -0.2787
 4088TIP3    H133679   2.001   6.884  11.242  0.4974  1.1000  0.2676
 4088TIP3    H233680   2.068   6.953  11.126 -0.5648  0.8789 -0.4899
 4089TIP3   OH233681   5.273   1.189  11.043 -0.1455  0.0422 -0.0547
 4089TIP3    H133682   5.327   1.164  11.119  1.4134 -1.2587 -1.5158
 4089TIP3    H233683   5.314   1.268  11.009  0.0755 -0.2210 -0.4071
 4090TIP3   OH233684   5.319   4.127  11.199  0.2640  0.1592 -0.1338
 4090TIP3    H133685   5.361   4.125  11.112 -0.1096  1.1154 -0.3571
 4090TIP3    H233686   5.317   4.220  11.221 -0.7610  0.0244  0.3586
 4091TIP3   OH233687   2.334   5.966  11.696 -0.2720  0.9269  0.5300
 4091TIP3    H133688   2.337   5.900  11.765  0.2105  0.1934 -0.1725
 4091TIP3    H233689   2.422   6.004  11.694 -0.1894  0.7262  0.1247
 4092TIP3   OH233690   6.096   1.886  12.845  0.4992 -0.0239 -0.0358
 4092TIP3    H133691   6.031   1.879  12.775  1.4225 -0.8476 -0.8387
 4092TIP3    H233692   6.134   1.973  12.834  0.9101 -0.2965 -0.8096
 4093TIP3   OH233693   3.982   0.804  11.195  0.7415  0.1631  0.5072
 4093TIP3    H133694   4.013   0.794  11.106 -1.0316 -0.2562 -0.1030
 4093TIP3    H233695   3.917   0.734  11.207 -1.0251  1.8090  1.1798
 4094TIP3   OH233696   6.857   6.760  13.040 -0.2519  0.2540 -0.1192
 4094TIP3    H133697   6.809   6.778  12.960  0.7296  0.0658 -0.7754
 4094TIP3    H233698   6.847   6.666  13.054 -0.7950  0.3624  0.2316
 4095TIP3   OH233699   1.815   5.980  11.219  0.0289  0.4828  0.8073
 4095TIP3    H133700   1.816   5.970  11.123 -2.1543  1.1904  0.6398
 4095TIP3    H233701   1.904   5.960  11.246  0.3573 -1.3016 -1.2219
 4096TIP3   OH233702   3.285   6.962  10.499 -0.0668  0.0962  0.4296
 4096TIP3    H133703   3.234   7.027  10.452  0.4045  0.2092  0.0712
 4096TIP3    H233704   3.307   7.004  10.582  1.4276  0.9366 -0.3597
 4097TIP3   OH233705   2.611   2.016  12.151  0.9723 -0.3530  0.0846
 4097TIP3    H133706   2.516   2.004  12.158  0.9750  0.0589  0.8779
 4097TIP3    H233707   2.621   2.100  12.106  0.9685 -0.6555 -0.4955
 4098TIP3   OH233708   5.315   5.097  10.799 -0.7019 -0.3658  0.6056
 4098TIP3    H133709   5.242   5.109  10.738 -0.7696  1.3970  0.9745
 4098TIP3    H233710   5.391   5.131  10.753 -0.6257  0.3126  1.2087
 4099TIP3   OH233711   4.448   1.486  11.556 -0.2478 -0.5512  0.3411
 4099TIP3    H133712   4.493   1.562  11.592  1.5165 -1.0462 -0.6521
 4099TIP3    H233713   4.425   1.513  11.467  0.4813 -1.1750 -0.0516
 4100TIP3   OH233714   5.132   1.822  10.576 -0.2455  0.2180  0.1558
 4100TIP3    H133715   5.043   1.794  10.554 -0.3489  1.4875 -1.1591
 4100TIP3    H233716   5.188   1.767  10.521 -0.1925 -0.6323  1.0374
 4101TIP3   OH233717   2.969   0.925  10.719  0.0021  0.3122 -0.2823
 4101TIP3    H133718   2.874   0.935  10.722 -0.1507 -0.2989 -1.9288
 4101TIP3    H233719   2.986   0.842  10.764 -0.3736 -0.1352 -0.9474
 4102TIP3   OH233720   3.545   0.561  12.667 -0.1675 -0.1541 -0.6029
 4102TIP3    H133721   3.461   0.595  12.698  0.4272 -0.8560  2.0800
 4102TIP3    H233722   3.552   0.475  12.709  3.0103  0.9765  1.5873
 4103TIP3   OH233723   4.585   0.142   0.475  0.4828  0.1228  0.3959
 4103TIP3    H133724   4.509   0.097   0.513  1.2382 -1.1424  0.4727
 4103TIP3    H233725   4.649   0.072   0.460  1.5761  1.1361  0.1819
 4104TIP3   OH233726   3.309   0.322   0.071  0.5722 -0.2314 -0.1008
 4104TIP3    H133727   3.245   0.347   0.137  1.0466 -4.4432  2.2589
 4104TIP3    H233728   3.394   0.340   0.112  0.8915 -0.2792 -0.7278
 4105TIP3   OH233729   6.213   3.421  15.190  0.0108 -0.3330  0.4661
 4105TIP3    H133730   6.220   3.333  15.226 -0.7486 -0.3510  0.5986
 4105TIP3    H233731   6.286   3.428  15.128 -1.6115 -2.1681 -1.8445
 4106TIP3   OH233732   3.247   4.598   9.477 -0.3676  0.1306  0.1726
 4106TIP3    H133733   3.258   4.658   9.550  0.1793 -0.5141  0.6250
 4106TIP3    H233734   3.247   4.654   9.399 -2.3453  0.9824  0.7266
 4107TIP3   OH233735   3.014   4.396   2.468  0.2657  0.7239  0.3393
 4107TIP3    H133736   3.058   4.314   2.447  1.4130  0.9036  1.8729
 4107TIP3    H233737   3.041   4.415   2.558 -1.3018  1.9350  0.5969
 4108TIP3   OH233738   6.377   5.246  12.321  0.4085 -0.1290  0.8223
 4108TIP3    H133739   6.381   5.312  12.252  0.5138 -2.2474 -1.3211
 4108TIP3    H233740   6.465   5.245  12.359  0.6506  0.3609  0.2898
 4109TIP3   OH233741   3.283   4.811  10.774 -0.1620  0.3436  0.8415
 4109TIP3    H133742   3.252   4.720  10.769  1.7419 -0.3289  0.1763
 4109TIP3    H233743   3.315   4.820  10.864  0.6666 -0.0382  0.5995
 4110TIP3   OH233744   1.056   2.444  12.459  0.8272 -0.7478  0.5288
 4110TIP3    H133745   1.131   2.438  12.518  1.9180 -0.7051 -0.8069
 4110TIP3    H233746   0.985   2.399  12.505  1.5782 -0.5195  1.9458
 4111TIP3   OH233747   5.442   5.982   0.601  0.3093  0.3408  0.5218
 4111TIP3    H133748   5.420   6.073   0.620  0.4243  0.1378  1.7512
 4111TIP3    H233749   5.530   5.971   0.638  1.1588  0.2568 -1.4192
 4112TIP3   OH233750   3.323   2.135  11.773  0.0520  0.1964  0.0801
 4112TIP3    H133751   3.341   2.106  11.862 -0.3921  0.5866  0.2972
 4112TIP3    H233752   3.378   2.212  11.760 -0.2327  0.4188  0.1817
 4113TIP3   OH233753   3.657   1.966  11.545 -0.4943  0.0425 -0.2481
 4113TIP3    H133754   3.641   1.966  11.639 -2.2710 -0.8071 -0.4900
 4113TIP3    H233755   3.642   1.875  11.518 -0.0256  0.2711 -1.3472
 4114TIP3   OH233756   0.063   7.067  12.684  0.4340 -0.3384  0.3307
 4114TIP3    H133757   0.021   7.010  12.747  0.5239 -0.1452  0.5679
 4114TIP3    H233758   0.127   7.117  12.735 -0.0453  0.3868  0.2432
 4115TIP3   OH233759   1.839   2.368  14.573  0.1227  0.5488  0.0646
 4115TIP3    H133760   1.930   2.374  14.546  0.0982  0.7011  0.0119
 4115TIP3    H233761   1.838   2.303  14.644 -0.2832 -2.3509 -2.3959
 4116TIP3   OH233762   1.402   0.792   2.038 -0.5067  0.0845 -0.5214
 4116TIP3    H133763   1.352   0.778   1.958 -0.2244  2.0032 -1.0857
 4116TIP3    H233764   1.482   0.836   2.009 -0.5033  1.0354  0.8118
 4117TIP3   OH233765   0.084   6.202  11.243  0.4824 -0.2404 -0.0593
 4117TIP3    H133766   0.128   6.286  11.229  1.9651 -1.1895 -1.4738
 4117TIP3    H233767  -0.003   6.225  11.276  0.7446  1.8608 -0.7058
 4118TIP3   OH233768   4.123   4.979  11.875 -0.1945  0.4795 -0.2983
 4118TIP3    H133769   4.158   4.894  11.902 -0.6703  0.0858 -0.8886
 4118TIP3    H233770   4.141   5.037  11.949 -0.7674 -0.3772  0.5534
 4119TIP3   OH233771   2.789   5.681  14.557 -0.4601 -0.4175  0.0915
 4119TIP3    H133772   2.816   5.593  14.529 -1.4713 -0.2252 -1.6158
 4119TIP3    H233773   2.754   5.668  14.646 -0.6086 -1.7469 -0.1353
 4120TIP3   OH233774   0.325   5.963  10.101  0.2423 -0.1405 -0.5769
 4120TIP3    H133775   0.285   5.878  10.082  1.1186 -0.7019  0.0717
 4120TIP3    H233776   0.336   6.003  10.015  0.4057 -0.9430 -0.9382
 4121TIP3   OH233777   0.258   4.672   1.258 -0.0819  0.4210  0.3550
 4121TIP3    H133778   0.316   4.698   1.186  0.1539 -1.3876 -0.1665
 4121TIP3    H233779   0.176   4.718   1.240 -0.7304 -1.4788 -2.2999
 4122TIP3   OH233780   6.787   1.546   1.905 -0.4774 -0.3602 -0.0475
 4122TIP3    H133781   6.852   1.593   1.958 -0.0597 -1.8433  0.8266
 4122TIP3    H233782   6.703   1.581   1.934 -0.1631  0.1356  0.2874
 4123TIP3   OH233783   7.101   0.244   9.885 -0.5249 -0.1559  0.6931
 4123TIP3    H133784   7.091   0.203   9.800 -0.1084  2.3701 -0.6660
 4123TIP3    H233785   7.033   0.311   9.889 -0.8076 -0.4943  2.5389
 4124TIP3   OH233786   6.546   6.243  14.955 -0.1160  1.2881 -0.5360
 4124TIP3    H133787   6.557   6.245  15.050 -0.3614  0.3463 -0.4794
 4124TIP3    H233788   6.549   6.335  14.928  0.8254  1.5003  0.2772
 4125TIP3   OH233789   0.379   0.267   1.334 -0.0420 -0.3949 -0.4195
 4125TIP3    H133790   0.317   0.291   1.403  1.9928  0.4727  1.2164
 4125TIP3    H233791   0.343   0.188   1.295 -0.9408 -1.3272  2.1128
 4126TIP3   OH233792   3.439   1.962   5.462  0.0145 -0.2357 -0.0098
 4126TIP3    H133793   3.420   1.914   5.381 -1.9477 -1.2911  1.0133
 4126TIP3    H233794   3.354   1.973   5.504  1.1510 -1.5609  2.9043
 4127TIP3   OH233795   0.146   3.724  10.893  0.5962  0.4416  0.0817
 4127TIP3    H133796   0.208   3.785  10.933 -0.4798  1.5853  0.0725
 4127TIP3    H233797   0.156   3.740  10.799  0.0267  0.9319  0.0930
 4128TIP3   OH233798   4.843   3.373   9.798 -0.1101 -0.2779 -0.2104
 4128TIP3    H133799   4.856   3.284   9.829 -3.7609 -1.1136 -0.6436
 4128TIP3    H233800   4.813   3.421   9.876 -1.0328 -0.2293 -0.5800
 4129TIP3   OH233801   0.796   6.085  13.735  0.1416 -0.0993 -0.1528
 4129TIP3    H133802   0.715   6.045  13.704  0.7614 -1.4770 -0.0514
 4129TIP3    H233803   0.769   6.171  13.768 -1.0498  0.0321 -1.3987
 4130TIP3   OH233804   3.071   3.982   0.750  0.5268  0.1510  0.4794
 4130TIP3    H133805   3.157   3.946   0.727  0.5353 -0.1128  0.9207
 4130TIP3    H233806   3.009   3.928   0.702  0.6888  1.9904 -2.0236
 4131TIP3   OH233807   3.206   6.958  14.574  0.5052  0.2636  0.2293
 4131TIP3    H133808   3.263   6.909  14.514 -0.2419 -0.3748  0.0288
 4131TIP3    H233809   3.149   7.010  14.517 -0.8612 -1.0688  0.3161
 4132TIP3   OH233810   1.062   1.316  12.572  0.2123 -0.3651  0.2017
 4132TIP3    H133811   1.129   1.259  12.609 -1.0449 -1.4193  0.9307
 4132TIP3    H233812   0.992   1.317  12.638 -0.5301  0.6283 -0.5722
 4133TIP3   OH233813   0.379   3.667  12.105  0.0730  0.2793  0.6420
 4133TIP3    H133814   0.457   3.681  12.159 -0.1063  2.1420  0.4573
 4133TIP3    H233815   0.306   3.678  12.166 -0.0928  0.3022  0.4376
 4134TIP3   OH233816   5.544   1.267  10.349  0.0974  0.6604  0.1308
 4134TIP3    H133817   5.496   1.253  10.268  0.5386  2.2790 -0.4462
 4134TIP3    H233818   5.492   1.331  10.397  0.3388  0.4392  0.6893
 4135TIP3   OH233819   4.168   6.407  14.478 -0.1691  0.5800 -0.0097
 4135TIP3    H133820   4.164   6.470  14.550 -2.4630  1.3780 -0.7722
 4135TIP3    H233821   4.150   6.322  14.519  1.8099  0.4979  0.8305
 4136TIP3   OH233822   3.165   3.273   1.944 -1.0719 -0.2041  0.4271
 4136TIP3    H133823   3.087   3.225   1.915 -1.6778  0.9868  0.0242
 4136TIP3    H233824   3.172   3.346   1.883 -0.0864  0.1535  0.9479
 4137TIP3   OH233825   4.872   0.130   2.619 -0.0572 -0.5349  0.4258
 4137TIP3    H133826   4.899   0.139   2.528  2.2967 -1.0123  1.0174
 4137TIP3    H233827   4.847   0.038   2.628  0.0402 -0.5684  0.3464
 4138TIP3   OH233828   6.753   1.481  11.773 -0.2216  0.2179  0.4774
 4138TIP3    H133829   6.736   1.411  11.837 -1.3994  0.3102  0.2886
 4138TIP3    H233830   6.848   1.482  11.764 -0.0064  0.2510  2.2890
 4139TIP3   OH233831   2.516   1.478  12.451  0.5551 -0.4165 -0.3571
 4139TIP3    H133832   2.537   1.410  12.386  1.6413 -0.2238 -0.2237
 4139TIP3    H233833   2.595   1.485  12.504 -0.3498 -0.6494  1.0769
 4140TIP3   OH233834   4.950   3.340  13.135 -0.3056  0.6425 -0.2454
 4140TIP3    H133835   4.939   3.252  13.097  1.1203  0.5202 -0.4374
 4140TIP3    H233836   4.957   3.324  13.229  1.6987  0.3102 -0.3996
 4141TIP3   OH233837   6.577   0.042   4.016 -0.1580 -0.1364  0.2609
 4141TIP3    H133838   6.648   0.099   4.047  1.9513 -1.3499 -1.9993
 4141TIP3    H233839   6.614  -0.046   4.018 -2.2022 -1.0415  0.5271
 4142TIP3   OH233840   6.919   6.537   4.886 -0.0826 -0.5926 -0.2883
 4142TIP3    H133841   6.942   6.494   4.804 -0.1549 -0.7382 -0.2345
 4142TIP3    H233842   6.839   6.491   4.915  0.1726 -0.8223  0.0682
 4143TIP3   OH233843   6.260   3.922   1.360 -0.1368 -0.3203 -0.3098
 4143TIP3    H133844   6.329   3.884   1.306  1.1917 -1.1385  1.8434
 4143TIP3    H233845   6.180   3.911   1.309  1.0938 -0.7248 -2.2171
 4144TIP3   OH233846   1.958   3.915  12.319 -0.4163 -0.3329 -0.1841
 4144TIP3    H133847   2.019   3.931  12.247 -0.3094  1.3101  0.2241
 4144TIP3    H233848   1.931   4.003  12.346 -2.8659 -0.9924 -0.2577
 4145TIP3   OH233849   1.205   5.278  14.577 -0.5256 -0.0662 -0.3961
 4145TIP3    H133850   1.190   5.183  14.582 -0.5935 -0.0516 -0.3325
 4145TIP3    H233851   1.231   5.303  14.665 -2.3539  0.2881  0.0933
 4146TIP3   OH233852   6.599   4.802   5.333 -0.6736  0.0989 -0.2115
 4146TIP3    H133853   6.573   4.792   5.424  0.6414 -2.5215 -0.0433
 4146TIP3    H233854   6.672   4.863   5.335 -0.1203 -0.5719  0.6221
 4147TIP3   OH233855   3.620   2.791  11.092 -0.9622  0.8747  0.1380
 4147TIP3    H133856   3.654   2.707  11.123  0.9727  1.0005 -1.4514
 4147TIP3    H233857   3.525   2.784  11.102 -0.7890 -1.2123  0.7316
 4148TIP3   OH233858   3.810   5.441  11.389 -0.1851  0.1209  0.2453
 4148TIP3    H133859   3.897   5.476  11.405  0.4147 -0.5596 -1.2641
 4148TIP3    H233860   3.791   5.464  11.298 -0.9492 -1.0009  0.0958
 4149TIP3   OH233861   3.809   2.669  14.832  0.3069 -0.0359  0.9382
 4149TIP3    H133862   3.807   2.694  14.924 -0.9224  1.1617  0.6318
 4149TIP3    H233863   3.816   2.574  14.832  1.6400  0.0271  2.2331
 4150TIP3   OH233864   4.044   3.392  12.518 -0.2582 -0.4493 -0.0173
 4150TIP3    H133865   4.036   3.481  12.552 -0.8537 -1.0993  1.6173
 4150TIP3    H233866   4.117   3.397  12.455 -0.1697  1.1350  0.1710
 4151TIP3   OH233867   5.747   2.933   1.242 -0.8887  0.4728 -0.2356
 4151TIP3    H133868   5.832   2.903   1.275 -0.6190  2.1784  0.6857
 4151TIP3    H233869   5.685   2.910   1.312 -1.1186 -0.2352 -0.6552
 4152TIP3   OH233870   2.894   4.958   3.864 -0.0411 -0.1082 -0.0814
 4152TIP3    H133871   2.936   4.900   3.801 -0.1470 -1.9184  1.4464
 4152TIP3    H233872   2.820   4.908   3.897 -0.8465  1.3734  0.4424
 4153TIP3   OH233873   3.630   6.725  11.114  0.7422  0.1599 -0.5088
 4153TIP3    H133874   3.591   6.671  11.183 -3.1603  1.4823 -1.4786
 4153TIP3    H233875   3.708   6.763  11.156 -1.2099  0.6221  3.1249
 4154TIP3   OH233876   1.113   1.319  11.518 -0.5611  0.5486 -0.5264
 4154TIP3    H133877   1.157   1.316  11.433 -0.7845  0.6751 -0.6485
 4154TIP3    H233878   1.182   1.305  11.582 -0.3098  0.9742 -0.7058
 4155TIP3   OH233879   5.145   3.409   5.531 -0.1165 -0.4022 -0.7192
 4155TIP3    H133880   5.082   3.337   5.541 -0.3762 -0.0165  0.6067
 4155TIP3    H233881   5.224   3.367   5.495 -0.7289 -1.0903 -1.2877
 4156TIP3   OH233882   1.849   0.399   0.700  0.5559 -0.4919  0.2477
 4156TIP3    H133883   1.882   0.357   0.621  0.7652  0.0594  0.0372
 4156TIP3    H233884   1.771   0.447   0.670  1.1585  0.4828  0.1664
 4157TIP3   OH233885   6.823   3.649  13.074  0.1242  0.1465 -0.2129
 4157TIP3    H133886   6.864   3.728  13.036 -1.8703  0.8579 -1.0232
 4157TIP3    H233887   6.757   3.683  13.134 -0.5193 -0.9054 -0.3020
 4158TIP3   OH233888   0.307   1.271  10.515 -0.0198  0.5736 -0.0956
 4158TIP3    H133889   0.262   1.281  10.432  0.2766  2.2545 -0.1006
 4158TIP3    H233890   0.333   1.360  10.539  1.4942 -0.0910  0.9033
 4159TIP3   OH233891   5.780   5.022   3.050  0.5145 -0.0325  0.0332
 4159TIP3    H133892   5.750   4.957   2.986  0.7122  0.2097 -0.3072
 4159TIP3    H233893   5.791   5.102   2.999  0.0518  0.3291  0.4960
 4160TIP3   OH233894   1.654   5.162  11.540  0.0661  0.0146  0.1527
 4160TIP3    H133895   1.745   5.190  11.546 -0.4002  2.1334 -1.5959
 4160TIP3    H233896   1.612   5.202  11.616  0.1409  0.9829 -0.3122
 4161TIP3   OH233897   1.559   2.775   1.620 -0.3631  0.0833  0.0007
 4161TIP3    H133898   1.483   2.819   1.584 -0.9319  1.3845  2.5229
 4161TIP3    H233899   1.613   2.845   1.657  1.8884 -0.8361 -1.3050
 4162TIP3   OH233900   5.504   4.472  10.499 -0.2163  0.5540 -0.1597
 4162TIP3    H133901   5.534   4.529  10.570  1.1406  2.3809 -2.1204
 4162TIP3    H233902   5.410   4.486  10.496  0.0236  2.3580 -0.2746
 4163TIP3   OH233903   4.701   5.436  10.142 -0.5425  0.0443 -0.4492
 4163TIP3    H133904   4.730   5.518  10.101 -1.7817  1.1284  0.7116
 4163TIP3    H233905   4.628   5.407  10.088  0.0092 -0.4071 -0.9624
 4164TIP3   OH233906   3.806   5.913  10.802 -0.1192  1.3103  0.5173
 4164TIP3    H133907   3.818   5.935  10.894  0.1943  0.3850  0.7140
 4164TIP3    H233908   3.761   5.828  10.804 -1.6289  2.0586 -0.1978
 4165TIP3   OH233909   3.399   3.161   4.834 -0.3070 -0.0974  0.0950
 4165TIP3    H133910   3.307   3.167   4.810 -0.7016  0.7837  1.6588
 4165TIP3    H233911   3.405   3.080   4.885 -0.3237  0.0987  0.4101
 4166TIP3   OH233912   3.519   4.699   2.678 -0.3003 -0.5673  0.3112
 4166TIP3    H133913   3.481   4.640   2.743 -2.7835  0.5334 -0.0150
 4166TIP3    H233914   3.582   4.751   2.727 -1.2693 -0.5530  1.5943
 4167TIP3   OH233915   5.831   0.337  10.900  0.1872 -0.2646 -0.1476
 4167TIP3    H133916   5.798   0.415  10.944  1.6014 -0.2869  1.0037
 4167TIP3    H233917   5.795   0.264  10.950 -2.1383 -0.4586 -1.9351
 4168TIP3   OH233918   6.880   0.434   0.745  0.0580  0.8498  0.3605
 4168TIP3    H133919   6.857   0.386   0.824  3.0740  1.4666  1.7583
 4168TIP3    H233920   6.866   0.372   0.674 -0.1972 -0.6299  1.6497
 4169TIP3   OH233921   4.503   2.169  10.180  0.4842  0.0977  0.1416
 4169TIP3    H133922   4.562   2.097  10.206  0.8222  0.1406 -0.4753
 4169TIP3    H233923   4.445   2.129  10.116  0.6308  0.3572 -0.1534
 4170TIP3   OH233924   4.441   3.982  13.429  0.1477  0.0766 -0.4359
 4170TIP3    H133925   4.443   3.924  13.353 -2.0941  1.1915 -1.4471
 4170TIP3    H233926   4.420   3.923  13.502  0.1799 -0.7174 -1.0475
 4171TIP3   OH233927   0.173   2.175  13.839  0.2412 -0.4821 -0.2651
 4171TIP3    H133928   0.126   2.221  13.769  1.7692  0.1194 -0.9534
 4171TIP3    H233929   0.225   2.244  13.881  1.1032 -1.2529 -0.0569
 4172TIP3   OH233930   2.083   2.169  11.604  0.3320  0.1554  0.5436
 4172TIP3    H133931   2.169   2.180  11.562 -0.1609 -1.7000 -1.1275
 4172TIP3    H233932   2.023   2.219  11.550  0.4471  2.6723  2.5351
 4173TIP3   OH233933   5.662   0.130  11.592 -0.3162 -0.1728 -0.1431
 4173TIP3    H133934   5.677   0.224  11.583  0.6577 -0.3969 -0.9617
 4173TIP3    H233935   5.656   0.098  11.502 -0.5704 -0.9175  0.1297
 4174TIP3   OH233936   4.501   6.673  13.751 -0.5313  0.4306  0.1180
 4174TIP3    H133937   4.463   6.669  13.838 -0.6422  0.3620  0.0669
 4174TIP3    H233938   4.429   6.702  13.695 -0.6923 -0.3393 -0.0840
 4175TIP3   OH233939   2.230   5.416  11.111  0.3840  0.1294 -0.4289
 4175TIP3    H133940   2.282   5.469  11.051 -0.4842  0.7223 -0.6878
 4175TIP3    H233941   2.237   5.462  11.195  0.5625  0.0120 -0.3799
 4176TIP3   OH233942   7.035   2.119   3.943 -0.8460  0.5354  0.1844
 4176TIP3    H133943   7.044   2.214   3.931  2.0753  0.2588 -0.7143
 4176TIP3    H233944   6.997   2.109   4.030 -1.0925  2.5250  0.3487
 4177TIP3   OH233945   5.436   5.385  14.700 -0.8867 -0.6701 -0.4508
 4177TIP3    H133946   5.461   5.296  14.727  2.5093 -0.2483 -1.6400
 4177TIP3    H233947   5.464   5.441  14.772  0.3331 -0.3133 -1.1640
 4178TIP3   OH233948   1.868   0.260   1.144 -0.5068  0.2314 -0.0640
 4178TIP3    H133949   1.864   0.194   1.074 -1.2537 -0.0192  0.2109
 4178TIP3    H233950   1.949   0.239   1.191 -1.0537 -0.8864  0.4086
 4179TIP3   OH233951   2.108   5.191   1.174  0.4992  0.1329  0.1004
 4179TIP3    H133952   2.168   5.117   1.159 -0.4106 -0.3956 -1.1228
 4179TIP3    H233953   2.050   5.160   1.243  0.3495 -0.1629 -0.1530
 4180TIP3   OH233954   6.351   3.900   0.692  0.3971  0.1078  0.0012
 4180TIP3    H133955   6.424   3.839   0.679  2.0630  1.7400  1.2248
 4180TIP3    H233956   6.322   3.922   0.604  0.0626 -2.0341 -0.4753
 4181TIP3   OH233957   1.119   4.188  12.437 -0.2460  0.2228 -0.1593
 4181TIP3    H133958   1.079   4.172  12.522  0.0542  0.4823  0.0315
 4181TIP3    H233959   1.057   4.245  12.391 -0.6164 -0.2678 -0.2859
 4182TIP3   OH233960   0.139   3.226  14.218 -0.0658 -0.6667  0.0025
 4182TIP3    H133961   0.108   3.220  14.127  0.1631  2.2220 -0.3498
 4182TIP3    H233962   0.174   3.314  14.226 -0.6017 -0.6100  3.0903
 4183TIP3   OH233963   2.618   6.075  13.061  0.0495 -0.3396  0.5790
 4183TIP3    H133964   2.583   6.028  13.137  2.0432  0.8323  2.3619
 4183TIP3    H233965   2.573   6.159  13.062  0.9125  0.1371  1.2492
 4184TIP3   OH233966   4.251   4.767  12.015 -0.6864 -0.1390 -0.0859
 4184TIP3    H133967   4.307   4.840  11.990 -0.6726  0.0357  0.4515
 4184TIP3    H233968   4.252   4.767  12.111 -0.0098 -1.3621 -0.0672
 4185TIP3   OH233969   5.926   6.101  13.921 -0.1125 -0.2675 -0.0660
 4185TIP3    H133970   5.847   6.092  13.868 -0.6350 -1.5353  0.8818
 4185TIP3    H233971   5.977   6.023  13.902 -0.7087 -1.1880  1.8812
 4186TIP3   OH233972   0.985   3.624   0.108  0.7612  0.6390 -0.0280
 4186TIP3    H133973   0.923   3.553   0.125  0.3281  1.2273  0.9754
 4186TIP3    H233974   1.052   3.614   0.176  1.0378  0.7952 -0.2793
 4187TIP3   OH233975   2.049   3.836  15.113  0.1088  0.2925  0.0091
 4187TIP3    H133976   2.010   3.755  15.146  0.9569 -0.9770 -1.8932
 4187TIP3    H233977   1.993   3.905  15.147 -2.8128 -1.3205 -1.1061
 4188TIP3   OH233978   1.847   5.124   2.969 -0.1194  0.1965  0.5085
 4188TIP3    H133979   1.802   5.105   3.051  0.8167  0.8344  1.1906
 4188TIP3    H233980   1.804   5.202   2.935 -1.8451 -1.1976 -0.6693
 4189TIP3   OH233981   2.058   0.901  12.455 -0.1542  0.6837 -0.4316
 4189TIP3    H133982   1.972   0.914  12.495  0.4305  1.5560  0.5882
 4189TIP3    H233983   2.071   0.978  12.400 -0.3785  0.1337 -1.2761
 4190TIP3   OH233984   5.182   2.490   4.780 -0.2983 -0.3159 -0.7140
 4190TIP3    H133985   5.089   2.469   4.792  0.0880 -1.2063  1.0648
 4190TIP3    H233986   5.204   2.546   4.855  1.2393 -2.4580  0.5414
 4191TIP3   OH233987   6.358   3.774  10.687 -0.2623  0.5445 -0.0083
 4191TIP3    H133988   6.394   3.687  10.707 -1.5682 -0.2756 -1.0667
 4191TIP3    H233989   6.341   3.813  10.773  1.0249  0.0693  0.4859
 4192TIP3   OH233990   1.320   6.876  11.270  0.2567  0.3246 -0.2054
 4192TIP3    H133991   1.248   6.921  11.315 -0.6316  0.1487 -1.3920
 4192TIP3    H233992   1.283   6.791  11.245  0.6994  0.4292 -1.2742
 4193TIP3   OH233993   6.771   0.128  12.129 -0.0446 -0.4713 -0.3934
 4193TIP3    H133994   6.708   0.142  12.200 -0.2527 -0.7913 -0.5163
 4193TIP3    H233995   6.724   0.076  12.064 -0.5575  1.5610 -1.7500
 4194TIP3   OH233996   2.540   1.573  15.118  0.0928 -0.0169 -0.2443
 4194TIP3    H133997   2.535   1.487  15.075 -0.3742  0.2296 -0.6930
 4194TIP3    H233998   2.598   1.559  15.193  1.0148 -0.4296 -1.0113
 4195TIP3   OH233999   5.441   0.801   1.963 -0.2539  0.4394  0.2035
 4195TIP3    H134000   5.424   0.864   1.893  0.8334  2.0949  1.3581
 4195TIP3    H234001   5.531   0.773   1.949 -1.5300 -3.1991 -1.9869
 4196TIP3   OH234002   5.101   1.373   1.938  0.5915 -0.1594 -0.3240
 4196TIP3    H134003   5.084   1.279   1.948  1.2225 -0.1230  1.4995
 4196TIP3    H234004   5.197   1.380   1.935  0.5404  0.3561 -1.6954
 4197TIP3   OH234005   5.813   3.405  11.567  0.3210 -0.7651  0.0587
 4197TIP3    H134006   5.902   3.387  11.535 -0.1830  0.0830 -1.9714
 4197TIP3    H234007   5.757   3.351  11.511 -0.6161  0.7992 -0.5571
 4198TIP3   OH234008   4.110   6.344  12.285  0.4042  0.2379 -0.0382
 4198TIP3    H134009   4.128   6.341  12.379  4.0122  1.2825 -0.5459
 4198TIP3    H234010   4.055   6.267  12.269 -0.4814  0.1344  2.8930
 4199TIP3   OH234011   0.622   3.565  14.763  0.6855 -0.2387 -0.2680
 4199TIP3    H134012   0.643   3.544  14.672  0.4272  1.9912 -0.8996
 4199TIP3    H234013   0.665   3.649  14.779  0.1313 -0.2472  1.4525
 4200TIP3   OH234014   4.674   5.116  12.250 -0.0189 -0.0127 -0.3663
 4200TIP3    H134015   4.631   5.034  12.275 -1.7073  0.6813 -0.8076
 4200TIP3    H234016   4.602   5.173  12.223  0.9125  2.1572  1.4129
 4201TIP3   OH234017   0.368   5.189  15.307  0.5021  0.3408  0.3121
 4201TIP3    H134018   0.340   5.263  15.253 -2.5435 -1.1625 -0.3355
 4201TIP3    H234019   0.409   5.129  15.245  1.3397  0.6609  0.5383
 4202TIP3   OH234020   0.997   5.084  11.393 -0.4298 -0.2314 -0.0469
 4202TIP3    H134021   0.961   5.019  11.453 -0.6824  3.5061  4.4903
 4202TIP3    H234022   0.925   5.146  11.380  1.0986  1.6112 -0.0803
 4203TIP3   OH234023   0.444   2.496  10.096 -0.2715  0.0165 -0.1710
 4203TIP3    H134024   0.512   2.439  10.059 -0.0055 -0.1285  0.5133
 4203TIP3    H234025   0.482   2.527  10.179 -0.9900  0.0300  0.1590
 4204TIP3   OH234026   1.832   6.774  10.954  0.0061  0.3064 -0.1129
 4204TIP3    H134027   1.887   6.736  11.021 -0.6634 -0.8432 -0.1934
 4204TIP3    H234028   1.885   6.845  10.917  0.8888  0.0987  0.7078
 4205TIP3   OH234029   0.252   4.467  13.178 -0.3169  0.6703  0.2645
 4205TIP3    H134030   0.220   4.377  13.172  0.5449  0.2287  1.8318
 4205TIP3    H234031   0.232   4.505  13.092 -1.0095 -0.8955 -0.3080
 4206TIP3   OH234032   0.554   3.648  11.044  0.0031 -0.2026  0.4952
 4206TIP3    H134033   0.616   3.697  11.097 -0.0311 -1.2665  1.5531
 4206TIP3    H234034   0.490   3.713  11.016 -0.4518  0.2559  2.4599
 4207TIP3   OH234035   4.734   2.029   9.943  0.2331  0.2362  0.0395
 4207TIP3    H134036   4.677   2.100   9.914  1.3680  1.2698  0.2375
 4207TIP3    H234037   4.818   2.048   9.902  1.2836  0.5096  2.1458
 4208TIP3   OH234038   3.355   1.670  15.076 -0.8782 -0.1534 -0.1800
 4208TIP3    H134039   3.263   1.683  15.098 -1.0884 -0.8177 -0.6389
 4208TIP3    H234040   3.401   1.671  15.160 -1.4824 -1.2484  0.1735
 4209TIP3   OH234041   6.368   0.077  11.072 -0.1179  0.1964  0.0227
 4209TIP3    H134042   6.367   0.040  10.984  0.5037 -1.5507  0.7152
 4209TIP3    H234043   6.432   0.025  11.120 -0.3944  1.1451  1.5098
 4210TIP3   OH234044   4.755   3.055  13.619  0.0843  0.9168 -0.0823
 4210TIP3    H134045   4.716   3.005  13.690  0.6694 -1.4877 -1.3404
 4210TIP3    H234046   4.789   3.134  13.660  2.8713 -1.5889  2.8868
 4211TIP3   OH234047   4.735   2.501   2.821  0.5656  0.1702 -0.1998
 4211TIP3    H134048   4.751   2.500   2.916 -0.6486  1.9612  0.0765
 4211TIP3    H234049   4.818   2.474   2.782  0.8539 -1.4001  1.3806
 4212TIP3   OH234050   1.838   4.561  13.145 -0.2945  0.4775  0.1501
 4212TIP3    H134051   1.920   4.533  13.104 -0.3758  0.7953 -0.2301
 4212TIP3    H234052   1.786   4.596  13.073 -1.0017 -0.2516  0.2938
 4213TIP3   OH234053   4.043   4.722  11.115  0.0934 -0.5010  0.2044
 4213TIP3    H134054   4.129   4.729  11.156  0.6971 -1.7959 -0.7573
 4213TIP3    H234055   4.051   4.648  11.055 -1.5452 -0.3228 -0.2909
 4214TIP3   OH234056   4.634   6.888  11.877  0.6530 -0.4443 -0.3035
 4214TIP3    H134057   4.637   6.904  11.971  1.1135  1.4414 -0.6070
 4214TIP3    H234058   4.710   6.832  11.859  0.7790 -0.4990  0.3819
 4215TIP3   OH234059   2.484   0.177   4.495  0.3027  0.2525  0.4126
 4215TIP3    H134060   2.425   0.145   4.564 -0.3807 -0.9284 -0.6878
 4215TIP3    H234061   2.535   0.100   4.469  3.5522  1.5086  2.3926
 4216TIP3   OH234062   2.056   6.480  12.107 -0.1754 -0.2881  0.2692
 4216TIP3    H134063   1.968   6.461  12.141  0.0659 -0.8414  0.5999
 4216TIP3    H234064   2.045   6.480  12.012 -0.5638 -0.2137  0.3120
 4217TIP3   OH234065   2.050   6.861  12.952  0.0542  0.1755  0.0947
 4217TIP3    H134066   1.955   6.866  12.948  0.0387 -0.2993 -0.3520
 4217TIP3    H234067   2.069   6.767  12.946  0.6114  0.3695 -1.8607
 4218TIP3   OH234068   1.594   1.120  10.513  0.2293  0.4061  0.4402
 4218TIP3    H134069   1.631   1.056  10.574  1.6366  0.9259  0.1761
 4218TIP3    H234070   1.501   1.096  10.506  0.9371 -2.4818 -0.6838
 4219TIP3   OH234071   2.023   0.816   9.322 -0.6497  0.6201 -0.2127
 4219TIP3    H134072   2.079   0.815   9.244  2.5197 -1.9040  1.8051
 4219TIP3    H234073   2.040   0.900   9.363 -0.2836  0.8937 -0.9129
 4220TIP3   OH234074   1.315   2.893   0.669 -0.5099  0.3484  0.3100
 4220TIP3    H134075   1.326   2.817   0.612  2.0147 -0.3791  1.6073
 4220TIP3    H234076   1.221   2.894   0.689 -0.7218 -2.1015 -0.2130
 4221TIP3   OH234077   3.519   0.811  13.544 -0.5911  0.1470 -0.2736
 4221TIP3    H134078   3.437   0.860  13.531 -0.6504  0.6027  1.5570
 4221TIP3    H234079   3.569   0.828  13.464 -1.8825  0.6414 -1.0228
 4222TIP3   OH234080   6.994   7.100  13.783  0.1473 -0.1352 -0.0788
 4222TIP3    H134081   6.937   7.063  13.851 -0.9608 -0.4864 -1.1677
 4222TIP3    H234082   6.943   7.170  13.744  0.7552  0.0306 -0.5842
 4223TIP3   OH234083   3.658   5.225  13.554  0.3202 -0.3528 -0.3201
 4223TIP3    H134084   3.575   5.264  13.581  1.2218  0.9276  0.7061
 4223TIP3    H234085   3.639   5.131  13.548 -1.5524  0.0457 -1.5130
 4224TIP3   OH234086   3.842   1.663  11.615  0.0530  0.1777  0.2885
 4224TIP3    H134087   3.899   1.591  11.589 -1.8461 -0.3958 -2.8119
 4224TIP3    H234088   3.866   1.734  11.556 -3.5625 -0.7275 -2.6475
 4225TIP3   OH234089   2.509   3.947  11.181 -0.4771 -0.1149 -0.2323
 4225TIP3    H134090   2.485   4.031  11.221 -1.9630 -0.3410 -0.6127
 4225TIP3    H234091   2.520   3.887  11.255  1.0152  0.4930  0.0713
 4226TIP3   OH234092   2.419   6.943   1.339  0.0304  0.5052  0.0626
 4226TIP3    H134093   2.466   6.864   1.312  0.1537  1.4772 -3.0422
 4226TIP3    H234094   2.341   6.910   1.384 -0.7022 -1.5332 -2.4541
 4227TIP3   OH234095   0.657   7.111  15.007  0.4920  0.0689 -0.1017
 4227TIP3    H134096   0.726   7.065  14.959 -0.0053 -1.2009  0.3830
 4227TIP3    H234097   0.700   7.143  15.087  0.9558  0.9210 -0.6662
 4228TIP3   OH234098   5.357   6.227   2.592 -0.4483  0.2415  0.3019
 4228TIP3    H134099   5.392   6.290   2.655 -1.3531  0.0231  1.0277
 4228TIP3    H234100   5.321   6.282   2.522 -3.7515  0.7290  2.2035
 4229TIP3   OH234101   1.255   4.396   5.113  0.1485 -0.0488 -0.1940
 4229TIP3    H134102   1.258   4.463   5.182  0.5940  0.4421 -0.6804
 4229TIP3    H234103   1.242   4.445   5.032 -0.2456 -0.6115 -0.4795
 4230TIP3   OH234104   5.525   5.550  14.936 -0.1486 -0.1727  0.1496
 4230TIP3    H134105   5.458   5.538  15.004 -0.6207  1.4033 -0.0035
 4230TIP3    H234106   5.539   5.644  14.932 -0.4695 -0.1562 -2.2538
 4231TIP3   OH234107   5.995   6.293   1.369 -0.2501  0.1375  0.2893
 4231TIP3    H134108   6.050   6.332   1.438 -0.5151  2.6501 -0.8004
 4231TIP3    H234109   5.924   6.251   1.417  0.2828  0.6449  1.5929
 4232TIP3   OH234110   1.294   1.045  14.237  0.1388  0.2647  0.2271
 4232TIP3    H134111   1.344   1.125  14.251  0.1687  0.4368 -0.8047
 4232TIP3    H234112   1.270   1.047  14.145 -2.3280  0.5025  0.8035
 4233TIP3   OH234113   2.939   7.012   2.825  0.0847  0.0731 -0.8803
 4233TIP3    H134114   2.988   6.954   2.882 -2.0147 -0.2672  0.7077
 4233TIP3    H234115   3.003   7.076   2.794  1.3525  0.1981  1.7826
 4234TIP3   OH234116   3.587   2.205   0.071 -0.3316 -0.2268  0.0522
 4234TIP3    H134117   3.660   2.248   0.027  0.5056  0.8871  2.3539
 4234TIP3    H234118   3.628   2.136   0.124 -1.2143 -1.0387 -0.2834
 4235TIP3   OH234119   1.408   3.627  12.169  0.3322 -0.5755  0.1599
 4235TIP3    H134120   1.440   3.558  12.110 -1.4934 -2.4234  1.1768
 4235TIP3    H234121   1.482   3.644  12.227  1.3573 -0.4758 -1.1196
 4236TIP3   OH234122   5.485   3.305  14.504  0.0903 -0.0449  0.4600
 4236TIP3    H134123   5.510   3.395  14.483  1.8741 -0.2535  1.4913
 4236TIP3    H234124   5.508   3.254  14.426 -0.8421  0.3421 -0.0915
 4237TIP3   OH234125   5.036   1.322  12.025  0.2131  0.1180 -0.7396
 4237TIP3    H134126   4.956   1.285  11.988 -0.6942  0.9601  0.2728
 4237TIP3    H234127   5.069   1.381  11.958  2.2742 -3.0963 -2.8254
 4238TIP3   OH234128   6.225   5.820  12.749  0.4412 -1.3763  0.3056
 4238TIP3    H134129   6.277   5.862  12.818  2.7787  0.5200 -2.3870
 4238TIP3    H234130   6.277   5.745  12.722  0.4996 -1.0209 -0.6111
 4239TIP3   OH234131   0.541   4.771  14.247  0.1835 -0.3215  0.1104
 4239TIP3    H134132   0.477   4.743  14.181  0.1863 -1.7970  0.6889
 4239TIP3    H234133   0.531   4.707  14.318  1.4897  0.1128  0.7152
 4240TIP3   OH234134   1.446   0.389   2.121  0.0358  0.3384  0.3657
 4240TIP3    H134135   1.468   0.309   2.167 -1.3333 -0.3424 -0.1182
 4240TIP3    H234136   1.417   0.449   2.190  1.1548  0.4852  0.7388
 4241TIP3   OH234137   4.524   6.171  13.741 -0.7433 -0.3671 -0.6107
 4241TIP3    H134138   4.478   6.187  13.824  0.4187  0.2845 -0.0657
 4241TIP3    H234139   4.519   6.254  13.695 -0.1604 -0.3066 -0.5671
 4242TIP3   OH234140   6.275   5.485   9.603 -0.6670 -0.3243  0.1632
 4242TIP3    H134141   6.310   5.532   9.527 -0.2533 -1.1283 -0.1583
 4242TIP3    H234142   6.349   5.432   9.634 -0.8498 -0.0443  1.0939
 4243TIP3   OH234143   0.073   6.652   9.875  0.1801  0.4755 -0.3896
 4243TIP3    H134144   0.024   6.716   9.824 -0.5591 -0.7102 -1.2349
 4243TIP3    H234145   0.112   6.702   9.946 -0.7961  1.7641 -0.7281
 4244TIP3   OH234146   6.673   2.128  11.539 -0.1045  0.4838 -0.0417
 4244TIP3    H134147   6.586   2.092  11.523 -0.1888  0.3188  0.7160
 4244TIP3    H234148   6.674   2.145  11.634  0.2315  1.6732 -0.2401
 4245TIP3   OH234149   1.384   1.843  15.067 -0.0269  0.4251  0.3559
 4245TIP3    H134150   1.401   1.776  15.001  0.0218 -1.5202  2.2543
 4245TIP3    H234151   1.409   1.925  15.024 -1.0884 -0.5742 -2.4287
 4246TIP3   OH234152   0.287   0.410  13.880  0.5944 -0.0625  0.1352
 4246TIP3    H134153   0.285   0.504  13.859  2.9318 -0.1357 -0.7521
 4246TIP3    H234154   0.215   0.373  13.830  0.1671  1.1523 -0.1884
 4247TIP3   OH234155   3.189   6.804   4.945 -0.0171  0.1875 -0.6062
 4247TIP3    H134156   3.243   6.796   4.867 -0.9481  2.7145 -1.6149
 4247TIP3    H234157   3.186   6.716   4.982  1.6525 -0.7709 -2.5843
 4248TIP3   OH234158   4.499   5.825  11.581 -0.6106 -0.2660  0.1108
 4248TIP3    H134159   4.477   5.889  11.513 -0.6982 -0.1277  0.2705
 4248TIP3    H234160   4.499   5.875  11.662  0.1014 -0.3008  0.1416
 4249TIP3   OH234161   4.720   3.880  11.684  0.0318 -0.2072  0.2129
 4249TIP3    H134162   4.683   3.805  11.730  1.8599 -1.5931 -0.4129
 4249TIP3    H234163   4.687   3.956  11.730 -1.3720 -1.4176  1.2955
 4250TIP3   OH234164   4.181   2.220  12.339 -0.2840  0.7896 -0.6204
 4250TIP3    H134165   4.240   2.292  12.316 -1.5082  1.4964 -1.6731
 4250TIP3    H234166   4.191   2.210  12.434  0.9240  1.4192 -0.6637
 4251TIP3   OH234167   4.506   3.797  10.022  0.5039 -0.1251 -0.6451
 4251TIP3    H134168   4.491   3.711   9.982  1.7788 -0.4993 -0.3621
 4251TIP3    H234169   4.581   3.832   9.974  0.4721  0.5126 -0.2394
 4252TIP3   OH234170   0.156   1.821  12.349  0.1675  0.0726  0.2463
 4252TIP3    H134171   0.195   1.734  12.356  0.0288 -0.0918 -0.8463
 4252TIP3    H234172   0.120   1.839  12.436  2.1719  0.0079  1.1487
 4253TIP3   OH234173   0.908   4.419  15.164 -0.0644  0.3933 -0.1841
 4253TIP3    H134174   0.970   4.444  15.233 -2.4972  1.3915  1.7760
 4253TIP3    H234175   0.861   4.344  15.199 -0.2323 -0.1506 -1.5047
 4254TIP3   OH234176   1.492   7.054  11.114 -0.1183  1.0571  0.7128
 4254TIP3    H134177   1.436   6.977  11.118  0.3987  0.6887  1.0075
 4254TIP3    H234178   1.572   7.028  11.159  0.3808  1.4930  0.1059
 4255TIP3   OH234179   5.592   1.286   1.153  0.6447 -0.6086 -0.6785
 4255TIP3    H134180   5.643   1.216   1.112 -1.9882 -1.7221 -2.3615
 4255TIP3    H234181   5.507   1.283   1.107 -1.9262 -0.6112  3.5448
 4256TIP3   OH234182   3.218   1.698  10.042  0.2528  0.2121  0.3193
 4256TIP3    H134183   3.276   1.625  10.061  0.2988  0.5980  1.8292
 4256TIP3    H234184   3.191   1.685   9.952  1.6930 -0.6639 -0.0176
 4257TIP3   OH234185   2.376   4.144  12.592 -0.0019  0.2291  0.0514
 4257TIP3    H134186   2.451   4.085  12.586  1.3519  2.0282 -2.4798
 4257TIP3    H234187   2.310   4.103  12.535  0.6605  0.6834 -1.0930
 4258TIP3   OH234188   3.812   6.796  14.120 -0.1941  0.0425 -0.5281
 4258TIP3    H134189   3.763   6.815  14.040  0.2005  1.0330 -0.5462
 4258TIP3    H234190   3.749   6.806  14.191 -0.0615  1.2176 -0.5571
 4259TIP3   OH234191   0.219   2.243   0.930  0.0073 -0.2915 -0.0070
 4259TIP3    H134192   0.214   2.164   0.982 -0.7759  0.7735  1.6121
 4259TIP3    H234193   0.309   2.245   0.898 -0.1689 -2.1829 -0.7069
 4260TIP3   OH234194   0.652   1.171  12.789  0.4694  0.3905 -0.2207
 4260TIP3    H134195   0.586   1.198  12.724  0.6066 -0.5313 -0.7677
 4260TIP3    H234196   0.699   1.251  12.810 -0.9693  1.1236  0.3496
 4261TIP3   OH234197   2.064   2.232   0.462  0.1231  0.0116  0.3098
 4261TIP3    H134198   2.133   2.165   0.455  0.1334  0.0879 -0.4873
 4261TIP3    H234199   2.111   2.314   0.473  0.1458 -0.0036  0.3261
 4262TIP3   OH234200   0.804   4.523  14.571 -0.1335 -0.3121  0.1267
 4262TIP3    H134201   0.749   4.513  14.493 -0.6919  1.6340  0.2206
 4262TIP3    H234202   0.758   4.476  14.640 -0.5433 -0.5526 -0.3086
 4263TIP3   OH234203   4.570   5.496  12.781  0.1361  0.2342 -0.2225
 4263TIP3    H134204   4.661   5.466  12.784  0.1627  0.3665  1.0723
 4263TIP3    H234205   4.565   5.563  12.850 -1.1643 -0.4258  0.3534
 4264TIP3   OH234206   3.845   4.226  11.411  0.1231 -0.2078  0.0902
 4264TIP3    H134207   3.757   4.258  11.392 -0.4960 -0.9446  1.5474
 4264TIP3    H234208   3.832   4.135  11.438  1.2688 -0.1870  0.8032
 4265TIP3   OH234209   3.563   3.219   4.261  0.8219  0.3616 -0.2013
 4265TIP3    H134210   3.517   3.251   4.183  0.0245  0.1113  0.1536
 4265TIP3    H234211   3.497   3.222   4.331  0.9794 -1.1314  0.0610
 4266TIP3   OH234212   3.484   2.196  13.345  0.3171  0.0783 -0.2766
 4266TIP3    H134213   3.498   2.103  13.324 -1.6549  0.2408 -2.8010
 4266TIP3    H234214   3.389   2.205  13.350  0.5037  1.6261  2.0552
 4267TIP3   OH234215   5.122   0.210  12.795  0.5910  0.8690 -0.7732
 4267TIP3    H134216   5.037   0.251  12.779  0.0696  0.2281  0.2790
 4267TIP3    H234217   5.171   0.274  12.845 -0.0043  0.4729  0.3424
 4268TIP3   OH234218   5.815   6.835  14.573  0.0499 -0.0982 -0.2035
 4268TIP3    H134219   5.787   6.831  14.481  1.6796  1.5601 -0.8391
 4268TIP3    H234220   5.910   6.828  14.569  0.1010 -0.8648  1.4613
 4269TIP3   OH234221   1.294   6.284  13.348 -0.0863  0.0075  0.8228
 4269TIP3    H134222   1.371   6.289  13.292 -0.9201  0.1829 -0.3728
 4269TIP3    H234223   1.233   6.229  13.298 -0.5008 -0.6816  2.0369
 4270TIP3   OH234224   4.047   2.468  15.192  0.0084  0.1723  0.4247
 4270TIP3    H134225   4.101   2.397  15.227 -1.6876 -1.2303  0.2973
 4270TIP3    H234226   4.072   2.545  15.245  0.2662 -1.0296  2.1313
 4271TIP3   OH234227   6.884   6.203   3.161  0.6205 -0.2637 -0.3081
 4271TIP3    H134228   6.788   6.198   3.161  0.4578  1.7874 -0.4815
 4271TIP3    H234229   6.913   6.114   3.146 -1.3027 -0.6618 -2.1156
 4272TIP3   OH234230   1.719   3.032  14.562 -0.3531 -0.6822  0.3033
 4272TIP3    H134231   1.732   2.944  14.598 -2.6038 -0.5107  1.7284
 4272TIP3    H234232   1.742   3.091  14.634 -2.1535 -0.2491  0.5780
 4273TIP3   OH234233   6.573   2.904  14.290 -0.6365 -0.6177  0.0171
 4273TIP3    H134234   6.523   2.848  14.231 -3.0467  1.5182 -0.1811
 4273TIP3    H234235   6.519   2.909  14.369 -0.1187  0.7741  0.3111
 4274TIP3   OH234236   1.057   2.175  11.526  0.0644 -0.2185  0.2437
 4274TIP3    H134237   0.977   2.199  11.481  1.8242 -0.1888 -3.1760
 4274TIP3    H234238   1.109   2.256  11.529  0.8746 -0.7242  0.3323
 4275TIP3   OH234239   4.513   1.604  11.954 -0.2078 -0.0818  0.4190
 4275TIP3    H134240   4.464   1.614  11.872  0.0781  3.0028  0.5170
 4275TIP3    H234241   4.603   1.629  11.932  0.1731 -0.5439  1.3887
 4276TIP3   OH234242   2.684   6.801  13.557  0.3626  0.3604  0.2481
 4276TIP3    H134243   2.755   6.808  13.621 -0.3519  2.2994  0.9154
 4276TIP3    H234244   2.604   6.816  13.607 -0.4441 -0.5621 -0.7007
 4277TIP3   OH234245   1.546   1.759   0.929 -0.0509  0.0705  0.0813
 4277TIP3    H134246   1.514   1.726   1.013  0.2993 -1.4662 -0.3696
 4277TIP3    H234247   1.500   1.708   0.863  2.1934 -1.2314 -0.6027
 4278TIP3   OH234248   2.943   4.841  10.557 -0.5017 -0.2754  0.4276
 4278TIP3    H134249   2.859   4.814  10.593  0.3932 -3.6954  0.2725
 4278TIP3    H234250   2.935   4.824  10.463  0.3538 -0.6332  0.4137
 4279TIP3   OH234251   6.538   3.781  10.048  0.2688 -0.0250  0.2530
 4279TIP3    H134252   6.526   3.826   9.964  3.8861 -0.2005 -0.5114
 4279TIP3    H234253   6.545   3.688  10.024 -2.1768 -0.5401  1.2487
 4280TIP3   OH234254   0.840   3.911   1.456  0.2586 -0.5129 -0.5255
 4280TIP3    H134255   0.906   3.866   1.404  0.6138  0.5651 -1.0432
 4280TIP3    H234256   0.890   3.967   1.515 -0.1826  0.2948 -0.9035
 4281TIP3   OH234257   6.197   1.908   2.491  0.4436 -0.4119 -0.1580
 4281TIP3    H134258   6.236   1.852   2.559 -1.4568 -0.3688  1.0338
 4281TIP3    H234259   6.118   1.943   2.532  0.5215  1.5732 -1.5782
 4282TIP3   OH234260   6.390   0.649  11.498  0.1347  0.4638  0.1546
 4282TIP3    H134261   6.363   0.569  11.453 -0.3597  1.0700 -0.6513
 4282TIP3    H234262   6.480   0.632  11.525  0.1629 -0.2224 -0.3458
 4283TIP3   OH234263   4.888   7.140  11.102 -0.2213  0.9951 -0.3305
 4283TIP3    H134264   4.913   7.113  11.013 -0.2754  0.2955 -0.1376
 4283TIP3    H234265   4.964   7.189  11.134 -0.0917  1.0165 -0.6594
 4284TIP3   OH234266   0.568   6.339  12.430 -0.4525  0.6454  0.0604
 4284TIP3    H134267   0.586   6.274  12.497  1.9408  3.3494  2.3258
 4284TIP3    H234268   0.474   6.332  12.413 -0.1890 -3.8992 -0.6098
 4285TIP3   OH234269   0.396   4.763  12.161 -0.2565 -0.3279 -0.5512
 4285TIP3    H134270   0.340   4.763  12.083  0.3802 -0.6201 -1.0268
 4285TIP3    H234271   0.406   4.670  12.182 -0.4355 -0.2483 -0.1080
 4286TIP3   OH234272   2.977   2.167   0.910  0.1154 -0.1904 -0.0308
 4286TIP3    H134273   2.976   2.081   0.951  1.0150  0.0163  0.4442
 4286TIP3    H234274   2.885   2.188   0.896 -0.2821 -0.0535  2.3692
 4287TIP3   OH234275   5.915   4.775  15.201 -0.1687  0.0406  0.6491
 4287TIP3    H134276   5.948   4.829  15.130 -1.8045  0.1043 -0.0922
 4287TIP3    H234277   5.984   4.709  15.214  0.1621  0.0180 -0.9967
 4288TIP3   OH234278   1.381   4.630  11.861  0.2199  0.1169 -0.5882
 4288TIP3    H134279   1.293   4.668  11.858 -0.6154 -1.5872  0.9461
 4288TIP3    H234280   1.379   4.569  11.934  3.1150  1.0238  0.4122
 4289TIP3   OH234281   5.566   5.210   0.306 -0.6515  0.0384  0.8998
 4289TIP3    H134282   5.576   5.231   0.213 -0.9334 -0.7245  0.6915
 4289TIP3    H234283   5.650   5.233   0.346 -0.1114 -0.7538  0.2425
 4290TIP3   OH234284   6.469   4.235  11.944 -0.0508 -0.2111 -0.0233
 4290TIP3    H134285   6.470   4.196  11.856 -4.2250  0.7358 -0.6808
 4290TIP3    H234286   6.451   4.328  11.928 -1.6014 -0.1424  1.8028
 4291TIP3   OH234287   4.921   0.033   5.307 -0.0734  0.0307 -0.1161
 4291TIP3    H134288   4.912   0.097   5.378 -0.4702 -2.5947  2.3954
 4291TIP3    H234289   5.015   0.018   5.301 -0.1310 -2.1600  2.3985
 4292TIP3   OH234290   2.643   6.845  14.974  0.1151 -0.9036  0.0246
 4292TIP3    H134291   2.606   6.757  14.980  0.4431 -1.3503 -3.2218
 4292TIP3    H234292   2.737   6.832  14.966  0.1193 -0.3112 -1.0783
 4293TIP3   OH234293   1.405   2.646  13.468  0.2008 -0.6032 -0.0565
 4293TIP3    H134294   1.324   2.597  13.455  0.6807 -1.1796 -1.0133
 4293TIP3    H234295   1.399   2.680  13.557 -1.2535 -0.3273 -0.2323
 4294TIP3   OH234296   5.733   4.646  15.366  0.0497 -0.1314 -0.2636
 4294TIP3    H134297   5.802   4.691  15.317 -0.7709 -0.2152 -1.5642
 4294TIP3    H234298   5.679   4.605  15.298 -0.8186 -0.7377  0.7605
 4295TIP3   OH234299   0.264   4.895  13.823  0.4056 -0.0072 -0.1526
 4295TIP3    H134300   0.262   4.893  13.727  0.0093  1.2437 -0.1870
 4295TIP3    H234301   0.223   4.979  13.846 -0.1440 -0.5973  1.1300
 4296TIP3   OH234302   4.803   2.362  11.526 -0.3690  0.4206  0.4363
 4296TIP3    H134303   4.712   2.380  11.504 -0.5961  0.4228  1.3352
 4296TIP3    H234304   4.801   2.338  11.619  0.5191  0.2235  0.4145
 4297TIP3   OH234305   1.813   6.652  12.173  0.1579 -0.2163  0.2525
 4297TIP3    H134306   1.767   6.574  12.205 -0.5717 -0.5627 -1.5356
 4297TIP3    H234307   1.904   6.638  12.200  0.0334 -1.6687  0.0318
 4298TIP3   OH234308   6.345   4.311   2.463  0.0258  0.4734  0.5701
 4298TIP3    H134309   6.406   4.244   2.433 -0.0011  0.9942 -0.7265
 4298TIP3    H234310   6.389   4.394   2.445 -1.1839  0.8739 -0.8031
 4299TIP3   OH234311   6.207   1.029  12.846  0.2915 -0.2281  0.1390
 4299TIP3    H134312   6.179   0.938  12.852 -2.6836  0.5831  0.1634
 4299TIP3    H234313   6.227   1.055  12.936  0.8942 -0.7451  0.1621
 4300TIP3   OH234314   6.475   3.612  10.454  0.5881 -0.2496  0.1336
 4300TIP3    H134315   6.447   3.521  10.445  2.4662 -0.6584 -3.6095
 4300TIP3    H234316   6.424   3.659  10.388  1.6138  0.8476  0.0929
 4301TIP3   OH234317   2.977   2.926  11.439  0.3554 -0.7022 -0.3685
 4301TIP3    H134318   2.999   2.838  11.410  3.4584  0.2880 -1.4046
 4301TIP3    H234319   2.930   2.965  11.365  2.0672 -0.4250 -1.3452
 4302TIP3   OH234320   6.156   4.623  14.221 -0.2195 -0.1996 -0.0796
 4302TIP3    H134321   6.105   4.637  14.301  3.4582 -0.1395  2.5608
 4302TIP3    H234322   6.172   4.710  14.186  1.8457  0.2999  1.8652
 4303TIP3   OH234323   0.686   3.480  14.508 -0.6803  0.1509  0.0818
 4303TIP3    H134324   0.689   3.384  14.505 -0.9377  0.1406  0.1995
 4303TIP3    H234325   0.661   3.506  14.419  1.5808  0.1948 -0.6060
 4304TIP3   OH234326   0.837   5.455  12.013  0.0996  0.1430  0.1868
 4304TIP3    H134327   0.745   5.470  12.034  0.5599  0.6400  2.1317
 4304TIP3    H234328   0.875   5.543  12.008  0.7819 -0.0654  1.1894
 4305TIP3   OH234329   6.673   4.853   2.004  0.4628  0.1555  0.9888
 4305TIP3    H134330   6.718   4.932   1.974 -2.8910  1.6504 -0.6096
 4305TIP3    H234331   6.707   4.783   1.948 -0.2608  1.5176 -1.2506
 4306TIP3   OH234332   0.500   2.339  14.304 -0.2940 -0.3754 -0.5483
 4306TIP3    H134333   0.497   2.314  14.212  1.0167 -1.7340 -0.2621
 4306TIP3    H234334   0.561   2.412  14.307  0.6365 -1.1319 -0.6192
 4307TIP3   OH234335   3.031   6.245  11.614  0.3384 -0.4118  0.1219
 4307TIP3    H134336   3.091   6.221  11.685  1.0373  1.7223  0.3035
 4307TIP3    H234337   2.966   6.302  11.656 -0.1609 -0.4061 -0.6449
 4308TIP3   OH234338   2.984   4.049   3.776  0.2078 -0.1933  0.3614
 4308TIP3    H134339   2.917   3.987   3.803 -0.9821  1.3650  1.0986
 4308TIP3    H234340   2.937   4.131   3.760  1.4686  0.1153 -2.3148
 4309TIP3   OH234341   6.856   2.438   4.688  0.4982  0.6593 -0.0206
 4309TIP3    H134342   6.917   2.456   4.760 -1.2659  0.4575  1.5906
 4309TIP3    H234343   6.789   2.506   4.696  0.3778  0.7661 -1.6376
 4310TIP3   OH234344   6.703   5.961   0.969  0.0876 -0.5840  0.2452
 4310TIP3    H134345   6.793   5.973   0.999  0.1078  0.3426 -0.1664
 4310TIP3    H234346   6.700   6.003   0.883 -0.7587 -0.5333  0.2901
 4311TIP3   OH234347   0.554   2.406  11.512 -0.4548  0.0558  0.3537
 4311TIP3    H134348   0.534   2.372  11.599  0.2072 -1.6519 -0.1220
 4311TIP3    H234349   0.645   2.380  11.496 -0.7297 -0.1469 -1.0556
 4312TIP3   OH234350   1.921   6.003   0.960  0.3811 -0.0459 -0.4678
 4312TIP3    H134351   1.922   6.084   0.909  2.8479  0.2540 -0.0772
 4312TIP3    H234352   1.829   5.991   0.984 -0.0144  2.8933 -0.1444
 4313TIP3   OH234353   4.108   5.110  12.590 -0.0034  0.4244 -0.5393
 4313TIP3    H134354   4.095   5.025  12.549 -0.1033  1.6074 -3.1904
 4313TIP3    H234355   4.203   5.121  12.593 -0.0031  0.5352 -0.9262
 4314TIP3   OH234356   6.688   2.126  13.851  0.4286  0.2700 -0.1345
 4314TIP3    H134357   6.716   2.105  13.940  1.2125  3.6928  0.5446
 4314TIP3    H234358   6.770   2.126  13.800  0.2315  0.1803 -0.4542
 4315TIP3   OH234359   5.399   3.690   9.958  0.0780  0.4203 -0.0867
 4315TIP3    H134360   5.438   3.607   9.985 -1.3526 -0.0912  0.5360
 4315TIP3    H234361   5.331   3.665   9.895  1.4708  1.3846 -2.0618
 4316TIP3   OH234362   3.065   2.010  14.672 -0.3586  0.3526  0.0243
 4316TIP3    H134363   3.154   2.035  14.648 -0.0640 -0.0951  0.6366
 4316TIP3    H234364   3.075   1.945  14.741 -1.1521 -0.1895 -0.3432
 4317TIP3   OH234365   5.938   0.942   3.421  0.3052 -0.3858 -0.1563
 4317TIP3    H134366   5.851   0.954   3.383  0.7044  0.9643 -0.6651
 4317TIP3    H234367   5.923   0.947   3.516 -0.0749  0.5278 -0.2612
 4318TIP3   OH234368   3.548   2.229   0.793  0.2975  0.0352  0.3318
 4318TIP3    H134369   3.613   2.165   0.823 -0.5918 -0.6435  0.8499
 4318TIP3    H234370   3.584   2.314   0.819  0.2526 -0.4372  2.0167
 4319TIP3   OH234371   3.311   5.515  12.216  0.3468  0.2086 -0.3103
 4319TIP3    H134372   3.361   5.547  12.141  1.1384 -2.1861 -0.8861
 4319TIP3    H234373   3.377   5.500  12.284  0.0213 -0.3005 -0.1045
 4320TIP3   OH234374   3.128   3.855  14.798  0.2933 -0.2395 -0.0005
 4320TIP3    H134375   3.063   3.786  14.806  0.9029 -0.9734 -1.0979
 4320TIP3    H234376   3.144   3.862  14.704  0.2908  1.3620  0.0908
 4321TIP3   OH234377   6.984   0.062  12.659  0.2567  0.0989 -0.0187
 4321TIP3    H134378   6.974   0.115  12.580  1.8969 -1.1460 -1.1342
 4321TIP3    H234379   7.069   0.020  12.649  0.6498  0.1140  2.5749
 4322TIP3   OH234380   6.985   0.598  13.183 -0.5586  0.6353  0.4544
 4322TIP3    H134381   6.957   0.622  13.272 -1.8473 -0.6783  0.4231
 4322TIP3    H234382   6.941   0.516  13.165 -0.9864  1.2963 -1.7479
 4323TIP3   OH234383   1.629   6.039  10.549  0.0183 -0.4937  0.2224
 4323TIP3    H134384   1.697   6.104  10.528  0.1458  0.0390  2.1283
 4323TIP3    H234385   1.580   6.029  10.467 -2.2100  4.6581  0.4748
 4324TIP3   OH234386   3.045   2.704  10.838 -0.0795 -0.1202  0.5226
 4324TIP3    H134387   3.025   2.781  10.784 -0.0590 -0.3431  0.2002
 4324TIP3    H234388   3.056   2.740  10.926  1.1883  0.4238  0.1629
 4325TIP3   OH234389   7.043   5.408  10.357 -0.0791  0.0561 -0.4717
 4325TIP3    H134390   7.118   5.439  10.407  1.1246  1.3794 -2.9409
 4325TIP3    H234391   7.072   5.324  10.320  0.9783  1.4151 -2.9115
 4326TIP3   OH234392   3.727   3.947   9.363 -0.2077  0.3159 -0.2060
 4326TIP3    H134393   3.778   3.887   9.416 -1.9288  0.8036  2.1855
 4326TIP3    H234394   3.783   4.023   9.351  0.1479  0.2841  1.1576
 4327TIP3   OH234395   5.478   4.514   1.924  0.5718 -0.8397  0.2265
 4327TIP3    H134396   5.523   4.564   1.992  0.5608  0.5464 -0.7452
 4327TIP3    H234397   5.395   4.559   1.911  1.1414 -0.2214 -1.6441
 4328TIP3   OH234398   2.312   1.160  15.157  0.1455 -0.1625  0.4170
 4328TIP3    H134399   2.346   1.207  15.233  0.0158  1.1106 -0.2894
 4328TIP3    H234400   2.375   1.090  15.142  2.0590  1.6280 -0.3564
 4329TIP3   OH234401   6.428   5.057  15.434 -0.4690 -0.2108 -0.5767
 4329TIP3    H134402   6.518   5.074  15.404  0.0381 -0.6278  0.6562
 4329TIP3    H234403   6.385   5.143  15.429 -0.5269 -0.2967 -2.7430
 4330TIP3   OH234404   2.423   4.458  11.975 -0.0764 -0.1315  0.3591
 4330TIP3    H134405   2.479   4.456  11.898  0.0686 -0.9694  0.4726
 4330TIP3    H234406   2.349   4.512  11.950  0.9822  1.3775  0.3566
 4331TIP3   OH234407   0.322   4.739  10.161  0.4525 -0.6407 -0.2313
 4331TIP3    H134408   0.285   4.690  10.234 -1.2240 -1.2251 -1.4278
 4331TIP3    H234409   0.368   4.673  10.109  2.2312 -0.1177  0.6008
 4332TIP3   OH234410   3.866   5.981   0.033 -0.0712  0.1782  0.0859
 4332TIP3    H134411   3.800   6.047   0.052 -0.6380 -0.0922 -0.8678
 4332TIP3    H234412   3.816   5.905   0.002  0.6152 -0.4133  0.4059
 4333TIP3   OH234413   6.386   6.236  12.963 -0.5081  0.3764  0.5904
 4333TIP3    H134414   6.397   6.151  13.005  0.3831 -0.4113 -1.1094
 4333TIP3    H234415   6.400   6.300  13.033  0.2542 -0.8561  1.6130
 4334TIP3   OH234416   3.273   3.925  11.975 -0.2043 -0.3697 -0.5204
 4334TIP3    H134417   3.322   3.843  11.978  2.0284  0.8610  2.2569
 4334TIP3    H234418   3.310   3.972  11.900 -0.7889 -1.4471 -1.5167
 4335TIP3   OH234419   3.908   6.857  12.528 -0.1873  0.4481 -0.0139
 4335TIP3    H134420   3.939   6.793  12.592 -0.8981  1.0379  0.9332
 4335TIP3    H234421   3.951   6.831  12.446  0.0801 -0.8192  0.5055
 4336TIP3   OH234422   1.219   1.807  10.528 -0.2730 -0.4561 -0.2234
 4336TIP3    H134423   1.273   1.862  10.472  0.6796 -0.8544  0.2887
 4336TIP3    H234424   1.201   1.730  10.475  0.1815 -0.5976 -0.1746
 4337TIP3   OH234425   4.018   3.804   3.978  0.4209  0.2973  0.0689
 4337TIP3    H134426   4.048   3.756   4.054 -0.2938 -0.4002 -0.0805
 4337TIP3    H234427   4.035   3.896   3.999  0.4662  0.0896  0.9526
 4338TIP3   OH234428   3.887   4.153   9.369 -0.1773  0.2202  0.3502
 4338TIP3    H134429   3.914   4.122   9.455  1.8787 -1.4075 -0.7846
 4338TIP3    H234430   3.928   4.239   9.360 -0.0992  0.2348  0.8341
 4339TIP3   OH234431   4.122   1.506  12.786  0.0344 -0.3679  0.3600
 4339TIP3    H134432   4.126   1.547  12.872 -0.2348 -0.3077  0.3441
 4339TIP3    H234433   4.108   1.413  12.804 -0.5535 -0.2795  0.3719
 4340TIP3   OH234434   1.144   1.427   3.394 -0.5776  0.0425  0.5160
 4340TIP3    H134435   1.133   1.509   3.346  0.4425 -0.2604 -0.2621
 4340TIP3    H234436   1.116   1.448   3.483 -0.6766  1.1390  0.2449
 4341TIP3   OH234437   2.520   7.015  11.884  0.0757 -0.2425  0.3296
 4341TIP3    H134438   2.434   7.025  11.925 -0.0905 -1.0437  0.1926
 4341TIP3    H234439   2.549   6.927  11.910  0.3783 -0.3995 -0.5088
 4342TIP3   OH234440   2.059   6.797  14.443 -0.0734 -0.0779  0.6767
 4342TIP3    H134441   1.986   6.757  14.489  0.1075 -1.5651 -0.2688
 4342TIP3    H234442   2.134   6.784  14.501  0.0870 -1.6282  0.1672
 4343TIP3   OH234443   2.764   5.002   1.021  0.1696 -0.4380  0.1297
 4343TIP3    H134444   2.804   4.915   1.011 -0.6925 -0.7462 -0.7968
 4343TIP3    H234445   2.792   5.031   1.107  2.1497 -0.7656 -0.3586
 4344TIP3   OH234446   5.456   2.759  12.268  0.9550 -0.0018  0.4583
 4344TIP3    H134447   5.449   2.691  12.201 -0.1583  0.9103 -0.3896
 4344TIP3    H234448   5.467   2.711  12.350 -0.9156 -1.2530  0.0329
 4345TIP3   OH234449   6.973   3.224   0.877 -0.2541  0.4994 -0.1631
 4345TIP3    H134450   6.885   3.253   0.854  0.9691  2.6513 -2.6684
 4345TIP3    H234451   7.021   3.305   0.892  1.4329 -0.6130  0.6904
 4346TIP3   OH234452   5.172   5.464  10.144  0.4821  0.4880  0.3100
 4346TIP3    H134453   5.260   5.463  10.105 -0.2239 -0.4045 -1.3561
 4346TIP3    H234454   5.115   5.492  10.073 -0.8293 -0.8845  0.7729
 4347TIP3   OH234455   1.118   6.289  11.301 -0.0493  0.0337 -0.2581
 4347TIP3    H134456   1.073   6.320  11.379 -1.7293 -2.4057 -0.1466
 4347TIP3    H234457   1.048   6.254  11.245  1.3360 -0.2179 -1.9199
 4348TIP3   OH234458   3.559   0.624   0.488  1.1177  0.1993 -0.0984
 4348TIP3    H134459   3.541   0.602   0.579  0.8350 -0.9153 -0.4011
 4348TIP3    H234460   3.492   0.577   0.438  2.0584 -0.2954 -0.9573
 4349TIP3   OH234461   6.973   4.853  14.963 -0.1640  0.5566 -0.0360
 4349TIP3    H134462   6.947   4.935  15.006  0.0096  0.9446 -0.6563
 4349TIP3    H234463   6.968   4.787  15.032 -0.3526  1.0841  0.4617
 4350TIP3   OH234464   2.128   5.477   2.218 -0.1117 -0.1685  0.3252
 4350TIP3    H134465   2.124   5.560   2.267  0.0751 -1.3475  2.4808
 4350TIP3    H234466   2.074   5.417   2.270 -1.0581 -1.1715 -1.7220
 4351TIP3   OH234467   0.680   2.370  14.568 -0.0493  0.4441  0.1960
 4351TIP3    H134468   0.669   2.346  14.476 -0.0595 -0.9997  0.5461
 4351TIP3    H234469   0.646   2.294  14.617  1.7691  0.3264  1.3657
 4352TIP3   OH234470   0.313   6.336  11.490  0.0143  0.4350 -0.2367
 4352TIP3    H134471   0.292   6.362  11.399  1.1681 -0.1937 -0.6972
 4352TIP3    H234472   0.358   6.412  11.526 -0.3667  0.6522 -0.2043
 4353TIP3   OH234473   3.753   5.079   1.822 -0.0552 -0.3003  0.0396
 4353TIP3    H134474   3.657   5.075   1.831 -0.0863 -0.6864 -0.4209
 4353TIP3    H234475   3.768   5.143   1.753  0.0710  0.6053  0.8881
 4354TIP3   OH234476   2.304   1.095   0.727  0.2163 -0.1886  0.1451
 4354TIP3    H134477   2.323   1.061   0.815  0.8491 -1.3249 -0.4070
 4354TIP3    H234478   2.351   1.036   0.668 -1.3803 -0.3072 -1.0525
 4355TIP3   OH234479   3.131   0.432  12.644  0.8663 -0.7358  0.1102
 4355TIP3    H134480   3.102   0.520  12.667 -0.6255 -1.3208  0.6196
 4355TIP3    H234481   3.099   0.420  12.554  0.8465 -0.8449  0.1321
 4356TIP3   OH234482   3.588   5.846  14.577 -0.1315  0.2747 -0.5169
 4356TIP3    H134483   3.601   5.853  14.671  1.2127 -0.6537 -0.6027
 4356TIP3    H234484   3.649   5.777  14.550 -1.1356 -0.0927 -1.9289
 4357TIP3   OH234485   0.048   3.596   4.095  0.7970 -0.3789 -0.2816
 4357TIP3    H134486   0.075   3.517   4.142  0.7866 -1.7878 -2.4882
 4357TIP3    H234487   0.038   3.662   4.163  0.0660 -2.4580  1.7610
 4358TIP3   OH234488   6.574   2.964  10.653 -0.1084 -0.4466 -0.3566
 4358TIP3    H134489   6.648   2.981  10.711 -0.9398 -0.9792  0.8929
 4358TIP3    H234490   6.613   2.918  10.578  1.1045  0.9518 -0.6268
 4359TIP3   OH234491   2.060   5.576  10.457 -0.6992  0.6699  0.1295
 4359TIP3    H134492   2.067   5.608  10.547 -0.7043  0.5782  0.1628
 4359TIP3    H234493   2.030   5.652  10.407 -1.2628  0.5631  0.3032
 4360TIP3   OH234494   0.644   0.413   5.494 -0.0366  0.1748  0.3466
 4360TIP3    H134495   0.630   0.412   5.589  0.5533 -0.1369  0.4305
 4360TIP3    H234496   0.607   0.497   5.466 -1.9010 -0.5011  0.5897
 4361TIP3   OH234497   4.574   1.632  12.594  0.3147 -0.6583  0.1373
 4361TIP3    H134498   4.630   1.611  12.669  1.0197 -1.7158 -0.6440
 4361TIP3    H234499   4.487   1.602  12.620  0.3266 -0.0432  0.9282
 4362TIP3   OH234500   2.052   5.923  10.776 -0.2721  0.9750  0.2862
 4362TIP3    H134501   2.018   5.877  10.700 -3.4354  1.5934  1.1618
 4362TIP3    H234502   2.080   5.854  10.836  0.8400  0.4453 -0.8057
 4363TIP3   OH234503   6.954   2.233   4.455  0.3808 -0.7406  0.4242
 4363TIP3    H134504   6.959   2.254   4.362  2.1151  0.2673  0.7101
 4363TIP3    H234505   6.937   2.317   4.497  1.1564 -0.9284  1.1311
 4364TIP3   OH234506   1.090   6.913  12.982  0.0282  0.7315 -0.0465
 4364TIP3    H134507   1.066   6.850  13.050  0.5460  1.8540  1.2455
 4364TIP3    H234508   1.179   6.889  12.957  0.9638  1.9869  1.8067
 4365TIP3   OH234509   2.385   5.290   1.925 -0.0239 -1.0470  0.1358
 4365TIP3    H134510   2.299   5.332   1.926  1.4248  2.2838 -0.6068
 4365TIP3    H234511   2.398   5.265   1.833  1.0698  1.6108 -0.5120
 4366TIP3   OH234512   6.108   0.987  14.032 -0.6441  0.2536  0.2083
 4366TIP3    H134513   6.102   0.950  13.944 -2.5881  1.4189 -0.2077
 4366TIP3    H234514   6.181   1.049  14.027 -0.1973 -0.2957 -0.3104
 4367TIP3   OH234515   0.358   0.230   9.322 -0.2458 -0.4514  0.4192
 4367TIP3    H134516   0.331   0.322   9.333 -2.7589 -0.6938 -2.5085
 4367TIP3    H234517   0.421   0.232   9.250  0.5155 -0.9626  1.0533
 4368TIP3   OH234518   4.110   0.443  14.701 -0.1082  0.2208  0.2167
 4368TIP3    H134519   4.107   0.389  14.780  0.0174 -0.9081 -0.5311
 4368TIP3    H234520   4.044   0.405  14.643  2.3719 -1.4591 -1.7340
 4369TIP3   OH234521   1.799   5.661   1.981 -0.0926  0.0230 -0.0920
 4369TIP3    H134522   1.860   5.649   2.054 -0.0671 -0.6273 -0.2191
 4369TIP3    H234523   1.764   5.574   1.964 -1.0647  0.3807 -0.0215
 4370TIP3   OH234524   6.721   1.509  12.507 -0.2083 -0.5823 -0.4233
 4370TIP3    H134525   6.654   1.442  12.522 -0.8263 -0.4274 -2.2936
 4370TIP3    H234526   6.687   1.588  12.549  0.1957 -1.2044  1.1727
 4371TIP3   OH234527   3.614   7.119  11.978  0.2427  0.6380  0.0887
 4371TIP3    H134528   3.621   7.210  11.949 -0.2765  0.9821  1.0015
 4371TIP3    H234529   3.651   7.118  12.066 -0.8348  0.2182  0.5573
 4372TIP3   OH234530   5.526   2.225  11.804 -0.0423 -0.4063  0.0577
 4372TIP3    H134531   5.560   2.310  11.776 -0.0896  0.0563  1.3502
 4372TIP3    H234532   5.493   2.185  11.723  1.0103  0.3108 -0.7526
 4373TIP3   OH234533   3.950   4.022   1.999  0.2342  0.6349  0.3100
 4373TIP3    H134534   3.899   3.944   2.023 -1.8743  1.6624 -0.5305
 4373TIP3    H234535   4.028   3.988   1.956 -1.5349 -1.0473 -1.8002
 4374TIP3   OH234536   3.001   0.347  11.968 -0.3050 -0.6257  0.6161
 4374TIP3    H134537   2.967   0.422  11.920  3.0361 -0.0362 -1.1936
 4374TIP3    H234538   2.953   0.272  11.933 -1.1719  0.3038 -0.2409
 4375TIP3   OH234539   5.250   7.051  14.652 -0.0158 -0.4871 -0.1521
 4375TIP3    H134540   5.211   7.138  14.652  0.0695 -0.4475  0.1460
 4375TIP3    H234541   5.197   7.000  14.591 -0.9834 -0.6305  0.7795
 4376TIP3   OH234542   7.125   3.208  14.424  0.2485 -0.0150  0.0024
 4376TIP3    H134543   7.191   3.207  14.354 -0.0522  2.7639 -0.4205
 4376TIP3    H234544   7.125   3.118  14.457  1.6392 -1.0069 -2.3951
 4377TIP3   OH234545   3.894   4.646  14.918 -0.1924 -0.3682  0.0686
 4377TIP3    H134546   3.852   4.704  14.854 -0.3289  2.3960  2.4792
 4377TIP3    H234547   3.821   4.600  14.960 -0.3841  0.2985  0.4774
 4378TIP3   OH234548   6.171   4.923  13.820  0.2363  0.4331 -0.3350
 4378TIP3    H134549   6.171   5.016  13.843 -1.0733  0.2321  0.5908
 4378TIP3    H234550   6.264   4.900  13.812  0.5672  1.8183 -0.5849
 4379TIP3   OH234551   2.844   0.376  12.397 -0.3909  0.0184  0.0984
 4379TIP3    H134552   2.933   0.397  12.369  0.1403 -0.0831  1.5923
 4379TIP3    H234553   2.803   0.338  12.320  1.3661 -1.4385 -0.1964
 4380TIP3   OH234554   6.917   4.598  15.087  0.1329  0.1807  0.2183
 4380TIP3    H134555   6.974   4.547  15.030 -1.6457 -1.7728  0.0550
 4380TIP3    H234556   6.834   4.603  15.040 -1.1879 -0.8837  2.2486
 4381TIP3   OH234557   3.777   1.757  13.838 -0.1000  0.0036 -0.7817
 4381TIP3    H134558   3.821   1.697  13.898 -0.8821  0.8751  0.7590
 4381TIP3    H234559   3.735   1.700  13.773 -2.1762 -1.3294  1.5386
 4382TIP3   OH234560   4.930   2.992  11.633 -0.5132  0.1465 -0.7409
 4382TIP3    H134561   4.980   2.976  11.713  0.3057  3.6839 -0.4005
 4382TIP3    H234562   4.995   2.987  11.563 -0.7072 -0.2271 -0.9001
 4383TIP3   OH234563   6.788   3.701  10.108  0.5845 -0.2917  0.1612
 4383TIP3    H134564   6.700   3.738  10.111  0.5595 -0.3961  0.7722
 4383TIP3    H234565   6.794   3.661  10.021  0.2302  0.1946 -0.0936
 4384TIP3   OH234566   4.862   4.278  12.740  0.0135 -0.0197  0.4290
 4384TIP3    H134567   4.906   4.201  12.705  2.3594  1.3199  0.2685
 4384TIP3    H234568   4.887   4.281  12.833 -1.6424 -0.4490  0.9433
 4385TIP3   OH234569   2.813   1.230  12.986 -0.0350 -0.4610  0.0585
 4385TIP3    H134570   2.739   1.265  13.036 -0.4398 -2.1979  0.7568
 4385TIP3    H234571   2.774   1.169  12.924  0.5840  0.7472 -1.5847
 4386TIP3   OH234572   0.002   3.866   1.299  0.5982 -0.2611  0.0208
 4386TIP3    H134573   0.089   3.849   1.264  0.5181 -0.6965  0.0266
 4386TIP3    H234574   0.008   3.953   1.339  1.5519 -1.0559  1.6960
 4387TIP3   OH234575   0.889   1.206  12.176  0.5240 -0.6152  0.5017
 4387TIP3    H134576   0.979   1.208  12.142  0.6596  1.4432  0.8125
 4387TIP3    H234577   0.837   1.173  12.103  1.5057 -1.6253  0.2422
 4388TIP3   OH234578   6.975   3.715   1.427 -0.3258 -0.2779  0.5618
 4388TIP3    H134579   7.037   3.782   1.399 -1.6772  0.8189  0.0798
 4388TIP3    H234580   6.913   3.761   1.483 -0.2576 -1.5186  1.7181
 4389TIP3   OH234581   1.390   7.019  12.085  0.1851 -0.2664  0.0368
 4389TIP3    H134582   1.390   7.078  12.160  0.6604 -0.2745  0.0421
 4389TIP3    H234583   1.471   6.969  12.092  0.2897 -0.1893 -0.5395
 4390TIP3   OH234584   7.066   5.036   1.364  0.1605  0.0018 -0.2435
 4390TIP3    H134585   7.098   5.019   1.453  0.0023  1.1348  0.0511
 4390TIP3    H234586   7.143   5.068   1.316  0.3388 -0.9872 -0.6431
 4391TIP3   OH234587   5.578   6.811   1.160  0.4998 -0.7342 -0.4937
 4391TIP3    H134588   5.629   6.765   1.093  1.2784  0.1148 -0.5002
 4391TIP3    H234589   5.580   6.753   1.236  2.2898 -0.3423 -0.1780
 4392TIP3   OH234590   5.410   3.552  12.228  0.2294  0.2873  0.0681
 4392TIP3    H134591   5.359   3.629  12.201 -1.0224 -1.0537 -1.5768
 4392TIP3    H234592   5.411   3.496  12.151  1.6892 -1.0828  1.0236
 4393TIP3   OH234593   1.026   5.344   2.048  0.1405 -0.5068  0.0336
 4393TIP3    H134594   0.981   5.348   2.132 -1.1514 -1.2841 -0.5831
 4393TIP3    H234595   1.106   5.395   2.061  0.0114 -0.6792  1.7393
 4394TIP3   OH234596   2.130   3.637  12.763 -0.0764  0.1961  0.7235
 4394TIP3    H134597   2.107   3.601  12.678 -0.3173 -0.1743  0.9455
 4394TIP3    H234598   2.067   3.708  12.777  0.7782  1.1377  0.0147
 4395TIP3   OH234599   5.928   4.084  13.442  0.5433  0.2605 -0.3806
 4395TIP3    H134600   5.975   4.032  13.377  0.5825  1.7511 -1.6038
 4395TIP3    H234601   5.945   4.175  13.417  0.2916  0.8880  1.5458
 4396TIP3   OH234602   6.872   5.956  11.790 -0.2588  0.6438 -0.0319
 4396TIP3    H134603   6.782   5.960  11.821 -0.7653 -0.6372 -1.2365
 4396TIP3    H234604   6.911   5.882  11.838 -0.2004  0.4728 -0.3361
 4397TIP3   OH234605   5.725   3.461  12.030  0.0999 -0.5188 -0.6211
 4397TIP3    H134606   5.773   3.492  11.953  0.4223 -0.0922 -0.2544
 4397TIP3    H234607   5.634   3.486  12.014  0.5295  1.8379  0.2381
 4398TIP3   OH234608   3.679   5.786  15.414 -0.8801  0.2844  0.0487
 4398TIP3    H134609   3.737   5.767  15.340  0.3524  1.0412  0.8022
 4398TIP3    H234610   3.635   5.702  15.432  1.7395 -0.9974  0.9625
 4399TIP3   OH234611   4.168   5.386  13.760 -0.0100 -0.5883 -0.0999
 4399TIP3    H134612   4.100   5.321  13.743 -1.2176 -0.2071  2.7339
 4399TIP3    H234613   4.240   5.337  13.800  0.0953 -0.5454 -0.2369
 4400TIP3   OH234614   5.620   2.769  11.681  0.6669  0.1408 -0.0653
 4400TIP3    H134615   5.575   2.789  11.763 -0.6707  3.0574 -1.4079
 4400TIP3    H234616   5.712   2.757  11.707  0.2062  0.5454  1.8908
 4401TIP3   OH234617   7.149   1.312   2.115  0.3512 -0.3582  0.2316
 4401TIP3    H134618   7.226   1.261   2.144 -0.1121 -2.5687 -2.0467
 4401TIP3    H234619   7.154   1.310   2.020 -0.6548  2.5781  0.0244
 4402TIP3   OH234620   4.607   2.775   0.959 -0.5543 -0.1310 -0.2346
 4402TIP3    H134621   4.630   2.843   1.022 -1.8015  0.6739 -0.6116
 4402TIP3    H234622   4.533   2.729   0.998  0.8724 -1.9771  0.4705
 4403TIP3   OH234623   0.934   3.720  12.313 -0.4535  0.0206  0.0740
 4403TIP3    H134624   1.027   3.722  12.287 -0.8136 -1.3431 -1.5284
 4403TIP3    H234625   0.935   3.744  12.406  1.4257  0.6882 -0.0652
 4404TIP3   OH234626   5.083   0.268  10.896 -0.0740  0.0914 -0.1159
 4404TIP3    H134627   5.009   0.213  10.868  1.2796 -1.3739 -0.9569
 4404TIP3    H234628   5.107   0.234  10.982 -1.6669  1.9744  1.1693
 4405TIP3   OH234629   3.171   5.705  11.298  0.0068 -0.3986  0.9313
 4405TIP3    H134630   3.129   5.760  11.364 -1.1555 -0.7277  0.4856
 4405TIP3    H234631   3.105   5.694  11.230  0.0227 -2.7442  1.2246
 4406TIP3   OH234632   1.332   2.924  14.232 -0.4969  0.3652 -0.1631
 4406TIP3    H134633   1.419   2.904  14.196 -0.6533  1.9798 -1.5721
 4406TIP3    H234634   1.341   3.012  14.267 -1.0962 -0.1845  1.4365
 4407TIP3   OH234635   4.787   6.137   1.014  0.3272 -0.1554  0.3322
 4407TIP3    H134636   4.740   6.061   1.048 -1.3150  1.0906  0.9521
 4407TIP3    H234637   4.820   6.182   1.091  1.8633 -0.5331 -0.0601
 4408TIP3   OH234638   4.619   6.154  12.432  0.9478 -0.4332  0.1314
 4408TIP3    H134639   4.645   6.229  12.378 -0.0245 -0.1008  0.0952
 4408TIP3    H234640   4.549   6.112  12.382 -1.4630  1.0847  1.9884
 4409TIP3   OH234641   2.395   2.252  10.599  0.2783 -0.3236  0.4126
 4409TIP3    H134642   2.375   2.217  10.513  0.2702 -0.5760  0.5159
 4409TIP3    H234643   2.376   2.346  10.593 -2.2580 -0.7465  0.8971
 4410TIP3   OH234644   5.319   1.965  11.373 -0.0189 -0.1597 -0.0256
 4410TIP3    H134645   5.302   1.883  11.327 -2.0238 -0.0175  0.3698
 4410TIP3    H234646   5.307   2.033  11.307  1.2455 -0.1451 -0.2580
 4411TIP3   OH234647   6.624   3.484  12.182  0.8935  0.2863 -0.2551
 4411TIP3    H134648   6.587   3.471  12.269  1.0245 -0.5830 -0.3195
 4411TIP3    H234649   6.687   3.413  12.172  1.9471  1.2315 -0.4927
 4412TIP3   OH234650   0.783   0.817  11.842 -0.2521 -0.1391  0.2992
 4412TIP3    H134651   0.711   0.758  11.819  0.3953 -0.4996 -0.9187
 4412TIP3    H234652   0.848   0.803  11.773 -0.0927  2.0200 -0.0545
 4413TIP3   OH234653   5.718   0.119   9.876 -0.0880  0.1548 -0.5161
 4413TIP3    H134654   5.672   0.203   9.877  0.2600  0.3489 -0.3775
 4413TIP3    H234655   5.733   0.101   9.783 -0.5474  0.0318 -0.5640
 4414TIP3   OH234656   7.078   5.352   9.872 -0.0551 -0.0166  0.2866
 4414TIP3    H134657   7.122   5.279   9.916 -0.1171 -0.5813 -0.5558
 4414TIP3    H234658   7.148   5.395   9.821 -0.2522 -0.2298 -0.1682
 4415TIP3   OH234659   1.625   5.938  15.492 -0.2279  0.3006 -0.1120
 4415TIP3    H134660   1.629   5.917  15.585 -1.8732  0.4311  0.0146
 4415TIP3    H234661   1.654   5.858  15.448 -4.3262 -1.7322  0.4216
 4416TIP3   OH234662   4.418   4.131  13.924  0.0062 -0.2207 -0.0235
 4416TIP3    H134663   4.465   4.155  14.004  0.2987 -0.6200 -0.0698
 4416TIP3    H234664   4.399   4.214  13.881  1.5842 -0.0723 -0.5142
 4417TIP3   OH234665   0.727   6.709   1.427 -0.3628 -0.2658 -0.0145
 4417TIP3    H134666   0.739   6.662   1.344  0.0970 -0.7111  0.2971
 4417TIP3    H234667   0.715   6.640   1.492  0.7944  0.0222  0.5270
 4418TIP3   OH234668   1.164   3.537  12.474 -0.1295 -0.0627  0.3594
 4418TIP3    H134669   1.127   3.625  12.465 -0.5986 -0.2526  0.3746
 4418TIP3    H234670   1.171   3.524  12.569  0.6693  0.2500  0.3517
 4419TIP3   OH234671   6.604   0.512   1.172 -0.1249  0.5089 -0.2811
 4419TIP3    H134672   6.620   0.440   1.111 -1.5804 -0.2445  0.1647
 4419TIP3    H234673   6.542   0.569   1.125  0.9098  1.4310 -0.5771
 4420TIP3   OH234674   5.594   6.441  12.626 -1.1489  0.4158 -0.1336
 4420TIP3    H134675   5.584   6.365  12.569 -0.8066 -1.3674  2.0447
 4420TIP3    H234676   5.572   6.516  12.570 -0.0752 -1.0994 -2.7829
 4421TIP3   OH234677   4.276   6.114  10.924 -0.6270  0.1406  0.4020
 4421TIP3    H134678   4.337   6.065  10.978  2.4100  1.0074 -1.9473
 4421TIP3    H234679   4.199   6.126  10.979  0.7460 -2.2052  3.0829
 4422TIP3   OH234680   3.762   3.520  14.902 -0.3354 -0.0877 -0.1523
 4422TIP3    H134681   3.744   3.493  14.812  0.6257 -1.6416  0.0940
 4422TIP3    H234682   3.700   3.470  14.955 -1.4841  1.4486  0.0347
 4423TIP3   OH234683   6.104   0.520   3.901  0.0935  0.1790 -0.2371
 4423TIP3    H134684   6.175   0.580   3.923 -0.4157 -0.1741  2.7377
 4423TIP3    H234685   6.135   0.474   3.823  1.7943  2.1169 -0.8082
 4424TIP3   OH234686   5.381   3.556  13.250  0.0031 -0.6726  0.0832
 4424TIP3    H134687   5.473   3.578  13.264  0.5237 -2.3804 -0.3040
 4424TIP3    H234688   5.373   3.467  13.286 -0.7068 -1.7594 -2.5189
 4425TIP3   OH234689   1.333   1.665  14.431  0.1461  0.4904  0.1277
 4425TIP3    H134690   1.410   1.699  14.477  1.0057 -2.8163  1.4237
 4425TIP3    H234691   1.277   1.630  14.500 -2.2212  2.0736 -0.8647
 4426TIP3   OH234692   3.326   1.630  12.681  0.5537 -0.3380  0.0803
 4426TIP3    H134693   3.407   1.590  12.649  0.1681 -1.0484 -0.0352
 4426TIP3    H234694   3.257   1.584  12.634  0.1392  2.4468 -2.2957
 4427TIP3   OH234695   5.517   0.399  10.893  0.4358  0.8346  0.3187
 4427TIP3    H134696   5.541   0.480  10.847 -0.9615  1.4629  0.6336
 4427TIP3    H234697   5.473   0.346  10.827  0.0740  0.9489  0.4659
 4428TIP3   OH234698   4.614   0.537   0.829 -0.4653  0.0334  0.0886
 4428TIP3    H134699   4.578   0.450   0.811  0.9477 -0.7410  0.8442
 4428TIP3    H234700   4.563   0.569   0.904 -0.5382 -0.4265  0.2392
 4429TIP3   OH234701   3.050   1.128  12.809 -0.3032 -0.1828  0.4707
 4429TIP3    H134702   3.133   1.116  12.855  0.4747 -1.9002 -1.2470
 4429TIP3    H234703   2.983   1.103  12.873  0.7707 -3.0776  0.5977
 4430TIP3   OH234704   1.179   2.968   3.680 -0.2403 -0.3160  0.3969
 4430TIP3    H134705   1.169   2.874   3.667  0.5675 -0.3423 -0.1221
 4430TIP3    H234706   1.271   2.986   3.657 -0.6067  0.7291 -0.3499
 4431TIP3   OH234707   4.904   3.781  11.935 -0.1309  0.4329  0.4816
 4431TIP3    H134708   4.973   3.715  11.933  0.4614  0.9273 -3.5885
 4431TIP3    H234709   4.951   3.863  11.949 -0.5551  0.3565  2.6685
 4432TIP3   OH234710   0.744   6.865  11.011 -0.0473 -0.4623  0.7894
 4432TIP3    H134711   0.832   6.830  11.019 -0.5386 -2.3428 -1.0170
 4432TIP3    H234712   0.735   6.889  10.919 -1.1813  0.3995  1.0925
 4433TIP3   OH234713   0.667   6.804  10.006  0.3146  0.1721  0.2317
 4433TIP3    H134714   0.757   6.773  10.015  0.4353  0.3982 -0.1695
 4433TIP3    H234715   0.626   6.785  10.091  0.2916 -1.3599 -0.1010
 4434TIP3   OH234716   4.902   4.349  10.281  0.3289  0.4248  0.1985
 4434TIP3    H134717   4.956   4.420  10.317 -0.0052  1.4619 -1.2724
 4434TIP3    H234718   4.823   4.392  10.250 -0.5384 -0.8241  0.6279
 4435TIP3   OH234719   3.437   4.280  11.219  0.3982  0.4361 -0.1898
 4435TIP3    H134720   3.425   4.374  11.205 -3.2482 -0.1316 -2.0977
 4435TIP3    H234721   3.464   4.246  11.134  0.9413 -0.3760  0.2893
 4436TIP3   OH234722   3.994   1.341   1.264 -0.1915 -0.2547  0.1440
 4436TIP3    H134723   3.935   1.376   1.198  1.4468 -0.2790 -1.4168
 4436TIP3    H234724   3.969   1.249   1.273  1.0091 -0.8924 -2.2314
 4437TIP3   OH234725   3.844   1.039  13.578 -0.2688  0.7527 -0.2107
 4437TIP3    H134726   3.933   1.007  13.587 -0.5294  0.5900  2.4700
 4437TIP3    H234727   3.852   1.113  13.517  1.5535  0.3411 -0.5437
 4438TIP3   OH234728   3.742   2.202  12.784 -0.4249 -0.2034 -0.4789
 4438TIP3    H134729   3.660   2.164  12.751 -0.7498 -0.3868  0.4908
 4438TIP3    H234730   3.807   2.134  12.771 -0.9456 -1.0285  0.9846
 4439TIP3   OH234731   4.428   7.128   1.444  0.1020 -0.0190 -0.0834
 4439TIP3    H134732   4.475   7.124   1.360  0.1419  0.5586 -0.0945
 4439TIP3    H234733   4.382   7.212   1.442  0.8086  0.4110  0.8386
 4440TIP3   OH234734   4.057   4.658   4.297 -0.3166 -0.9841 -0.1048
 4440TIP3    H134735   4.139   4.628   4.258 -1.1900 -1.2131 -1.8745
 4440TIP3    H234736   4.035   4.590   4.361 -0.1844 -2.0247 -1.1326
 4441TIP3   OH234737   5.636   2.478   1.565  0.0406  0.4445 -0.1477
 4441TIP3    H134738   5.591   2.544   1.619 -0.2939  1.1160 -1.2277
 4441TIP3    H234739   5.648   2.404   1.624 -0.4919  1.0911  0.8045
 4442TIP3   OH234740   4.558   0.906  12.125  0.2967  0.2618  0.1015
 4442TIP3    H134741   4.623   0.967  12.090 -0.1105  1.9316  2.0557
 4442TIP3    H234742   4.563   0.830  12.068  3.7039  0.4679 -0.0705
 4443TIP3   OH234743   4.584   6.243   1.269  0.3293  0.1845 -0.2981
 4443TIP3    H134744   4.572   6.322   1.215  0.3013  0.0155 -0.5385
 4443TIP3    H234745   4.586   6.171   1.206  0.7315  0.0295 -0.1090
 4444TIP3   OH234746   0.101   5.700  14.420  0.2578 -0.1507  0.4151
 4444TIP3    H134747   0.024   5.733  14.373 -0.4823 -1.0588  0.9594
 4444TIP3    H234748   0.111   5.610  14.389  1.9450  0.3592 -0.6733
 4445TIP3   OH234749   6.167   0.492  10.973 -0.0776 -0.1342  0.0968
 4445TIP3    H134750   6.212   0.482  11.057 -1.1873  0.1596  0.7446
 4445TIP3    H234751   6.080   0.457  10.988 -2.2161  4.6506  0.7679
 4446TIP3   OH234752   2.800   6.443  10.837  0.2192  0.0619  0.2144
 4446TIP3    H134753   2.887   6.475  10.861 -0.1567  0.1782  1.5452
 4446TIP3    H234754   2.816   6.364  10.786  1.1183  1.0333 -1.0739
 4447TIP3   OH234755   0.068   6.799  12.249 -0.2233 -0.6194  0.3497
 4447TIP3    H134756   0.051   6.723  12.305  0.9908  0.2192  1.9597
 4447TIP3    H234757   0.108   6.864  12.308 -1.1062  1.2359 -0.9863
 4448TIP3   OH234758   4.937   4.047   0.786 -0.5159 -0.6578 -0.3955
 4448TIP3    H134759   4.842   4.058   0.781 -0.3524  2.2991  0.9858
 4448TIP3    H234760   4.971   4.102   0.716  0.2175  1.8877  1.8271
 4449TIP3   OH234761   6.058   3.884  11.341 -0.0398  0.1112 -0.5030
 4449TIP3    H134762   6.123   3.909  11.406 -0.3905 -1.8012  0.6804
 4449TIP3    H234763   6.000   3.960  11.334  1.2112  1.1261 -0.1736
 4450TIP3   OH234764   5.014   2.238  12.779  0.5108  0.3915 -0.0250
 4450TIP3    H134765   5.056   2.295  12.715  1.5740 -2.1172 -1.6828
 4450TIP3    H234766   4.979   2.165  12.728  1.2991 -1.6795  2.1980
 4451TIP3   OH234767   3.136   4.177  15.387  0.3773  0.4432  0.3327
 4451TIP3    H134768   3.180   4.204  15.306  1.2677 -2.2629 -0.1939
 4451TIP3    H234769   3.050   4.147  15.358 -0.2851  1.8096  0.7939
 4452TIP3   OH234770   3.935   2.001   9.945 -0.2274 -0.2534  0.0952
 4452TIP3    H134771   3.972   1.962   9.867  2.4646 -0.2333  1.2641
 4452TIP3    H234772   3.911   2.090   9.919  2.6766  0.5036 -0.2565
 4453TIP3   OH234773   3.846   4.897  10.455 -0.2971 -0.1965  0.3709
 4453TIP3    H134774   3.864   4.876  10.363  0.4483  1.4399  0.1025
 4453TIP3    H234775   3.932   4.889  10.498 -0.7665 -1.6639  1.1117
 4454TIP3   OH234776   0.868   1.033  15.240  0.2370  0.7776  0.0821
 4454TIP3    H134777   0.932   0.989  15.185  0.6153  2.0985 -0.5719
 4454TIP3    H234778   0.844   0.968  15.306  0.6681 -0.4330 -0.9196
 4455TIP3   OH234779   2.312   4.676  11.461  0.2179 -0.5840 -0.0529
 4455TIP3    H134780   2.366   4.754  11.477  0.0571 -0.2451 -1.0661
 4455TIP3    H234781   2.374   4.603  11.464  0.7490 -0.2068 -1.1253
 4456TIP3   OH234782   6.937   5.156  14.606 -0.0532  0.1104 -0.1184
 4456TIP3    H134783   6.988   5.115  14.536  1.3682 -1.2872  1.6117
 4456TIP3    H234784   6.853   5.110  14.604  0.8746 -1.7360  0.6299
 4457TIP3   OH234785   0.166   6.406   1.876  0.0784 -0.0800 -0.1927
 4457TIP3    H134786   0.107   6.351   1.928 -0.2346 -0.7035 -1.1790
 4457TIP3    H234787   0.110   6.474   1.839  0.0535 -0.3952 -0.7485
 4458TIP3   OH234788   5.946   7.120  12.474 -0.6020  0.0985 -0.6099
 4458TIP3    H134789   5.906   7.150  12.555  2.0987 -0.3249  1.0027
 4458TIP3    H234790   5.982   7.199  12.435 -1.5844  0.2471 -1.2489
 4459TIP3   OH234791   5.665   5.235  14.141  0.1356  0.3001 -0.1719
 4459TIP3    H134792   5.693   5.284  14.219 -0.1978 -0.8240  0.6761
 4459TIP3    H234793   5.617   5.299  14.089  0.5305  1.1226  0.4417
 4460TIP3   OH234794   4.855   1.481  12.222 -0.8794  0.1002  0.4174
 4460TIP3    H134795   4.793   1.432  12.276 -1.2519 -0.2017 -0.2726
 4460TIP3    H234796   4.839   1.450  12.133  0.3874 -0.1218  0.2453
 4461TIP3   OH234797   6.159   1.919   4.348  0.0975  0.1401 -0.3480
 4461TIP3    H134798   6.200   1.971   4.418  0.6429 -0.6852 -0.0328
 4461TIP3    H234799   6.224   1.915   4.279  0.5817 -1.1546  0.1429
 4462TIP3   OH234800   4.626   3.690   2.888 -0.4245  0.3509  0.4198
 4462TIP3    H134801   4.678   3.671   2.810 -0.3489 -1.6855  0.9128
 4462TIP3    H234802   4.659   3.774   2.920 -1.0521  1.6988 -2.1923
 4463TIP3   OH234803   0.418   3.984  12.443  0.1888 -0.3560  0.3378
 4463TIP3    H134804   0.504   4.021  12.461  0.3050  1.1159 -2.6863
 4463TIP3    H234805   0.434   3.891  12.426  1.2107 -0.0726 -0.2902
 4464TIP3   OH234806   1.155   1.578  10.369 -0.8067 -0.4499  0.4217
 4464TIP3    H134807   1.093   1.642  10.335 -1.8689  0.0966  3.0685
 4464TIP3    H234808   1.100   1.516  10.418  0.5932 -0.6107  1.8915
 4465TIP3   OH234809   2.944   1.630  10.186  0.2669  0.5502  0.0814
 4465TIP3    H134810   3.031   1.623  10.146  0.7942 -0.0727  1.2828
 4465TIP3    H234811   2.936   1.550  10.238 -0.4167  1.2932  1.1497
 4466TIP3   OH234812   7.082   2.030  13.841  0.8895  0.3578  0.0156
 4466TIP3    H134813   7.029   2.019  13.762  1.7738 -1.4303 -0.3816
 4466TIP3    H234814   7.148   2.095  13.815  1.3386 -0.4087 -0.8306
 4467TIP3   OH234815   4.979   5.965  11.182  0.6637 -0.2405  0.3802
 4467TIP3    H134816   4.945   6.008  11.103  0.9130  0.3788  0.6035
 4467TIP3    H234817   4.992   5.874  11.156 -1.6399 -0.6408  0.4238
 4468TIP3   OH234818   4.619   4.677   1.369  0.2581 -0.2002 -0.8312
 4468TIP3    H134819   4.653   4.620   1.438 -0.7858 -2.0167 -1.7186
 4468TIP3    H234820   4.616   4.620   1.292 -3.0973  0.3057 -1.1953
 4469TIP3   OH234821   0.516   4.981   2.121 -0.1131  0.1880  0.4751
 4469TIP3    H134822   0.582   5.048   2.106  0.4141 -0.3096  0.5444
 4469TIP3    H234823   0.434   5.030   2.134  0.0053  0.7591 -0.8269
 4470TIP3   OH234824   5.926   6.795   3.313  0.4633  0.1071 -0.4157
 4470TIP3    H134825   5.980   6.783   3.391 -0.7838  1.3430  0.6743
 4470TIP3    H234826   5.882   6.879   3.326 -0.5056 -0.1059 -2.0152
 4471TIP3   OH234827   2.429   5.957   9.621  0.1892  0.3099 -0.6867
 4471TIP3    H134828   2.484   5.889   9.660 -0.4462  0.5693  0.7176
 4471TIP3    H234829   2.346   5.913   9.602 -0.8245  0.9707  1.7475
 4472TIP3   OH234830   1.660   3.129  11.638 -0.0334  0.5397  0.2819
 4472TIP3    H134831   1.748   3.091  11.632 -0.0736  0.2931  1.2119
 4472TIP3    H234832   1.605   3.057  11.671 -0.7707  0.4227 -1.1022
 4473TIP3   OH234833   4.320   6.631  14.308 -0.0571  0.2677  0.1434
 4473TIP3    H134834   4.414   6.639  14.295 -0.0806 -0.8891 -0.9084
 4473TIP3    H234835   4.310   6.620  14.403  1.0764 -1.7646  0.0819
 4474TIP3   OH234836   4.630   2.910   9.789  0.0414  0.0111 -0.4794
 4474TIP3    H134837   4.669   2.823   9.787  0.2978  0.0880  0.5358
 4474TIP3    H234838   4.704   2.970   9.800 -0.2124  0.2762 -0.1601
 4475TIP3   OH234839   4.137   2.009  10.309 -0.6223 -0.3668 -0.0863
 4475TIP3    H134840   4.097   1.943  10.253  0.7862 -1.4893  0.1547
 4475TIP3    H234841   4.220   1.969  10.336  1.0328  2.1041 -1.1829
 4476TIP3   OH234842   6.519   2.951  12.413 -0.1120  0.4028  0.2203
 4476TIP3    H134843   6.425   2.965  12.427 -0.2195  2.5138 -1.9156
 4476TIP3    H234844   6.523   2.879  12.351 -0.3972  0.7136 -0.1715
 4477TIP3   OH234845   1.514   2.708   3.325  0.2581  0.1583  0.1620
 4477TIP3    H134846   1.524   2.802   3.342  0.1833  0.1363  0.3321
 4477TIP3    H234847   1.596   2.669   3.357 -0.4537 -0.0614  1.8515
 4478TIP3   OH234848   1.881   6.180  10.521  0.0363 -0.4691  0.0759
 4478TIP3    H134849   1.939   6.256  10.522 -0.2660 -0.2134 -1.0062
 4478TIP3    H234850   1.870   6.159  10.429 -1.6559 -0.4481  0.2407
 4479TIP3   OH234851   1.642   0.037  11.323  0.6916 -0.5036  0.0418
 4479TIP3    H134852   1.632   0.123  11.283  0.6004  0.4757  2.0652
 4479TIP3    H234853   1.698  -0.011  11.262  2.1009  1.5419 -0.3920
 4480TIP3   OH234854   4.270   3.618  10.658 -0.4710 -0.2001 -0.1880
 4480TIP3    H134855   4.219   3.609  10.578 -1.5921 -1.4813  0.6150
 4480TIP3    H234856   4.301   3.529  10.677 -0.1336  0.0998  0.7414
 4481TIP3   OH234857   6.564   1.225   4.064 -0.4638 -0.4909  0.4414
 4481TIP3    H134858   6.481   1.184   4.087 -0.7352 -0.5106 -0.5290
 4481TIP3    H234859   6.628   1.154   4.066 -0.2430 -0.3079  2.1567
 4482TIP3   OH234860   4.339   1.504  12.600 -0.2468 -0.2286  0.6802
 4482TIP3    H134861   4.249   1.495  12.629 -1.0708  2.9556 -0.4128
 4482TIP3    H234862   4.334   1.498  12.504  0.1497  2.5535  0.3916
 4483TIP3   OH234863   0.759   3.149  13.599 -0.0347 -0.0207  0.5758
 4483TIP3    H134864   0.818   3.079  13.571 -0.4502 -0.3538  0.5085
 4483TIP3    H234865   0.814   3.227  13.604  0.3722 -0.2886  0.3456
 4484TIP3   OH234866   5.513   5.662  12.514 -0.3391  0.0639 -0.4207
 4484TIP3    H134867   5.421   5.684  12.522 -0.1555  1.5765 -1.8307
 4484TIP3    H234868   5.526   5.589  12.575 -2.5658 -0.5636 -0.6058
 4485TIP3   OH234869   6.879   2.506  10.986 -0.4044 -0.1415  0.3293
 4485TIP3    H134870   6.868   2.423  11.033 -0.2859  0.2169  1.0037
 4485TIP3    H234871   6.894   2.481  10.895 -1.9014 -0.8220  0.2370
 4486TIP3   OH234872   4.433   2.404  12.385 -0.0222 -0.3743  0.4018
 4486TIP3    H134873   4.432   2.335  12.452  1.3827 -1.0763 -0.2376
 4486TIP3    H234874   4.474   2.362  12.309  0.1653  0.9518 -0.2561
 4487TIP3   OH234875   3.380   3.133  13.687 -0.0052 -0.8832  0.3367
 4487TIP3    H134876   3.316   3.095  13.627  0.4139 -1.0375 -0.0161
 4487TIP3    H234877   3.443   3.177  13.629 -1.4085  1.9191  0.7311
 4488TIP3   OH234878   0.607   1.249  13.660  0.3398  0.0973 -0.5454
 4488TIP3    H134879   0.521   1.288  13.673  0.4391 -0.0780  0.7817
 4488TIP3    H234880   0.668   1.322  13.667  0.4775 -0.1490  1.2897
 4489TIP3   OH234881   2.975   6.197  11.070 -0.6236 -0.3795  0.5569
 4489TIP3    H134882   2.988   6.201  10.975  0.3236 -0.5410  0.6727
 4489TIP3    H234883   3.041   6.136  11.101 -1.4556 -0.9592  1.2410
 4490TIP3   OH234884   5.048   1.668  11.461 -0.4843 -0.3691  0.4589
 4490TIP3    H134885   4.999   1.592  11.428 -0.9429  0.0658  0.1200
 4490TIP3    H234886   5.139   1.648  11.442 -0.6571 -0.5588 -0.2255
 4491TIP3   OH234887   1.108   6.049  11.883 -0.0646  0.0081 -0.2995
 4491TIP3    H134888   1.091   6.142  11.895  1.8827  0.6439 -2.0034
 4491TIP3    H234889   1.047   6.022  11.814  0.4208  0.4140 -0.8976
 4492TIP3   OH234890   4.205   1.252  11.244 -0.7711 -0.1242  0.0281
 4492TIP3    H134891   4.201   1.182  11.179 -0.8233 -0.3265  0.2479
 4492TIP3    H234892   4.298   1.258  11.267 -0.6741  0.2919 -0.4332
 4493TIP3   OH234893   0.167   3.721  11.214 -0.2281 -0.2251  0.0253
 4493TIP3    H134894   0.209   3.662  11.151 -0.4959  0.4663 -0.8274
 4493TIP3    H234895   0.093   3.672  11.248 -0.2698 -0.4901 -0.4470
 4494TIP3   OH234896   3.677   3.238   4.810  0.0185 -0.1247 -0.0046
 4494TIP3    H134897   3.681   3.258   4.904 -0.3898 -2.1552  0.5067
 4494TIP3    H234898   3.584   3.228   4.792  0.1335 -0.3437 -0.4761
 4495TIP3   OH234899   3.581   6.097   2.343  0.2726  0.6769  0.4738
 4495TIP3    H134900   3.673   6.075   2.358  0.6238  1.9653  0.3993
 4495TIP3    H234901   3.538   6.081   2.427  0.3534 -0.8565  0.2380
 4496TIP3   OH234902   2.747   2.337   3.173 -0.4751  0.3851  0.1150
 4496TIP3    H134903   2.708   2.418   3.206 -0.8937  0.5113 -0.6647
 4496TIP3    H234904   2.833   2.363   3.140 -0.5038  0.4669  0.1034
 4497TIP3   OH234905   0.829   1.637   3.095  0.0300  0.4327 -0.3721
 4497TIP3    H134906   0.737   1.635   3.067  0.1480  1.5641 -0.8600
 4497TIP3    H234907   0.847   1.729   3.112  0.7738  0.0972  0.7921
 4498TIP3   OH234908   4.210   3.957  14.021  0.5666 -0.1960  0.2198
 4498TIP3    H134909   4.130   4.001  13.991  0.6626  1.2863  1.9717
 4498TIP3    H234910   4.281   4.011  13.989  0.7115  0.6019  1.7988
 4499TIP3   OH234911   4.029   0.475  12.072  0.4604  0.4102  0.2584
 4499TIP3    H134912   4.106   0.467  12.016 -1.1735  0.4743 -2.1370
 4499TIP3    H234913   4.063   0.508  12.155  2.8059  2.2255 -1.2946
 4500TIP3   OH234914   5.452   0.091   0.654 -0.3397  0.3394 -0.4434
 4500TIP3    H134915   5.428   0.045   0.734  1.2413  0.7910  0.3302
 4500TIP3    H234916   5.369   0.105   0.608 -1.3902  0.8685  1.5336
 4501TIP3   OH234917   4.783   5.333   9.865 -0.0356 -0.0265  0.1836
 4501TIP3    H134918   4.706   5.281   9.886 -0.8897  1.0870 -0.0782
 4501TIP3    H234919   4.772   5.356   9.772  0.2763  0.6592  0.3080
 4502TIP3   OH234920   6.094   4.904  12.809  0.3013 -0.1164  0.4895
 4502TIP3    H134921   6.176   4.909  12.760  0.5783  0.2307  0.9931
 4502TIP3    H234922   6.027   4.894  12.741  0.7209 -0.0333  0.0568
 4503TIP3   OH234923   5.412   1.389  11.631 -0.1501 -0.5985  0.5966
 4503TIP3    H134924   5.418   1.476  11.591 -1.9860 -0.5177  0.4316
 4503TIP3    H234925   5.490   1.343  11.600 -0.9020 -0.1573 -2.1423
 4504TIP3   OH234926   6.131   2.028  10.309  0.0280 -0.0794 -0.2309
 4504TIP3    H134927   6.162   2.046  10.220  1.4650  1.1716  0.4911
 4504TIP3    H234928   6.203   2.056  10.366 -1.2702  0.0923  1.3871
 4505TIP3   OH234929   0.739   5.273   1.728 -0.3021  0.0461  0.4618
 4505TIP3    H134930   0.781   5.336   1.787  1.0186 -0.9040  0.5871
 4505TIP3    H234931   0.653   5.311   1.710 -0.0826  1.1920  1.6348
 4506TIP3   OH234932   3.216   7.028   3.780  0.5214 -0.3460 -0.4288
 4506TIP3    H134933   3.250   7.107   3.738 -1.1262 -0.2984 -1.7537
 4506TIP3    H234934   3.146   6.998   3.723 -2.2587  0.0080  2.4670
 4507TIP3   OH234935   0.865   4.772  14.650 -0.3484  0.1097  1.2556
 4507TIP3    H134936   0.864   4.679  14.631 -1.8372 -0.9139  5.2754
 4507TIP3    H234937   0.950   4.803  14.619 -0.2179 -2.2692 -1.0994
 4508TIP3   OH234938   3.729   0.654  10.852  0.3474  0.4263  0.4442
 4508TIP3    H134939   3.778   0.645  10.770  1.7089  1.4636  1.1189
 4508TIP3    H234940   3.759   0.580  10.905 -1.0050 -0.6192 -0.1801
 4509TIP3   OH234941   5.137   1.469  15.098  0.0097 -0.6817  0.1321
 4509TIP3    H134942   5.061   1.501  15.051  0.0570 -0.6582  0.0708
 4509TIP3    H234943   5.170   1.397  15.044  0.4198 -0.2609 -0.1819
 4510TIP3   OH234944   4.786   2.687   9.908  0.0477 -0.3468 -0.2012
 4510TIP3    H134945   4.854   2.746   9.878 -0.7319 -0.4058 -2.2403
 4510TIP3    H234946   4.794   2.687  10.004  2.0622  0.5932 -0.3282
 4511TIP3   OH234947   5.048   6.258  11.311 -0.3228  0.0645  0.0102
 4511TIP3    H134948   5.113   6.220  11.371  0.0800  1.2527  0.3549
 4511TIP3    H234949   4.969   6.207  11.326  0.2359 -0.7133  0.3643
 4512TIP3   OH234950   5.467   1.768  13.707 -0.8325 -0.0233  0.1321
 4512TIP3    H134951   5.454   1.850  13.754  1.3852 -0.6597  1.9792
 4512TIP3    H234952   5.420   1.781  13.624 -3.4809  1.7660  1.7483
 4513TIP3   OH234953   6.511   1.672  10.149  0.2383 -0.5463  0.4981
 4513TIP3    H134954   6.505   1.673  10.245  0.7680  0.9681  0.5367
 4513TIP3    H234955   6.455   1.744  10.121  0.1816 -0.9058 -0.3320
 4514TIP3   OH234956   4.027   3.190  10.773 -0.1646  0.0852 -0.6007
 4514TIP3    H134957   4.061   3.102  10.786  1.5025  0.7795 -0.0355
 4514TIP3    H234958   4.089   3.248  10.818 -1.7310  1.4917 -0.1175
 4515TIP3   OH234959   5.737   3.422  13.001  0.3103 -0.3216 -0.1067
 4515TIP3    H134960   5.794   3.373  13.061  0.3822 -0.7481 -0.5094
 4515TIP3    H234961   5.769   3.397  12.914  0.8172  1.0097 -0.3250
 4516TIP3   OH234962   1.612   6.861  12.071 -0.1986  0.3668 -0.0316
 4516TIP3    H134963   1.664   6.914  12.011  0.8005  0.6258  1.0524
 4516TIP3    H234964   1.666   6.851  12.149 -1.7511  0.6557  1.1452
 4517TIP3   OH234965   6.479   1.511  12.739  0.5111  0.0007  0.0785
 4517TIP3    H134966   6.424   1.483  12.666 -2.0446 -0.2557  1.9536
 4517TIP3    H234967   6.488   1.606  12.726 -0.4338  0.0569 -0.2463
 4518TIP3   OH234968   4.691   2.930  10.611  0.2126  0.2903  0.3250
 4518TIP3    H134969   4.615   2.937  10.669 -0.7267 -2.1306 -0.4923
 4518TIP3    H234970   4.751   2.872  10.657  0.0688 -0.5088 -0.4692
 4519TIP3   OH234971   3.304   3.635  14.503 -0.7027  0.4757  0.9531
 4519TIP3    H134972   3.258   3.611  14.422  0.5886  0.2106  0.2670
 4519TIP3    H234973   3.394   3.609  14.487 -0.4176  0.4444  2.4928
 4520TIP3   OH234974   6.864   5.143  11.681  0.2671  0.0410  0.0826
 4520TIP3    H134975   6.827   5.206  11.743 -0.1237 -1.1720  1.1350
 4520TIP3    H234976   6.956   5.134  11.709  0.1268 -0.4015  0.4200
 4521TIP3   OH234977   7.150   2.788   3.002 -0.6368 -0.1004 -0.0814
 4521TIP3    H134978   7.236   2.780   3.043 -0.9452  0.2896  0.6652
 4521TIP3    H234979   7.166   2.774   2.909  0.4361  1.1728 -0.1198
 4522TIP3   OH234980   1.295   3.371   3.724  0.0885 -0.1004  0.7938
 4522TIP3    H134981   1.223   3.376   3.787  0.3054  0.1842  1.0186
 4522TIP3    H234982   1.358   3.312   3.763 -1.9637 -4.2081 -1.3632
 4523TIP3   OH234983   5.880   5.067  12.056  0.2719  0.7185 -0.6692
 4523TIP3    H134984   5.907   4.989  12.105 -0.4764  0.9784  0.1869
 4523TIP3    H234985   5.908   5.140  12.111  1.5003  1.0818 -1.7499
 4524TIP3   OH234986   0.992   3.302  14.926 -0.1802 -0.3502  0.0498
 4524TIP3    H134987   1.012   3.291  15.019  0.9996  2.5774  0.2474
 4524TIP3    H234988   0.898   3.318  14.923  0.2592  3.2336  1.2968
 4525TIP3   OH234989   5.666   6.564  13.653  0.8119  0.0754 -0.2361
 4525TIP3    H134990   5.719   6.486  13.634  0.2611 -0.6938  1.1728
 4525TIP3    H234991   5.685   6.584  13.745 -0.0786  0.7898 -0.1928
 4526TIP3   OH234992   1.662   3.166  11.274  0.2993  0.2599 -0.7747
 4526TIP3    H134993   1.664   3.194  11.183  1.0841  1.7713 -0.3351
 4526TIP3    H234994   1.744   3.200  11.311  0.1230 -0.5564  0.4372
 4527TIP3   OH234995   2.822   4.476  11.849 -0.3206  0.1417  0.3319
 4527TIP3    H134996   2.796   4.565  11.875  0.4300  0.5016 -0.1288
 4527TIP3    H234997   2.739   4.431  11.835 -0.7215  1.0728 -0.4448
 4528TIP3   OH234998   5.507   1.551  10.022 -0.0915 -0.0745  0.1953
 4528TIP3    H134999   5.454   1.530  10.099 -0.4232 -0.4781 -0.1391
 4528TIP3    H235000   5.451   1.528   9.947  0.4798 -0.3271 -0.1615
 4529TIP3   OH235001   0.380   1.599  15.372 -0.1967 -0.2105 -0.4025
 4529TIP3    H135002   0.407   1.507  15.380  0.7140  0.1960  1.8846
 4529TIP3    H235003   0.432   1.633  15.299  1.0283 -1.0112  0.0658
 4530TIP3   OH235004   6.348   5.915   9.523 -0.4418 -0.3316 -0.5076
 4530TIP3    H135005   6.368   5.997   9.569 -0.4910  0.3921 -1.7410
 4530TIP3    H235006   6.255   5.901   9.538 -0.7468  0.5931 -1.4331
 4531TIP3   OH235007   5.872   1.794  12.341 -0.3515 -0.0899 -0.0941
 4531TIP3    H135008   5.778   1.780  12.353 -0.7231  2.4385  0.5581
 4531TIP3    H235009   5.885   1.887  12.359  2.4868 -0.6020  1.0653
 4532TIP3   OH235010   3.186   5.898   2.576 -0.3907  0.8940 -0.1555
 4532TIP3    H135011   3.253   5.857   2.521 -0.0206 -0.0601  0.9794
 4532TIP3    H235012   3.103   5.875   2.532 -0.3897 -2.9664  1.4731
 4533TIP3   OH235013   5.093   5.639   9.528  0.1540 -0.3461  0.1498
 4533TIP3    H135014   5.095   5.544   9.525  0.2680 -0.3906  1.2112
 4533TIP3    H235015   5.103   5.660   9.621  0.8761  0.7168 -0.1516
 4534TIP3   OH235016   5.677   2.537   4.041  0.0816  0.0760 -0.6899
 4534TIP3    H135017   5.623   2.463   4.014 -0.0522  0.1959 -0.7522
 4534TIP3    H235018   5.652   2.553   4.132 -0.1747  0.2950 -0.7972
 4535TIP3   OH235019   6.739   5.780  13.434 -0.4607  0.2476 -0.1526
 4535TIP3    H135020   6.659   5.822  13.464 -0.4197  0.2653 -0.0686
 4535TIP3    H235021   6.720   5.753  13.344  0.5847  3.3071 -1.3970
 4536TIP3   OH235022   1.437   0.453  13.559  0.5269 -0.0561  0.8485
 4536TIP3    H135023   1.372   0.492  13.618 -0.4458 -0.9018  0.3736
 4536TIP3    H235024   1.388   0.386  13.510  1.2943  0.6434 -0.9547
 4537TIP3   OH235025   0.946   0.650  12.491  0.6429  0.0315  0.1782
 4537TIP3    H135026   0.870   0.647  12.433  0.7434 -2.8628  0.0757
 4537TIP3    H235027   0.921   0.712  12.560 -1.0331  0.5521 -0.8430
 4538TIP3   OH235028   1.167   0.336  14.157  0.3250  0.3919  1.0042
 4538TIP3    H135029   1.119   0.297  14.084  0.3930 -0.4742  1.4083
 4538TIP3    H235030   1.100   0.371  14.215  0.1883 -0.4597  1.3704
 4539TIP3   OH235031   6.084   4.277  15.036  0.0163 -0.3610 -0.4140
 4539TIP3    H135032   5.998   4.312  15.059 -0.9107 -2.7984  0.1369
 4539TIP3    H235033   6.108   4.221  15.109  3.2319  1.9722  0.5335
 4540TIP3   OH235034   4.083   4.761   0.823  0.1593 -0.6852  0.1723
 4540TIP3    H135035   4.026   4.692   0.858 -0.4315 -0.8370 -1.0151
 4540TIP3    H235036   4.161   4.714   0.792 -0.7530 -1.0586 -1.7584
 4541TIP3   OH235037   6.610   1.010  13.802 -0.3546 -0.2141 -0.0309
 4541TIP3    H135038   6.525   1.051  13.789  0.1715  0.7118 -0.7143
 4541TIP3    H235039   6.613   0.940  13.737 -0.5029 -0.0964 -0.1657
 4542TIP3   OH235040   1.294   6.727  10.552  0.4523 -0.2879  0.3190
 4542TIP3    H135041   1.284   6.637  10.585 -0.2056 -0.0260  0.8671
 4542TIP3    H235042   1.232   6.732  10.480 -0.0500 -0.0601  0.7592
 4543TIP3   OH235043   2.528   2.161   2.437  0.8711 -0.6754  0.0813
 4543TIP3    H135044   2.505   2.073   2.467  2.6696 -1.3075 -0.2507
 4543TIP3    H235045   2.590   2.193   2.503  1.2513 -0.2016 -0.4908
 4544TIP3   OH235046   0.793   4.178  15.315 -0.4299  0.7559 -0.0055
 4544TIP3    H135047   0.787   4.154  15.408 -0.8363 -1.0981 -0.4776
 4544TIP3    H235048   0.838   4.105  15.274 -3.7664 -0.4077 -1.9203
 4545TIP3   OH235049   1.932   0.564   1.731 -0.2865  0.0721  0.2095
 4545TIP3    H135050   1.895   0.491   1.781 -1.9518  0.5729 -0.2004
 4545TIP3    H235051   1.949   0.528   1.644  0.3330 -0.1933  0.4349
 4546TIP3   OH235052   6.665   4.937  15.340  0.2850  0.3847  0.5260
 4546TIP3    H135053   6.617   4.875  15.394  0.3955 -1.2371 -1.1501
 4546TIP3    H235054   6.757   4.917  15.356  0.3567  1.0431  0.9839
 4547TIP3   OH235055   5.460   4.605  11.153  0.3397  0.0063  0.5200
 4547TIP3    H135056   5.507   4.595  11.071  1.4784 -0.9078  1.2529
 4547TIP3    H235057   5.449   4.700  11.163 -1.4626  0.0972 -1.5431
 4548TIP3   OH235058   1.138   0.662   9.232  0.5216  0.7171  0.1475
 4548TIP3    H135059   1.201   0.640   9.163  0.7639  1.9059 -0.0350
 4548TIP3    H235060   1.057   0.682   9.185 -0.3410 -1.7387  0.4301
 4549TIP3   OH235061   3.623   0.157  15.107 -0.2185 -0.2114  0.2628
 4549TIP3    H135062   3.717   0.138  15.109  0.1257  1.4172  0.5977
 4549TIP3    H235063   3.594   0.121  15.023  0.5368 -1.3828  0.4686
 4550TIP3   OH235064   3.599   3.415   0.361  0.4171 -0.2585 -0.3031
 4550TIP3    H135065   3.568   3.499   0.395 -0.7470 -0.5481 -0.6097
 4550TIP3    H235066   3.642   3.436   0.279  1.4340  0.2019  0.3282
 4551TIP3   OH235067   5.647   7.000  10.215  0.5052 -0.0178  0.3268
 4551TIP3    H135068   5.687   6.939  10.278 -1.0330 -2.4624 -0.8932
 4551TIP3    H235069   5.663   6.960  10.130 -2.0073  0.3313 -0.3953
 4552TIP3   OH235070   5.441   2.909  14.601 -0.6820 -0.4431  0.0247
 4552TIP3    H135071   5.420   2.844  14.668 -2.1040 -0.6296 -0.5616
 4552TIP3    H235072   5.469   2.857  14.526  2.6532 -0.1819  0.9647
 4553TIP3   OH235073   0.178   2.358  13.403  0.0878 -0.3519 -0.3026
 4553TIP3    H135074   0.194   2.275  13.360 -2.4241 -0.5697 -1.0093
 4553TIP3    H235075   0.125   2.336  13.480  1.6912  0.3635  1.0615
 4554TIP3   OH235076   2.093   5.638  10.757  0.3928  1.2844 -0.1942
 4554TIP3    H135077   2.145   5.558  10.769  0.6395  1.3199 -0.9194
 4554TIP3    H235078   2.149   5.708  10.790 -0.1105  1.0883  1.0977
 4555TIP3   OH235079   4.725   0.669   3.247 -0.5750  0.2185 -0.0394
 4555TIP3    H135080   4.646   0.648   3.197  1.0564 -0.7595 -2.4069
 4555TIP3    H235081   4.697   0.666   3.338 -2.6020 -3.3653 -0.5885
 4556TIP3   OH235082   3.411   4.565   9.821  0.2576  0.0385  0.2310
 4556TIP3    H135083   3.353   4.489   9.816  0.8222 -0.3217 -1.2519
 4556TIP3    H235084   3.361   4.637   9.785  0.5567 -0.1786 -0.6437
 4557TIP3   OH235085   5.082   6.846  11.543  0.1674 -0.0560 -0.0660
 4557TIP3    H135086   5.156   6.867  11.487  0.4899 -1.0122 -0.0076
 4557TIP3    H235087   5.041   6.931  11.562  0.3814  0.3293 -1.2836
 4558TIP3   OH235088   6.562   0.323  11.714 -0.0784  0.1480 -0.0449
 4558TIP3    H135089   6.586   0.362  11.630  0.6359 -0.8819 -0.3340
 4558TIP3    H235090   6.568   0.228  11.699 -1.9658 -0.1182  0.5687
 4559TIP3   OH235091   5.323   4.066  13.835 -0.1836 -0.1007 -0.0073
 4559TIP3    H135092   5.410   4.101  13.855  0.2165 -0.6987 -0.6087
 4559TIP3    H235093   5.313   4.080  13.741  0.4575 -2.4858 -0.5024
 4560TIP3   OH235094   2.448   6.931   2.744  0.3752 -0.1542  0.5935
 4560TIP3    H135095   2.437   6.899   2.655  0.1642 -2.4241  1.3835
 4560TIP3    H235096   2.528   6.984   2.741  0.9324 -1.0309 -0.7265
 4561TIP3   OH235097   4.466   5.770  10.081 -0.5877 -0.0963 -0.4017
 4561TIP3    H135098   4.438   5.761  10.172 -0.0360  0.7759 -0.1323
 4561TIP3    H235099   4.553   5.810  10.087 -0.8700  0.6943 -1.3394
 4562TIP3   OH235100   0.601   4.743   0.284 -0.3966 -0.2380  0.3397
 4562TIP3    H135101   0.631   4.691   0.358  1.0443  1.4984  1.0517
 4562TIP3    H235102   0.544   4.810   0.323 -0.0190  0.3913 -0.1614
 4563TIP3   OH235103   3.328   7.150   0.201  0.0840  0.0065  0.0728
 4563TIP3    H135104   3.416   7.155   0.165  0.1802 -0.2538  0.2694
 4563TIP3    H235105   3.312   7.237   0.239 -0.4981  0.7253 -1.6734
 4564TIP3   OH235106   3.418   1.692   2.420 -0.1639 -0.3919  0.1899
 4564TIP3    H135107   3.415   1.785   2.446  1.2936  0.1186 -1.2802
 4564TIP3    H235108   3.507   1.664   2.443 -0.4406 -1.2971  0.1803
 4565TIP3   OH235109   1.615   6.665  13.149  0.0614  0.2743  0.5624
 4565TIP3    H135110   1.671   6.679  13.226 -0.3131  2.1053  0.5542
 4565TIP3    H235111   1.605   6.752  13.111 -0.3233 -0.5005 -1.1982
 4566TIP3   OH235112   6.643   3.865   0.946  0.0195 -0.2953  0.0837
 4566TIP3    H135113   6.639   3.844   0.852 -0.0067  0.5124 -0.1007
 4566TIP3    H235114   6.670   3.783   0.987  2.5014 -0.0415 -0.8696
 4567TIP3   OH235115   2.915   6.930  10.340  0.2152 -0.0537 -0.0868
 4567TIP3    H135116   2.904   7.016  10.380 -0.2169  1.1218 -2.5196
 4567TIP3    H235117   2.828   6.891  10.343 -0.3573  0.9720 -1.7394
 4568TIP3   OH235118   1.359   5.793   9.691  0.2589 -0.3154 -0.3053
 4568TIP3    H135119   1.417   5.867   9.675  0.9407 -0.5839  0.8009
 4568TIP3    H235120   1.341   5.757   9.604  0.3959  0.7712 -0.8046
 4569TIP3   OH235121   4.487   1.123   1.143  0.1314 -0.0294 -0.3774
 4569TIP3    H135122   4.523   1.076   1.068 -0.2409  0.2313 -0.7188
 4569TIP3    H235123   4.402   1.155   1.114 -1.8796 -3.2572  1.3578
 4570TIP3   OH235124   3.345   0.660  11.638  0.0831  0.5187 -0.1520
 4570TIP3    H135125   3.269   0.602  11.643  0.6632 -0.1917  0.8193
 4570TIP3    H235126   3.368   0.677  11.730 -0.6594  3.1212 -0.3564
 4571TIP3   OH235127   5.318   4.468  13.361 -0.5920 -0.0461 -0.5326
 4571TIP3    H135128   5.274   4.460  13.446 -1.5423 -1.4959 -1.1285
 4571TIP3    H235129   5.401   4.512  13.382 -0.8972 -0.1762  1.1174
 4572TIP3   OH235130   5.862   5.135  12.505  0.3219  0.1036  0.1345
 4572TIP3    H135131   5.939   5.162  12.455 -0.7147  2.1188 -0.4762
 4572TIP3    H235132   5.790   5.139  12.442 -0.5879  0.1888  1.1578
 4573TIP3   OH235133   6.681   4.802   4.372  0.6375  0.3342  0.0244
 4573TIP3    H135134   6.699   4.853   4.451  2.0188  1.3590 -0.8999
 4573TIP3    H235135   6.595   4.832   4.343 -0.8010 -1.4629  2.1502
 4574TIP3   OH235136   0.675   1.306   9.871 -0.3504 -0.7291  0.4609
 4574TIP3    H135137   0.591   1.261   9.864 -0.3369 -0.6716 -0.0472
 4574TIP3    H235138   0.661   1.369   9.942  0.0053 -2.3423  2.0604
 4575TIP3   OH235139   3.922   4.279  14.282 -0.2560  0.6777 -0.4103
 4575TIP3    H135140   3.976   4.290  14.204  1.0772 -0.1420  0.3696
 4575TIP3    H235141   3.893   4.367  14.304 -0.1423  0.9944 -1.4683
 4576TIP3   OH235142   2.992   5.937   9.896  0.1358  0.1094 -0.0623
 4576TIP3    H135143   3.061   5.874   9.875  0.5638 -0.2767  2.1971
 4576TIP3    H235144   3.000   6.005   9.830  0.2423 -1.7425 -2.0559
 4577TIP3   OH235145   0.973   0.235  10.981  0.2547 -0.4763  0.5441
 4577TIP3    H135146   1.021   0.314  10.957 -2.2118  0.6311 -1.2180
 4577TIP3    H235147   0.909   0.264  11.045  0.0737 -1.2996  0.7527
 4578TIP3   OH235148   0.453   1.443  12.862  0.0954  0.6702  0.2123
 4578TIP3    H135149   0.429   1.505  12.932  0.9972 -0.1787  1.3233
 4578TIP3    H235150   0.537   1.407  12.891  0.0953 -0.2984 -0.9417
 4579TIP3   OH235151   6.843   0.601  10.101  0.5964  0.1388 -0.1725
 4579TIP3    H135152   6.903   0.671  10.126  0.8915  0.1414 -0.8967
 4579TIP3    H235153   6.862   0.584  10.009  0.3534 -0.7247 -0.0647
 4580TIP3   OH235154   3.114   1.952   0.775  0.2873  0.5598 -0.3429
 4580TIP3    H135155   3.170   2.027   0.757 -0.7151  1.5600  0.5642
 4580TIP3    H235156   3.097   1.956   0.869 -2.0294  0.8445 -0.7040
 4581TIP3   OH235157   1.217   3.042   2.576 -0.2537 -0.3542 -0.0453
 4581TIP3    H135158   1.183   2.953   2.566 -2.1255  0.4068 -0.9786
 4581TIP3    H235159   1.179   3.091   2.503 -0.6475  1.5932  1.3699
 4582TIP3   OH235160   5.525   3.203   9.444  0.2632 -0.6501 -0.4129
 4582TIP3    H135161   5.593   3.136   9.450  0.2314 -0.6848 -0.4420
 4582TIP3    H235162   5.554   3.272   9.504  0.2636 -0.7182 -0.3345
 4583TIP3   OH235163   6.592   5.907  15.365  0.5948 -0.9988  0.1682
 4583TIP3    H135164   6.603   5.982  15.423 -0.1135 -0.9919  0.3027
 4583TIP3    H235165   6.508   5.869  15.390  0.6216 -1.4254 -0.3652
 4584TIP3   OH235166   2.647   3.332  10.707 -0.1492 -0.2268  0.1183
 4584TIP3    H135167   2.706   3.398  10.672 -0.8809  1.3518  1.7157
 4584TIP3    H235168   2.604   3.295  10.630 -1.0216  2.4302 -0.7636
 4585TIP3   OH235169   3.501   4.072  13.445 -0.1212 -0.4078 -0.1024
 4585TIP3    H135170   3.473   3.981  13.437 -0.2201 -0.3382 -0.5766
 4585TIP3    H235171   3.420   4.123  13.433  0.3526 -0.1377 -3.0261
 4586TIP3   OH235172   3.944   1.518  12.059  0.3816  0.2317 -0.1209
 4586TIP3    H135173   3.900   1.593  12.017 -1.0885 -0.0635  0.8100
 4586TIP3    H235174   4.001   1.558  12.125 -0.8613  0.5438  0.8004
 4587TIP3   OH235175   4.316   3.993   9.986  0.2120  0.6669 -0.0019
 4587TIP3    H135176   4.330   4.081  10.022  0.3305 -0.3840  2.7191
 4587TIP3    H235177   4.388   3.941  10.021 -0.8039 -0.8916 -0.1395
 4588TIP3   OH235178   5.938   5.453  13.329  0.0408  0.1911 -0.1229
 4588TIP3    H135179   5.939   5.517  13.258 -1.8515 -0.6824 -1.0008
 4588TIP3    H235180   5.937   5.506  13.409 -0.5301  1.2517 -0.8091
 4589TIP3   OH235181   1.498   1.650  12.740  0.6980 -0.9302 -0.3955
 4589TIP3    H135182   1.542   1.701  12.672  0.3236  0.1321  0.1326
 4589TIP3    H235183   1.416   1.621  12.700  0.2617  0.0897 -0.2652
 4590TIP3   OH235184   0.710   6.847  10.304 -0.6754 -0.0793 -0.0525
 4590TIP3    H135185   0.774   6.884  10.243  1.0360 -2.2496  0.3422
 4590TIP3    H235186   0.758   6.835  10.386 -2.1358  0.0029  0.8610
 4591TIP3   OH235187   5.630   4.054  14.692  0.8320  0.0897 -0.3803
 4591TIP3    H135188   5.721   4.064  14.662  0.8942 -0.8575 -0.5153
 4591TIP3    H235189   5.602   3.971  14.656  0.2683 -0.1552  0.5936
 4592TIP3   OH235190   3.056   6.125  12.225 -0.8420 -0.3930  0.0719
 4592TIP3    H135191   3.128   6.103  12.166 -0.1060  0.4508  0.6369
 4592TIP3    H235192   3.021   6.207  12.190 -0.4100  0.1040  0.7880
 4593TIP3   OH235193   5.956   4.720  13.376  0.0643  0.3461  0.5778
 4593TIP3    H135194   5.960   4.633  13.415  0.4034 -0.2957 -0.8424
 4593TIP3    H235195   5.970   4.779  13.450  1.2904 -0.8402  1.3520
 4594TIP3   OH235196   6.901   6.195   0.257  0.1791  0.8736  0.1448
 4594TIP3    H135197   6.951   6.158   0.185  2.2697  1.6040  1.1358
 4594TIP3    H235198   6.903   6.127   0.325 -1.5944  0.2735 -0.3599
 4595TIP3   OH235199   7.156   2.021  10.830 -0.2116  0.2452 -0.2448
 4595TIP3    H135200   7.225   1.959  10.804 -0.2775  0.4915 -1.0329
 4595TIP3    H235201   7.144   2.076  10.753 -3.1173 -1.4383 -1.1356
 4596TIP3   OH235202   0.688   2.530  11.952  0.4026  0.1971  0.7511
 4596TIP3    H135203   0.649   2.603  11.904  1.2805 -0.0772 -0.4150
 4596TIP3    H235204   0.613   2.482  11.987 -0.4543 -0.9897 -2.3857
 4597TIP3   OH235205   3.933   3.275  15.042 -0.1519 -0.1747  0.1876
 4597TIP3    H135206   3.852   3.272  15.092  0.1201  1.2494  0.7581
 4597TIP3    H235207   4.002   3.258  15.106  0.0518 -0.7851 -0.1840
 4598TIP3   OH235208   3.446   4.166  12.097  0.7235 -0.5553  0.1625
 4598TIP3    H135209   3.361   4.146  12.135  0.5519 -1.5562 -0.7036
 4598TIP3    H235210   3.480   4.239  12.150 -1.1209  0.5882 -0.1394
 4599TIP3   OH235211   2.334   0.259  11.095 -0.0097 -0.2903 -0.0115
 4599TIP3    H135212   2.328   0.354  11.094 -0.3326 -0.2844  1.3562
 4599TIP3    H235213   2.247   0.228  11.070 -0.3338 -0.2179  1.0054
 4600TIP3   OH235214   6.645   0.729  15.289  0.2405  0.0893  0.2401
 4600TIP3    H135215   6.630   0.693  15.377 -0.3624 -0.8396 -0.2271
 4600TIP3    H235216   6.639   0.654  15.231  0.9721  0.6441 -0.5793
 4601TIP3   OH235217   5.983   6.185  13.532  0.5646  0.1947  0.3883
 4601TIP3    H135218   5.887   6.181  13.524  0.5809 -4.3696 -0.5238
 4601TIP3    H235219   6.014   6.180  13.442  1.5799 -1.2820  0.7941
 4602TIP3   OH235220   6.310   1.805  10.040  0.3833  0.5210  0.0733
 4602TIP3    H135221   6.258   1.756  10.104 -0.7645  1.7546  0.1326
 4602TIP3    H235222   6.248   1.827   9.971  1.5616 -0.5864 -1.3918
 4603TIP3   OH235223   1.761   4.192   0.854 -0.3186  0.0545 -0.2548
 4603TIP3    H135224   1.839   4.225   0.810  0.9930 -0.4052  1.6361
 4603TIP3    H235225   1.771   4.219   0.945 -2.8524  0.8159 -0.1244
 4604TIP3   OH235226   4.759   2.064   1.170  0.0270 -0.2889  0.2765
 4604TIP3    H135227   4.692   2.006   1.133  0.5968 -2.1418  2.0158
 4604TIP3    H235228   4.808   2.095   1.094 -1.4455 -0.5684 -0.8461
 4605TIP3   OH235229   3.864   7.027  11.475 -0.3571 -0.3861 -0.0638
 4605TIP3    H135230   3.887   6.982  11.394  0.0963 -0.9887  0.3855
 4605TIP3    H235231   3.788   7.080  11.453 -0.2100 -0.5111 -0.8907
 4606TIP3   OH235232   5.156   0.781  15.078  0.0320 -0.1927  0.3651
 4606TIP3    H135233   5.114   0.770  15.164 -1.1207 -1.9710 -0.3715
 4606TIP3    H235234   5.087   0.817  15.022  0.6713  0.6048  0.0650
 4607TIP3   OH235235   6.328   2.193  15.434 -0.1643 -0.3371  0.5420
 4607TIP3    H135236   6.397   2.240  15.387 -1.0191 -2.8404 -3.6691
 4607TIP3    H235237   6.248   2.243  15.417 -0.2613 -0.4969  0.5206
 4608TIP3   OH235238   6.395   4.386  15.076  0.4501  0.2290  0.5982
 4608TIP3    H135239   6.462   4.339  15.026 -0.7951  1.2166 -2.2516
 4608TIP3    H235240   6.351   4.318  15.127 -0.4106 -1.6433 -2.3495
 4609TIP3   OH235241   2.471   2.136   1.399  0.3625 -0.3506  0.8129
 4609TIP3    H135242   2.416   2.199   1.352 -0.4219 -1.1018  0.6999
 4609TIP3    H235243   2.553   2.183   1.414  0.6219 -0.0238 -1.2105
 4610TIP3   OH235244   2.092   1.883  11.678  0.2218  0.4573  0.0536
 4610TIP3    H135245   2.071   1.974  11.659  0.5778  0.6973  0.7866
 4610TIP3    H235246   2.180   1.871  11.642  1.3269  1.1996  2.2902
 4611TIP3   OH235247   7.062   3.823  15.338 -0.3708  0.0630  0.1220
 4611TIP3    H135248   7.021   3.842  15.423 -1.3438 -1.9722  0.1749
 4611TIP3    H235249   7.113   3.744  15.353 -0.2135 -0.0857 -1.0834
 4612TIP3   OH235250   0.482   1.902   5.342 -0.1950 -0.6099 -0.6326
 4612TIP3    H135251   0.454   1.924   5.430  1.6660 -0.8387  0.0633
 4612TIP3    H235252   0.557   1.844   5.354  0.1557 -0.5769 -2.3520
 4613TIP3   OH235253   7.022   1.255  12.311  0.4751  0.2927  0.2498
 4613TIP3    H135254   7.110   1.278  12.340  1.9338 -2.7603 -1.3376
 4613TIP3    H235255   6.976   1.230  12.391  1.6975  0.0303  0.8901
 4614TIP3   OH235256   4.486   3.502  11.703  0.6111  0.1852  0.3678
 4614TIP3    H135257   4.410   3.559  11.709  1.2993  1.2252 -0.4288
 4614TIP3    H235258   4.556   3.551  11.747  1.0316 -0.3811  0.3418
 4615TIP3   OH235259   3.911   3.710  10.992 -0.3061 -0.0228  0.0860
 4615TIP3    H135260   3.905   3.651  10.918  1.1892 -0.8127  0.5667
 4615TIP3    H235261   3.983   3.769  10.971  0.7578 -0.8513  1.2917
 4616TIP3   OH235262   0.648   6.805   9.710 -0.0720 -0.0089 -0.1342
 4616TIP3    H135263   0.674   6.807   9.802  1.1298 -1.4222 -0.3988
 4616TIP3    H235264   0.647   6.897   9.683 -0.9915  0.4723  1.4068
 4617TIP3   OH235265   4.110   2.595   4.938 -0.0814 -0.0585 -0.0256
 4617TIP3    H135266   4.058   2.564   5.012 -1.6597  1.4511 -0.4517
 4617TIP3    H235267   4.146   2.678   4.968  3.6490 -1.7683  0.9075
 4618TIP3   OH235268   1.924   0.880   9.635  0.6806  0.1854  0.3121
 4618TIP3    H135269   1.895   0.949   9.695  0.4184 -0.9102  1.4810
 4618TIP3    H235270   2.019   0.885   9.637  0.6981 -0.4575  1.5726
 4619TIP3   OH235271   6.582   0.194  11.318 -0.2584  0.2358  0.3747
 4619TIP3    H135272   6.529   0.115  11.315 -2.2364  1.5195 -1.2873
 4619TIP3    H235273   6.644   0.184  11.246 -1.7547  0.9547 -1.0634
 4620TIP3   OH235274   4.068   2.672   0.447 -0.0855 -0.1027 -0.3363
 4620TIP3    H135275   4.155   2.647   0.417  0.1091  0.0580  0.0952
 4620TIP3    H235276   4.081   2.755   0.492 -0.1452 -0.9974  1.4219
 4621TIP3   OH235277   2.473   4.451  11.569 -0.1938  0.2878  0.3077
 4621TIP3    H135278   2.516   4.420  11.648 -0.2139 -1.3402 -0.2902
 4621TIP3    H235279   2.429   4.374  11.533 -0.1644  0.9727 -1.3111
 4622TIP3   OH235280   0.590   2.011  14.236  0.1362  0.0231  0.9217
 4622TIP3    H135281   0.660   2.074  14.220  1.1521 -1.4211 -0.6684
 4622TIP3    H235282   0.530   2.023  14.162 -0.1407 -0.2691  1.0954
 4623TIP3   OH235283   0.144   3.913  13.579 -0.5411  0.2962 -0.1381
 4623TIP3    H135284   0.059   3.871  13.570 -1.3809  1.9667 -0.4840
 4623TIP3    H235285   0.208   3.844  13.560 -1.8584 -0.6165 -1.4346
 4624TIP3   OH235286   6.037   5.668  12.190 -0.8041 -0.0027  0.1826
 4624TIP3    H135287   6.131   5.677  12.203 -1.0521  1.2881  1.3610
 4624TIP3    H235288   6.028   5.605  12.118  0.9352 -0.3311  0.2151
 4625TIP3   OH235289   2.267   4.851  10.350 -0.1898 -1.1918 -0.2444
 4625TIP3    H135290   2.244   4.941  10.376 -1.1686 -1.5862  0.3004
 4625TIP3    H235291   2.219   4.796  10.412  0.7837 -2.0869 -0.2736
 4626TIP3   OH235292   3.760   0.388  10.029 -0.2202  0.2126 -0.1894
 4626TIP3    H135293   3.832   0.327  10.011 -0.8954 -0.2341 -1.4478
 4626TIP3    H235294   3.720   0.404   9.944 -1.6093  0.4663  0.4904
 4627TIP3   OH235295   3.194   5.556  15.034  0.2399  0.4429  0.4562
 4627TIP3    H135296   3.196   5.548  15.129  1.9675 -0.4411  0.3998
 4627TIP3    H235297   3.116   5.508  15.007  0.0094  0.2717  1.3944
 4628TIP3   OH235298   3.492   5.815  11.043  0.7739 -0.0382 -0.3243
 4628TIP3    H135299   3.454   5.892  11.001  0.5832  0.3010  0.4544
 4628TIP3    H235300   3.504   5.753  10.972  0.6730  0.6088 -0.9184
 4629TIP3   OH235301   3.119   6.920  13.896  0.0535 -0.0028 -0.4602
 4629TIP3    H135302   3.046   6.974  13.865 -1.9008 -1.9536  0.4893
 4629TIP3    H235303   3.170   6.978  13.952 -1.5317  1.0791 -0.0820
 4630TIP3   OH235304   4.783   3.600  15.183 -0.2401 -0.1733  0.0180
 4630TIP3    H135305   4.719   3.659  15.224  0.9769  0.3844  1.1689
 4630TIP3    H235306   4.844   3.658  15.138  0.0162 -0.6594 -0.2730
 4631TIP3   OH235307   4.915   5.964  10.024 -0.1065 -0.0468 -0.3164
 4631TIP3    H135308   5.006   5.952  10.051 -0.6289  0.4541  1.8152
 4631TIP3    H235309   4.916   5.950   9.929  1.5189 -4.0299  0.1123
 4632TIP3   OH235310   0.944   4.567  10.741 -0.1800  0.2367 -0.1283
 4632TIP3    H135311   0.910   4.602  10.823  0.7926  0.7869  0.0570
 4632TIP3    H235312   1.036   4.548  10.759  0.1089  0.5872 -1.1476
 4633TIP3   OH235313   1.941   2.151   3.529  0.7173  0.7315 -0.3290
 4633TIP3    H135314   1.976   2.155   3.617 -0.3567  0.0864  0.1542
 4633TIP3    H235315   1.856   2.196   3.535 -2.4814 -4.4900  0.6390
 4634TIP3   OH235316   3.943   0.555  13.986 -0.4073 -0.4356  0.5949
 4634TIP3    H135317   3.883   0.613  14.032 -1.9637 -0.5713 -1.1310
 4634TIP3    H235318   3.912   0.466  14.006  2.0653 -0.8194  3.3650
 4635TIP3   OH235319   1.167   2.379   9.523 -0.0583 -0.0117  0.1911
 4635TIP3    H135320   1.100   2.343   9.581  0.2671  0.3567  0.7974
 4635TIP3    H235321   1.247   2.333   9.547  0.2264  0.6485  0.5296
 4636TIP3   OH235322   4.095   1.738  12.640  0.1887  0.3864  0.2376
 4636TIP3    H135323   4.099   1.658  12.692 -0.1121  0.4517  0.3636
 4636TIP3    H235324   4.093   1.708  12.549  0.6020  0.2691  0.2683
 4637TIP3   OH235325   4.394   4.210  10.124  0.0519  0.5857 -0.3847
 4637TIP3    H135326   4.364   4.284  10.072  0.4602  1.5815  0.7441
 4637TIP3    H235327   4.487   4.226  10.137 -0.2522  0.9912  1.5919
 4638TIP3   OH235328   2.454   1.505  11.717  0.1751  0.0677  0.0599
 4638TIP3    H135329   2.399   1.473  11.646 -1.6695 -0.8839  1.8157
 4638TIP3    H235330   2.464   1.599  11.699 -1.9209  0.2506 -0.4287
 4639TIP3   OH235331   1.345   1.119  14.609 -0.4962 -0.0333  0.1937
 4639TIP3    H135332   1.414   1.121  14.542  0.4543  1.5360  1.1509
 4639TIP3    H235333   1.270   1.161  14.567 -0.2403  0.0126 -0.2269
 4640TIP3   OH235334   0.813   4.231   1.300  0.4085 -0.5199  0.5563
 4640TIP3    H135335   0.767   4.261   1.378  1.2968  0.8308  0.5944
 4640TIP3    H235336   0.755   4.255   1.227 -0.6177 -2.1661  0.7884
 4641TIP3   OH235337   0.311   4.397  10.632 -0.0096 -0.2082  0.1329
 4641TIP3    H135338   0.233   4.431  10.676 -0.7031 -0.1886 -1.0585
 4641TIP3    H235339   0.358   4.349  10.700 -1.9446 -1.6970  0.5150
 4642TIP3   OH235340   4.165   2.026  14.706 -0.5848 -0.6683 -0.6172
 4642TIP3    H135341   4.158   1.983  14.621  0.7699 -0.4964 -0.8270
 4642TIP3    H235342   4.246   1.993  14.744 -0.4106  0.3922 -0.0353
 4643TIP3   OH235343   6.571   4.325  10.707  0.2987 -0.0503  0.6990
 4643TIP3    H135344   6.601   4.322  10.616  1.6190  2.8598  0.9494
 4643TIP3    H235345   6.477   4.342  10.700  0.6623  1.7669 -0.1646
 4644TIP3   OH235346   3.585   2.964  13.172  0.2065 -0.5602 -0.0738
 4644TIP3    H135347   3.545   3.022  13.106 -0.7022 -0.4349  0.5599
 4644TIP3    H235348   3.554   2.877  13.148  2.1965 -0.9400 -1.4857
 4645TIP3   OH235349   5.569   4.575  13.947 -0.0762  0.2764 -0.7336
 4645TIP3    H135350   5.516   4.650  13.977  0.5068  1.0983 -1.6874
 4645TIP3    H235351   5.632   4.614  13.885  0.1713 -1.0305 -1.3230
 4646TIP3   OH235352   5.393   2.262  12.485 -0.1914  0.2544  0.6852
 4646TIP3    H135353   5.423   2.331  12.426  1.1420  1.1648  2.3604
 4646TIP3    H235354   5.301   2.282  12.501  0.0644  1.3695  0.7903
 4647TIP3   OH235355   6.065   2.349  11.277 -0.0519 -0.4598  0.0347
 4647TIP3    H135356   6.020   2.432  11.259  1.8773  0.4348 -0.9254
 4647TIP3    H235357   6.039   2.326  11.366  0.7065  2.0867  0.9779
 4648TIP3   OH235358   4.564   4.878  10.748 -0.0563 -0.0138  0.5088
 4648TIP3    H135359   4.485   4.916  10.788  0.3228  1.0601  0.2631
 4648TIP3    H235360   4.612   4.953  10.714  1.7148 -0.5248  1.7623
 4649TIP3   OH235361   5.460   0.019   9.163  0.1739 -0.5710  0.0622
 4649TIP3    H135362   5.434  -0.036   9.089  1.2382  1.6979 -2.1468
 4649TIP3    H235363   5.545   0.054   9.137  0.0733  1.1660  1.8854
 4650TIP3   OH235364   4.511   5.092   0.114  0.2481 -0.8236 -0.4330
 4650TIP3    H135365   4.508   5.139   0.198 -0.1107 -3.5711  1.2064
 4650TIP3    H235366   4.451   5.140   0.057  0.8725  1.4087  0.6671
 4651TIP3   OH235367   5.817   4.265  11.983 -0.5742 -1.3155 -0.4833
 4651TIP3    H135368   5.730   4.306  11.983 -0.4828 -1.0475  0.9513
 4651TIP3    H235369   5.799   4.173  11.999 -0.6209 -1.3070 -0.4834
 4652TIP3   OH235370   4.534   1.375  10.755 -0.1499 -0.1723  0.2272
 4652TIP3    H135371   4.443   1.348  10.748 -0.8419  0.5333  4.1692
 4652TIP3    H235372   4.548   1.433  10.680 -2.6097 -1.0512 -1.0083
 4653TIP3   OH235373   6.934   3.360   3.493  0.0170  0.2094  0.3411
 4653TIP3    H135374   6.980   3.294   3.544 -0.2387 -0.4683 -0.2941
 4653TIP3    H235375   6.950   3.442   3.540  3.0025  0.2692 -0.5089
 4654TIP3   OH235376   1.734   1.983  14.557 -0.1044  0.0374 -0.4810
 4654TIP3    H135377   1.738   2.037  14.636 -0.2965 -2.7514  1.6171
 4654TIP3    H235378   1.660   2.018  14.507  0.4666  2.3352  0.1612
 4655TIP3   OH235379   5.859   4.776  12.206 -0.2028 -0.4306 -0.2148
 4655TIP3    H135380   5.767   4.799  12.195 -0.3653  0.2920  2.0856
 4655TIP3    H235381   5.891   4.758  12.117 -1.8373  2.0236 -1.4022
 4656TIP3   OH235382   5.145   6.707  12.381  0.7792 -0.5210 -0.1761
 4656TIP3    H135383   5.149   6.629  12.437 -2.2263 -1.3351 -0.9037
 4656TIP3    H235384   5.147   6.672  12.291 -1.9653  0.0156 -0.5269
 4657TIP3   OH235385   1.013   1.917   0.199  0.4865 -0.3885 -0.4092
 4657TIP3    H135386   0.924   1.884   0.190  0.1306  0.4752 -0.1212
 4657TIP3    H235387   1.032   1.959   0.114 -0.5929  2.2680  0.5568
 4658TIP3   OH235388   0.432   1.460  13.722 -0.6709  0.1959 -0.1550
 4658TIP3    H135389   0.404   1.492  13.808  0.5093  0.1939  0.2574
 4658TIP3    H235390   0.515   1.506  13.705  0.1542 -1.2848 -0.3615
 4659TIP3   OH235391   6.238   0.049   0.396  0.2350  0.2785  1.1080
 4659TIP3    H135392   6.288   0.006   0.466  0.3435 -2.7071 -0.6544
 4659TIP3    H235393   6.188  -0.021   0.356 -2.4846  2.5018  0.3064
 4660TIP3   OH235394   3.800   0.097  12.893  0.5443  0.0417 -0.3508
 4660TIP3    H135395   3.739   0.138  12.954  0.1052  0.8413 -1.2961
 4660TIP3    H235396   3.801   0.156  12.817  1.9741 -0.3155 -0.6290
 4661TIP3   OH235397   1.317   5.649  10.772 -0.8928  0.4112  0.2350
 4661TIP3    H135398   1.301   5.632  10.865 -0.3808  0.4723  0.3353
 4661TIP3    H235399   1.407   5.621  10.757 -0.9817  0.3828 -0.2480
 4662TIP3   OH235400   3.487   2.891  12.582 -0.4105  0.0735 -0.7543
 4662TIP3    H135401   3.553   2.822  12.589 -2.2369 -1.7210  0.0125
 4662TIP3    H235402   3.527   2.967  12.624  0.3562 -1.6328  1.8870
 4663TIP3   OH235403   1.205   5.570  11.923 -0.0418  0.0440  0.1618
 4663TIP3    H135404   1.205   5.605  11.834 -1.0828 -1.3189 -0.4044
 4663TIP3    H235405   1.186   5.646  11.978 -1.5384  0.5327 -0.9532
 4664TIP3   OH235406   1.653   5.229  13.130  0.5436  0.6234  0.5856
 4664TIP3    H135407   1.618   5.312  13.098  0.3032  0.6802  0.9981
 4664TIP3    H235408   1.736   5.252  13.172 -0.9294  1.1390  3.4610
 4665TIP3   OH235409   5.967   5.239  12.290  0.3799 -0.4935  0.1403
 4665TIP3    H135410   6.031   5.245  12.219  0.2598  1.7652  0.1694
 4665TIP3    H235411   5.952   5.329  12.318 -3.0320 -0.8592 -0.0344
 4666TIP3   OH235412   3.964   0.062  12.275  0.3270 -0.0717  0.1685
 4666TIP3    H135413   4.020   0.129  12.316  0.2040  1.7573 -2.4054
 4666TIP3    H235414   3.912   0.027  12.347  1.2636  1.7477  1.8320
 4667TIP3   OH235415   6.063   0.835   0.541 -0.3063 -0.6569 -0.7350
 4667TIP3    H135416   6.087   0.755   0.589  1.0031 -0.4250 -0.9602
 4667TIP3    H235417   6.132   0.844   0.475  0.2174  1.2537 -0.0034
 4668TIP3   OH235418   5.638   5.552   0.067 -0.1869  0.4927 -0.1526
 4668TIP3    H135419   5.714   5.609   0.052  0.1256  0.0769 -0.1635
 4668TIP3    H235420   5.591   5.553  -0.016 -0.4920  1.1864  0.0234
 4669TIP3   OH235421   4.533   2.185  13.785  0.4213  0.2761 -0.1043
 4669TIP3    H135422   4.523   2.124  13.858 -2.0963  0.9801  0.2169
 4669TIP3    H235423   4.517   2.271  13.823 -0.9584  0.6555 -1.4768
 4670TIP3   OH235424   5.119   6.879  12.875 -0.4476  0.2430  0.2230
 4670TIP3    H135425   5.195   6.868  12.932 -0.7000 -1.1382  0.3154
 4670TIP3    H235426   5.079   6.792  12.870 -0.0106  0.1285 -2.6497
 4671TIP3   OH235427   5.683   1.779  13.349 -0.0843 -0.0485 -0.2594
 4671TIP3    H135428   5.771   1.814  13.335  0.2032 -0.1311  1.1703
 4671TIP3    H235429   5.697   1.699  13.401 -0.8857 -1.0456 -1.5263
 4672TIP3   OH235430   1.433   4.646  13.469  0.1174 -0.4387  0.1173
 4672TIP3    H135431   1.493   4.572  13.458 -0.1516 -0.2711 -3.4246
 4672TIP3    H235432   1.489   4.723  13.465 -0.0656 -0.3495 -0.9742
 4673TIP3   OH235433   6.433   2.433   9.258  0.2346 -0.1294 -0.1085
 4673TIP3    H135434   6.457   2.373   9.327 -0.5081  1.6135  1.7682
 4673TIP3    H235435   6.472   2.517   9.284  1.7218  0.1855 -2.9001
 4674TIP3   OH235436   5.119   1.815  10.837 -0.7552  0.6020  0.3670
 4674TIP3    H135437   5.048   1.878  10.849 -1.4299  0.3024 -1.7003
 4674TIP3    H235438   5.145   1.825  10.745 -0.5963 -1.8102  0.0824
 4675TIP3   OH235439   4.809   1.216  14.978 -0.0462  0.4983 -0.2316
 4675TIP3    H135440   4.716   1.204  14.961 -0.0695  0.0066  0.2150
 4675TIP3    H235441   4.852   1.162  14.912 -0.1061 -0.1401  0.2366
 4676TIP3   OH235442   4.239   0.867  10.369  0.4735  0.4463 -0.1583
 4676TIP3    H135443   4.241   0.772  10.357 -1.9453  0.3086  0.1056
 4676TIP3    H235444   4.304   0.900  10.306 -1.2702 -1.1752 -3.0575
 4677TIP3   OH235445   0.482   6.223  13.023 -0.6884  0.2369 -0.0553
 4677TIP3    H135446   0.486   6.261  13.111  0.6297 -3.0051  1.4346
 4677TIP3    H235447   0.546   6.273  12.972  0.6696  0.3349  1.6599
 4678TIP3   OH235448   4.980   5.423   3.680  0.0281 -0.1402 -0.1752
 4678TIP3    H135449   5.062   5.375   3.691  1.5837  2.0500 -1.5263
 4678TIP3    H235450   4.921   5.384   3.744  1.6831 -2.6846 -0.0683
 4679TIP3   OH235451   4.498   4.835  11.857  0.1037 -0.2074 -0.2607
 4679TIP3    H135452   4.583   4.875  11.873  0.5822 -0.8227 -1.1816
 4679TIP3    H235453   4.465   4.878  11.779  0.0635 -0.7197 -0.5340
 4680TIP3   OH235454   3.738   0.037  13.585  0.4987  0.4417  0.3270
 4680TIP3    H135455   3.753   0.051  13.492  0.2952  2.7859  0.5913
 4680TIP3    H235456   3.823   0.048  13.626  0.8215 -1.7171  0.3838
 4681TIP3   OH235457   2.690   4.247  13.944  0.0984 -0.1779  0.7863
 4681TIP3    H135458   2.680   4.203  13.860 -0.5864  1.0112  0.2214
 4681TIP3    H235459   2.709   4.177  14.006 -0.1164 -1.1546 -0.2291
 4682TIP3   OH235460   1.722   0.611  13.603  0.3831 -0.2229  0.1278
 4682TIP3    H135461   1.702   0.626  13.696  0.5764 -2.5549  0.6021
 4682TIP3    H235462   1.816   0.626  13.596  0.2718  0.5364  0.1576
 4683TIP3   OH235463   2.615   1.442  14.540  0.3765  0.1875  0.0044
 4683TIP3    H135464   2.631   1.475  14.628 -0.5705 -1.4267  0.8243
 4683TIP3    H235465   2.521   1.457  14.526  0.2584 -0.7240 -0.2195
 4684TIP3   OH235466   2.654   5.594  11.555 -0.2546  0.8268  0.2521
 4684TIP3    H135467   2.561   5.574  11.556 -0.1774  0.4078 -0.3784
 4684TIP3    H235468   2.660   5.683  11.590 -0.7074  0.1640  2.1413
 4685TIP3   OH235469   5.052   4.531  10.446 -0.4784 -0.4205  0.2034
 4685TIP3    H135470   5.068   4.445  10.485  1.8388 -0.0766  0.1119
 4685TIP3    H235471   5.125   4.544  10.386 -0.7805  1.6192  0.2182
 4686TIP3   OH235472   4.632   4.632  12.709  0.0667  0.1400  0.3383
 4686TIP3    H135473   4.540   4.657  12.717  0.0098 -0.5941  2.4177
 4686TIP3    H235474   4.633   4.573  12.633 -1.7135 -2.0100  1.8465
 4687TIP3   OH235475   1.746   7.148  13.124  0.2428  0.0409 -0.0819
 4687TIP3    H135476   1.729   7.059  13.094 -1.7211  0.4285 -0.2738
 4687TIP3    H235477   1.742   7.142  13.219 -1.6813  0.1645 -0.1019
 4688TIP3   OH235478   6.233   6.882   1.412 -0.1282  0.0116  0.2027
 4688TIP3    H135479   6.213   6.934   1.490 -0.1780 -0.2534  0.3669
 4688TIP3    H235480   6.291   6.813   1.444  2.4220  1.6554 -0.4979
 4689TIP3   OH235481   1.655   5.970  14.981  0.5162  0.7562 -0.6399
 4689TIP3    H135482   1.612   6.040  15.029 -0.6654 -1.0674  1.0827
 4689TIP3    H235483   1.744   5.968  15.016  0.1027  0.4238  0.4234
 4690TIP3   OH235484   5.434   1.929  12.133  0.2278  0.1233  0.0832
 4690TIP3    H135485   5.469   1.864  12.194  0.1891  0.2155  0.2031
 4690TIP3    H235486   5.478   2.010  12.156 -0.7552  0.4593  0.8698
 4691TIP3   OH235487   2.782   2.988  10.254  0.2864  0.1614 -0.3453
 4691TIP3    H135488   2.744   3.066  10.294 -3.2900 -0.8201 -1.4188
 4691TIP3    H235489   2.822   3.020  10.173  3.2891  1.4427  1.4886
 4692TIP3   OH235490   6.802   5.542  12.346  0.2271  0.2257  0.0772
 4692TIP3    H135491   6.799   5.635  12.372  0.7710  0.2411  0.0877
 4692TIP3    H235492   6.856   5.500  12.412  0.4907  0.0112 -0.2703
 4693TIP3   OH235493   6.819   0.977  13.058  0.4907  0.3371 -0.2311
 4693TIP3    H135494   6.810   0.882  13.047  2.1660  0.0574  0.5190
 4693TIP3    H235495   6.753   1.014  13.000 -1.2877 -1.3003  0.6345
 4694TIP3   OH235496   5.591   0.438  13.391 -1.0383  0.2905 -0.2126
 4694TIP3    H135497   5.630   0.415  13.306  1.8598 -0.0555  1.1059
 4694TIP3    H235498   5.614   0.531  13.403  0.3458 -0.1808  1.0284
 4695TIP3   OH235499   4.862   5.712  12.305  0.5533  0.1125  0.3681
 4695TIP3    H135500   4.808   5.674  12.374 -0.4809  1.2276  0.2085
 4695TIP3    H235501   4.851   5.806  12.314 -0.2862  0.2904 -1.8040
 4696TIP3   OH235502   1.955   0.531  12.793  0.2564 -0.0903 -0.3462
 4696TIP3    H135503   2.033   0.563  12.838  2.5052 -2.3189 -2.3847
 4696TIP3    H235504   1.904   0.488  12.862  2.2061 -1.0119  0.6116
 4697TIP3   OH235505   4.582   1.291  13.622  0.8402 -0.1752 -0.0262
 4697TIP3    H135506   4.617   1.378  13.608 -1.4013  1.0069  1.1085
 4697TIP3    H235507   4.603   1.242  13.542 -0.5984  2.3801 -2.1126
 4698TIP3   OH235508   5.354   0.944   4.784  0.5233  0.3832 -0.0575
 4698TIP3    H135509   5.442   0.910   4.766  1.0248  2.2226 -1.4427
 4698TIP3    H235510   5.296   0.894   4.727  0.8631  0.0758 -0.1353
 4699TIP3   OH235511   7.084   1.029   9.937 -0.1726 -0.0061  0.0513
 4699TIP3    H135512   7.089   1.061   9.847  0.3397 -2.5348 -0.9142
 4699TIP3    H235513   7.147   0.957   9.941  1.0486  1.0685  2.9553
 4700TIP3   OH235514   0.790   1.811  15.404 -0.9942  0.0798 -0.5062
 4700TIP3    H135515   0.861   1.820  15.341 -0.9191  0.3222 -0.3872
 4700TIP3    H235516   0.711   1.798  15.350 -0.9191  0.2049 -0.6455
 4701TIP3   OH235517   2.292   3.719  11.204 -0.3985 -0.3472 -0.1448
 4701TIP3    H135518   2.209   3.684  11.171  0.3345  0.3838 -3.0902
 4701TIP3    H235519   2.298   3.807  11.167  0.9849  0.2444  1.3326
 4702TIP3   OH235520   0.647   1.042  13.965  0.3230  0.2606  0.7066
 4702TIP3    H135521   0.642   1.138  13.966  0.2867  0.2587  0.7062
 4702TIP3    H235522   0.612   1.016  14.050  1.8417  0.3157  1.3797
 4703TIP3   OH235523   4.345   4.453  12.839  0.5255 -0.2816 -0.1500
 4703TIP3    H135524   4.413   4.388  12.854 -0.6238 -2.0291 -1.9676
 4703TIP3    H235525   4.272   4.425  12.895  0.8402  0.8922  0.8907
 4704TIP3   OH235526   0.997   3.993  13.543  0.0005  0.0119  0.3480
 4704TIP3    H135527   1.048   3.992  13.624  1.8141  2.2417 -0.6552
 4704TIP3    H235528   1.033   3.923  13.490 -0.6302 -0.9058  1.0918
 4705TIP3   OH235529   3.027   6.852   9.613  0.3574  0.4281  0.2786
 4705TIP3    H135530   3.096   6.785   9.609  0.2349  0.2443  1.1424
 4705TIP3    H235531   3.072   6.934   9.591  0.5234  0.0830 -0.7218
 4706TIP3   OH235532   1.128   0.836   3.637 -0.0110  0.4340 -0.8592
 4706TIP3    H135533   1.045   0.835   3.685 -1.1427  0.7805 -2.6682
 4706TIP3    H235534   1.144   0.928   3.618 -0.4149  0.2238 -2.3860
 4707TIP3   OH235535   4.028   3.834  13.344 -0.0328  0.7601  0.3697
 4707TIP3    H135536   4.009   3.917  13.301  0.7476  1.5798  1.5510
 4707TIP3    H235537   3.992   3.843  13.432 -1.7636 -0.9554 -0.0710
 4708TIP3   OH235538   3.430   6.182   2.861 -0.1845  0.2709  0.2076
 4708TIP3    H135539   3.432   6.261   2.915 -1.2081  0.8565 -0.5581
 4708TIP3    H235540   3.473   6.116   2.913  0.2878  1.2285  1.0636
 4709TIP3   OH235541   0.963   0.073  13.239  0.0208  0.4184  0.1438
 4709TIP3    H135542   0.917   0.019  13.175  0.1612 -0.8081  1.0175
 4709TIP3    H235543   0.894   0.104  13.298  0.1779 -0.8632  1.0587
 4710TIP3   OH235544   5.749   2.589  12.829  0.1030 -0.3881 -0.0687
 4710TIP3    H135545   5.730   2.533  12.904 -1.0119 -1.3911 -1.0513
 4710TIP3    H235546   5.844   2.602  12.831  0.2822 -1.6665  0.6374
 4711TIP3   OH235547   0.786   0.780   2.222 -0.0262 -0.0691  0.0795
 4711TIP3    H135548   0.720   0.730   2.174 -0.3748 -1.7312  2.1884
 4711TIP3    H235549   0.868   0.760   2.176 -0.6960  0.7781 -1.5989
 4712TIP3   OH235550   6.990   5.327   1.103 -0.1730  0.4962  0.2726
 4712TIP3    H135551   6.912   5.307   1.155  0.0430 -0.2846  0.3123
 4712TIP3    H235552   7.017   5.243   1.067  0.2437  0.8751 -0.3196
 4713TIP3   OH235553   6.487   6.708  10.421 -0.2835 -0.1011 -0.3809
 4713TIP3    H135554   6.570   6.755  10.431 -0.7914  1.0912 -1.5301
 4713TIP3    H235555   6.484   6.683  10.329 -1.8818  1.2394 -0.7338
 4714TIP3   OH235556   4.193   6.900  11.390  0.0550 -0.2374 -0.7340
 4714TIP3    H135557   4.287   6.899  11.407  0.1224  0.1037 -1.0647
 4714TIP3    H235558   4.175   6.814  11.351  0.2484 -0.2606 -0.7750
 4715TIP3   OH235559   1.945   1.829  10.270  0.1116 -0.9314 -0.0159
 4715TIP3    H135560   1.889   1.786  10.334  2.3059 -0.5213  2.3958
 4715TIP3    H235561   2.008   1.762  10.244 -0.5363 -0.9855 -1.5432
 4716TIP3   OH235562   5.763   4.209  10.684 -0.9179  0.7032 -0.6446
 4716TIP3    H135563   5.722   4.126  10.709  0.9025 -0.1537 -0.2948
 4716TIP3    H235564   5.764   4.261  10.764  1.4353 -0.5250  0.2158
 4717TIP3   OH235565   4.016   5.991   0.481  0.3589  0.1816 -0.0823
 4717TIP3    H135566   4.014   5.913   0.425  0.1556  1.1077 -1.3951
 4717TIP3    H235567   3.928   6.028   0.473  0.0965 -0.0381  1.4231
 4718TIP3   OH235568   6.508   3.364   0.050 -0.1614  0.5242 -0.2898
 4718TIP3    H135569   6.560   3.309  -0.009  0.6027  1.5359 -0.5902
 4718TIP3    H235570   6.572   3.403   0.109 -1.0466 -1.5422  2.1899
 4719TIP3   OH235571   3.271   4.934  13.063  0.1653 -0.4630  0.0173
 4719TIP3    H135572   3.353   4.907  13.021  0.5628 -0.4216  0.7466
 4719TIP3    H235573   3.219   4.854  13.067  0.2214 -0.5193 -0.3280
 4720TIP3   OH235574   5.476   4.062  14.913 -0.0044  0.1610 -0.0033
 4720TIP3    H135575   5.527   4.072  14.833 -0.2782 -0.2216 -0.2275
 4720TIP3    H235576   5.490   3.971  14.940  1.5625  0.7596  1.4005
 4721TIP3   OH235577   6.454   6.598  14.615  0.6391  0.1557 -0.1123
 4721TIP3    H135578   6.391   6.586  14.543  1.3282 -2.3762 -0.4099
 4721TIP3    H235579   6.531   6.634  14.572  1.1803 -1.6928 -0.7906
 4722TIP3   OH235580   5.956   0.902  14.614 -0.3136 -0.0302  0.5601
 4722TIP3    H135581   5.894   0.880  14.545  0.7736 -0.7971 -0.2038
 4722TIP3    H235582   5.994   0.819  14.641  1.0289  0.4997  0.3793
 4723TIP3   OH235583   3.516   4.732  14.471  0.4776  0.4299 -0.1616
 4723TIP3    H135584   3.476   4.761  14.553  2.0325 -0.5275  0.9956
 4723TIP3    H235585   3.443   4.697  14.420 -0.2518 -1.1660  1.8214
 4724TIP3   OH235586   4.596   0.181  13.248  0.0619 -0.3565 -0.5084
 4724TIP3    H135587   4.619   0.218  13.333  0.0021 -0.5665 -0.3991
 4724TIP3    H235588   4.564   0.256  13.197 -1.0789 -0.4286  0.0685
 4725TIP3   OH235589   2.970   1.592   3.992  0.0680 -0.3665 -0.2072
 4725TIP3    H135590   3.054   1.635   4.007 -0.0800 -0.6202  1.6897
 4725TIP3    H235591   2.905   1.661   4.004 -0.0777 -0.6520  0.7253
 4726TIP3   OH235592   2.698   4.192   0.123 -0.0145  0.4330 -0.1607
 4726TIP3    H135593   2.632   4.182   0.191  0.7525  0.9132  0.6792
 4726TIP3    H235594   2.648   4.215   0.044 -0.8716  0.4162  0.3631
 4727TIP3   OH235595   4.143   2.866  10.242  0.3589 -0.4348  0.1248
 4727TIP3    H135596   4.080   2.879  10.171 -0.5639  0.8249  1.1225
 4727TIP3    H235597   4.219   2.828  10.200  0.4417  1.6952 -1.8608
 4728TIP3   OH235598   3.123   3.616  14.285  0.3873 -0.3805 -0.8586
 4728TIP3    H135599   3.089   3.705  14.278 -0.7668 -0.8608 -1.5193
 4728TIP3    H235600   3.177   3.605  14.207  0.6660 -0.2107 -0.6923
 4729TIP3   OH235601   1.523   4.691   3.088  0.4616  0.2913  0.3791
 4729TIP3    H135602   1.502   4.643   3.168 -0.3891 -0.6098 -0.3527
 4729TIP3    H235603   1.551   4.777   3.119  2.0165 -0.6311  1.7241
 4730TIP3   OH235604   4.863   2.379   3.763 -0.8511 -0.5293  0.5908
 4730TIP3    H135605   4.782   2.431   3.760 -1.7794 -1.8567  1.6055
 4730TIP3    H235606   4.919   2.418   3.695 -2.0134  0.9370  0.4238
 4731TIP3   OH235607   3.346   5.902  13.313  0.7533  0.1974 -0.8408
 4731TIP3    H135608   3.426   5.889  13.261  0.4137 -0.6633 -1.1801
 4731TIP3    H235609   3.363   5.855  13.395  1.0011  0.9156 -0.4812
 4732TIP3   OH235610   6.358   1.701  14.316  0.4709  0.5056 -0.1736
 4732TIP3    H135611   6.362   1.745  14.231  0.5559  0.0799 -0.3921
 4732TIP3    H235612   6.289   1.748  14.363  0.2495  0.5854 -0.5709
 4733TIP3   OH235613   5.004   5.084  15.461  0.2316  0.4409  0.8511
 4733TIP3    H135614   5.047   5.164  15.431 -1.4240  0.8601 -0.5680
 4733TIP3    H235615   4.927   5.075  15.404 -0.2331 -1.5688  1.6988
 4734TIP3   OH235616   4.781   5.735  13.868 -0.2317  0.5571 -0.4074
 4734TIP3    H135617   4.864   5.724  13.914 -0.6359  0.7263  0.3824
 4734TIP3    H235618   4.750   5.822  13.894 -0.9199  0.2731 -0.2321
 4735TIP3   OH235619   0.153   4.083  11.761  0.2889 -0.1504  0.0111
 4735TIP3    H135620   0.067   4.106  11.798  0.8415  2.8820 -0.3433
 4735TIP3    H235621   0.134   4.012  11.699 -1.3775 -1.9146  2.3331
 4736TIP3   OH235622   5.159   4.237  12.174  0.0871  0.5339 -0.3440
 4736TIP3    H135623   5.097   4.306  12.149 -0.7020  0.2316  0.6934
 4736TIP3    H235624   5.227   4.241  12.107 -0.1572  2.0279 -0.5569
 4737TIP3   OH235625   2.615   0.413   0.148 -0.1218 -0.1911 -0.3593
 4737TIP3    H135626   2.567   0.330   0.146 -1.6926  0.6277  1.0928
 4737TIP3    H235627   2.557   0.473   0.194  1.0956  1.6690 -1.1428
 4738TIP3   OH235628   5.180   3.231   3.176  0.1566  0.3182  0.4046
 4738TIP3    H135629   5.212   3.297   3.238  1.9345 -0.5922  0.5204
 4738TIP3    H235630   5.257   3.177   3.157 -0.6054 -0.1012 -1.7693
 4739TIP3   OH235631   3.882   0.396  13.410  0.1306 -0.0101 -0.1030
 4739TIP3    H135632   3.818   0.427  13.474  0.4446  0.2180  0.1005
 4739TIP3    H235633   3.876   0.458  13.338  0.3126  0.1699  0.0340
 4740TIP3   OH235634   0.565   0.276  10.907  0.7200 -0.2712  0.0588
 4740TIP3    H135635   0.604   0.199  10.949  0.0072 -1.6695 -1.7156
 4740TIP3    H235636   0.545   0.247  10.818 -1.3136  1.4021 -0.0953
 4741TIP3   OH235637   1.919   6.058   4.312  0.1063 -1.0673 -0.6091
 4741TIP3    H135638   1.872   5.996   4.369 -1.0652  0.5217  0.2280
 4741TIP3    H235639   1.891   6.034   4.223 -2.2068 -0.3240 -0.1620
 4742TIP3   OH235640   4.629   2.228  14.143 -0.0704  0.0343  0.4420
 4742TIP3    H135641   4.688   2.166  14.099 -0.2399  0.8371 -0.9838
 4742TIP3    H235642   4.678   2.310  14.145 -0.3500  0.1901  1.1367
 4743TIP3   OH235643   2.547   1.836   9.908 -0.3477 -0.2536 -0.5531
 4743TIP3    H135644   2.589   1.866   9.827  2.3021  0.1872  0.8647
 4743TIP3    H235645   2.602   1.763   9.937 -1.6771 -0.8726  0.5117
 4744TIP3   OH235646   3.013   1.918   1.045  0.6149 -0.0082  0.9696
 4744TIP3    H135647   3.060   1.923   1.128 -0.6057  0.6292  1.6443
 4744TIP3    H235648   2.994   1.825   1.033  0.7486 -0.0961  1.4308
 4745TIP3   OH235649   4.557   4.953  13.291 -0.1724  0.4383  0.3498
 4745TIP3    H135650   4.515   4.907  13.219 -0.1741  0.4088  0.3696
 4745TIP3    H235651   4.632   4.899  13.314  0.5724  1.0883 -0.4816
 4746TIP3   OH235652   6.752   5.669  13.980 -0.4467 -0.1116 -0.1186
 4746TIP3    H135653   6.680   5.610  13.958 -0.0822  0.1076 -2.0473
 4746TIP3    H235654   6.727   5.706  14.065 -2.5006 -0.2136 -0.6164
 4747TIP3   OH235655   6.897   1.235   9.999  0.4381  0.2150  0.4538
 4747TIP3    H135656   6.904   1.273   9.912 -2.9287  0.9991  0.3738
 4747TIP3    H235657   6.941   1.151   9.993  0.8269  0.5346 -1.8113
 4748TIP3   OH235658   5.519   0.171  10.603 -0.4506 -0.3609  0.1774
 4748TIP3    H135659   5.558   0.100  10.551  0.9317  0.0548  0.6066
 4748TIP3    H235660   5.538   0.250  10.554  0.6800  0.0126  1.1859
 4749TIP3   OH235661   4.734   6.661  10.888  0.8484 -0.1837  0.0030
 4749TIP3    H135662   4.687   6.637  10.809 -0.5864 -0.6265  0.9602
 4749TIP3    H235663   4.775   6.580  10.917 -1.1694 -0.7902  1.3548
 4750TIP3   OH235664   2.566   1.755  11.299  0.3750  0.0117 -0.1735
 4750TIP3    H135665   2.510   1.830  11.279 -0.0266 -0.5104 -1.0363
 4750TIP3    H235666   2.518   1.679  11.266  0.9359 -0.5945  0.3752
 4751TIP3   OH235667   3.573   2.797   1.499 -0.0822 -0.0069 -0.2121
 4751TIP3    H135668   3.650   2.807   1.555  0.4250 -0.1912 -0.8647
 4751TIP3    H235669   3.504   2.845   1.546  0.3140 -0.1845  0.5840
 4752TIP3   OH235670   2.881   3.185   5.437  0.5482 -0.1480  0.6414
 4752TIP3    H135671   2.794   3.212   5.465  0.7182  1.6144 -0.4042
 4752TIP3    H235672   2.919   3.144   5.514 -1.0012 -0.4656  1.2732
 4753TIP3   OH235673   6.055   0.312  10.740 -0.1933  0.1160  0.3432
 4753TIP3    H135674   6.070   0.220  10.762  0.2076  0.6756  2.6100
 4753TIP3    H235675   5.981   0.338  10.794 -1.0376  0.8726 -1.1101
 4754TIP3   OH235676   1.063   2.003  15.386 -0.0243 -0.0019 -0.2939
 4754TIP3    H135677   1.008   1.936  15.346  0.1398  1.0226 -2.3306
 4754TIP3    H235678   1.148   1.995  15.343  0.2178  1.0346 -0.0508
 4755TIP3   OH235679   1.870   1.957   9.865 -0.1202 -0.1809  0.5172
 4755TIP3    H135680   1.796   2.009   9.894  0.4008  0.3881  0.8331
 4755TIP3    H235681   1.947   2.007   9.891  0.3734 -0.4550 -0.3735
 4756TIP3   OH235682   5.439   1.424  11.033  0.3405 -0.1769  0.9606
 4756TIP3    H135683   5.475   1.511  11.015  0.0871 -0.1557  0.5418
 4756TIP3    H235684   5.418   1.426  11.127 -0.5104  0.5389  0.7723
 4757TIP3   OH235685   4.218   1.980  11.544 -0.4146 -0.1623 -0.4167
 4757TIP3    H135686   4.251   1.986  11.455  0.5929  2.1804  0.0410
 4757TIP3    H235687   4.292   1.946  11.595  0.4177  2.2739  0.1188
 4758TIP3   OH235688   2.163   3.506   0.310  0.8065 -0.0402 -0.8538
 4758TIP3    H135689   2.244   3.533   0.268  1.6330 -0.1213  0.5966
 4758TIP3    H235690   2.147   3.417   0.277  0.7423  0.3585 -1.9160
 4759TIP3   OH235691   0.060   3.249  15.188 -0.0898 -0.9927 -0.2436
 4759TIP3    H135692   0.074   3.342  15.206  2.6651 -1.3165 -0.4138
 4759TIP3    H235693  -0.036   3.240  15.183 -0.5164  1.4177  1.8207
 4760TIP3   OH235694   5.836   1.532   2.672  0.4538  0.3076 -0.0204
 4760TIP3    H135695   5.911   1.519   2.730 -0.4992  1.1297  1.4778
 4760TIP3    H235696   5.848   1.619   2.636 -0.4523  1.0326  1.3419
 4761TIP3   OH235697   6.027   4.711  12.420 -0.6336 -0.2590  1.0384
 4761TIP3    H135698   6.000   4.757  12.340 -0.7166  0.9936  1.7498
 4761TIP3    H235699   5.985   4.625  12.414 -0.8067 -0.1108 -0.1590
 4762TIP3   OH235700   3.330   1.672  13.954 -0.6609  0.1681  0.2306
 4762TIP3    H135701   3.344   1.751  13.902  0.8059  0.6924  1.3519
 4762TIP3    H235702   3.242   1.682  13.991 -1.0796  0.5397 -0.8294
 4763TIP3   OH235703   5.141   6.248  10.124  0.1086  0.4959  0.1049
 4763TIP3    H135704   5.062   6.302  10.122  0.6698  1.4676  1.8982
 4763TIP3    H235705   5.198   6.287  10.058 -0.2803  0.8340 -0.0347
 4764TIP3   OH235706   6.137   5.275  12.060  0.7383  0.4634 -0.1701
 4764TIP3    H135707   6.074   5.307  11.996 -0.3153 -0.8023  0.1882
 4764TIP3    H235708   6.201   5.345  12.068 -0.9517  2.0632 -0.0819
 4765TIP3   OH235709   3.881   1.076  14.330  0.6716  0.3209  0.1258
 4765TIP3    H135710   3.974   1.061  14.344  0.4491 -0.0286  1.3759
 4765TIP3    H235711   3.850   0.999  14.283  0.9590  0.2979 -0.0239
 4766TIP3   OH235712   0.188   4.324  14.452 -0.0406 -0.1493  0.0538
 4766TIP3    H135713   0.102   4.338  14.413  0.4010  1.4231 -0.4373
 4766TIP3    H235714   0.169   4.285  14.538 -1.3036  1.0904  0.3725
 4767TIP3   OH235715   0.339   4.978   0.188  0.4774 -0.3086  0.1525
 4767TIP3    H135716   0.322   5.066   0.154 -1.7536  0.1670  2.2238
 4767TIP3    H235717   0.275   4.922   0.143  2.5245 -1.1930 -1.8994
 4768TIP3   OH235718   4.225   2.837   0.950 -0.1944  0.3554  0.0769
 4768TIP3    H135719   4.186   2.891   0.881 -1.1901  0.8931  1.0080
 4768TIP3    H235720   4.298   2.889   0.983  0.9311 -0.3623 -1.2438
 4769TIP3   OH235721   4.086   6.754   0.304 -0.2662  0.0624 -0.2237
 4769TIP3    H135722   4.050   6.750   0.392  1.4962  0.3789  0.5703
 4769TIP3    H235723   4.141   6.676   0.297 -2.2580 -1.2869 -1.9884
 4770TIP3   OH235724   1.347   5.848  10.404 -0.2857  0.1611 -0.8988
 4770TIP3    H135725   1.359   5.825  10.312  0.2117 -0.0426 -0.7899
 4770TIP3    H235726   1.279   5.788  10.435  0.7805 -0.9936 -0.7022
 4771TIP3   OH235727   4.033   5.854  12.474  0.4405 -0.0863  0.1037
 4771TIP3    H135728   4.098   5.800  12.519 -0.0172 -0.7093  0.0329
 4771TIP3    H235729   4.011   5.922  12.537 -2.2131 -2.4969  1.9900
 4772TIP3   OH235730   5.342   3.474  11.399 -0.4447 -0.1656  0.0190
 4772TIP3    H135731   5.368   3.564  11.377 -3.1481  0.3233 -1.5787
 4772TIP3    H235732   5.293   3.444  11.323  0.7750 -3.2374  0.3021
 4773TIP3   OH235733   4.922   2.998  10.830  0.5586 -0.0573  0.2456
 4773TIP3    H135734   5.014   2.974  10.824  0.5838 -0.1619  1.0476
 4773TIP3    H235735   4.875   2.926  10.788  0.8594  0.2342 -0.6276
 4774TIP3   OH235736   4.818   3.764  11.309 -0.1143  0.2397 -0.0557
 4774TIP3    H135737   4.856   3.849  11.330 -1.8336  1.0946 -0.1945
 4774TIP3    H235738   4.730   3.766  11.348 -0.1772 -1.5123  0.0107
 4775TIP3   OH235739   5.298   6.464  11.431 -0.3094 -0.1830 -0.3970
 4775TIP3    H135740   5.282   6.546  11.385 -2.4340  0.0493  0.6533
 4775TIP3    H235741   5.362   6.418  11.376 -1.3798  0.8378 -2.6337
 4776TIP3   OH235742   5.292   5.207  12.359  0.3608  0.2019  0.2606
 4776TIP3    H135743   5.323   5.245  12.277  0.2275 -1.4750 -0.6200
 4776TIP3    H235744   5.323   5.116  12.356 -0.2860 -0.0921  1.7248
 4777TIP3   OH235745   2.265   7.073  10.740 -0.0504 -0.7061 -0.0972
 4777TIP3    H135746   2.258   7.048  10.832  0.1810  0.3465  0.2209
 4777TIP3    H235747   2.228   6.999  10.692  0.1431 -1.4149  0.8225
 4778TIP3   OH235748   2.960   5.534  10.474 -0.0959  0.1446  0.1588
 4778TIP3    H135749   2.918   5.527  10.559 -0.6264 -0.9009 -0.1736
 4778TIP3    H235750   2.944   5.450  10.432  1.6130  0.0251 -0.3238
 4779TIP3   OH235751   5.352   5.558  13.870  0.2613 -0.1371  0.4829
 4779TIP3    H135752   5.374   5.632  13.815 -2.5441  0.5223  0.1277
 4779TIP3    H235753   5.305   5.596  13.945 -1.5547 -1.5102  0.1189
 4780TIP3   OH235754   4.866   2.217  13.058 -0.3698  0.2027 -0.3081
 4780TIP3    H135755   4.940   2.234  12.999 -0.5188  0.4127 -0.4343
 4780TIP3    H235756   4.886   2.269  13.137 -0.4625  0.3918 -0.4068
 4781TIP3   OH235757   6.340   5.219   3.477  0.5023 -0.0901  0.1920
 4781TIP3    H135758   6.399   5.273   3.529  1.0299 -0.3588 -0.1198
 4781TIP3    H235759   6.309   5.277   3.407  0.6139 -0.0286  0.1939
 4782TIP3   OH235760   6.502   2.027   9.573  0.3388 -0.0071  0.2041
 4782TIP3    H135761   6.407   2.034   9.574  0.2273 -1.3452  0.5546
 4782TIP3    H235762   6.531   2.099   9.517 -0.9505 -0.4032 -1.0054
 4783TIP3   OH235763   2.087   4.990   0.913  0.2119  0.3310  0.4240
 4783TIP3    H135764   2.071   4.899   0.936 -0.1450  0.4238  0.5428
 4783TIP3    H235765   2.005   5.035   0.934  0.4650  0.7200  0.5948
 4784TIP3   OH235766   6.112   6.029  12.560  0.3697 -0.0786  0.1364
 4784TIP3    H135767   6.023   5.997  12.580  0.8734 -1.6319  0.0145
 4784TIP3    H235768   6.169   5.980  12.619  1.3698 -0.8068 -1.3930
 4785TIP3   OH235769   1.382   5.430  13.424  0.2463  0.2118  0.3615
 4785TIP3    H135770   1.473   5.408  13.407 -0.3538 -1.5999 -0.7803
 4785TIP3    H235771   1.356   5.486  13.351  0.7340  1.8035  1.3403
 4786TIP3   OH235772   3.400   3.651   9.764 -0.2529 -0.3014 -0.1479
 4786TIP3    H135773   3.423   3.730   9.715 -1.6371  0.7042  0.7522
 4786TIP3    H235774   3.447   3.581   9.720  1.6688  1.1237 -0.4876
 4787TIP3   OH235775   4.497   1.633   1.013  0.1929 -0.3292  0.3353
 4787TIP3    H135776   4.403   1.642   1.029 -0.3813 -1.1112 -2.1348
 4787TIP3    H235777   4.534   1.718   1.036 -1.1180  0.0278  1.2106
 4788TIP3   OH235778   6.190   4.892  12.534  0.3656  0.3954 -0.5398
 4788TIP3    H135779   6.191   4.958  12.465  1.2123 -0.3374 -1.2421
 4788TIP3    H235780   6.131   4.824  12.502 -0.4002  0.7175  0.1266
 4789TIP3   OH235781   5.041   1.181  10.657 -0.7575  0.2905  0.1125
 4789TIP3    H135782   4.966   1.127  10.682 -1.2147  0.7949 -0.1349
 4789TIP3    H235783   5.117   1.132  10.687 -1.0668 -1.2639 -1.5058
 4790TIP3   OH235784   5.021   6.517  11.419  0.6409 -0.2576  0.3953
 4790TIP3    H135785   5.106   6.511  11.463 -0.2039  0.3546  2.2120
 4790TIP3    H235786   5.017   6.439  11.363  2.7535  0.1734 -0.4295
 4791TIP3   OH235787   0.919   1.183  11.170 -0.8193  0.1930 -0.3351
 4791TIP3    H135788   0.846   1.135  11.131 -1.4331  1.0924 -0.3019
 4791TIP3    H235789   0.972   1.211  11.095 -1.5068  1.1291 -0.4798
 4792TIP3   OH235790   5.956   3.720  11.616  0.0623  0.0362 -0.3708
 4792TIP3    H135791   5.926   3.783  11.681 -0.2882  1.0130 -1.4535
 4792TIP3    H235792   6.037   3.685  11.652  0.2500  1.0897  0.2600
 4793TIP3   OH235793   4.069   3.586  12.740 -0.2075  0.0995  0.6327
 4793TIP3    H135794   4.059   3.538  12.823 -1.7987  1.5873  1.3656
 4793TIP3    H235795   3.988   3.636  12.732  0.2312  0.5408 -1.4961
 4794TIP3   OH235796   2.576   2.503  14.089 -0.2642  0.2268 -0.2118
 4794TIP3    H135797   2.544   2.580  14.041  1.6119  0.4181 -1.2502
 4794TIP3    H235798   2.668   2.522  14.107  0.5365 -2.1612 -1.3665
 4795TIP3   OH235799   4.870   6.436   1.598 -0.3178  0.0979  0.3033
 4795TIP3    H135800   4.795   6.494   1.591 -1.0562 -0.6054  1.8455
 4795TIP3    H235801   4.940   6.490   1.633 -0.6237  0.3563  0.5162
 4796TIP3   OH235802   6.158   3.820  14.463  0.1448 -0.5648 -0.4480
 4796TIP3    H135803   6.242   3.786  14.494  1.2222  1.6422 -0.7181
 4796TIP3    H235804   6.181   3.871  14.385 -1.5580 -0.4229 -0.8980
 4797TIP3   OH235805   4.483   6.634  13.094 -0.1232 -0.1136 -0.3681
 4797TIP3    H135806   4.476   6.699  13.164 -1.5554 -0.4937 -0.1285
 4797TIP3    H235807   4.557   6.579  13.119 -1.5102 -1.1651  1.6673
 4798TIP3   OH235808   0.892   5.374  10.122  0.5460 -0.0440  0.6846
 4798TIP3    H135809   0.827   5.318  10.163 -0.4373  0.1163 -0.6112
 4798TIP3    H235810   0.940   5.317  10.062  2.7357 -0.5433  2.7306
 4799TIP3   OH235811   5.940   6.772   9.630  0.6583 -0.5497  0.1578
 4799TIP3    H135812   5.899   6.705   9.684  1.5507 -0.5625  0.8343
 4799TIP3    H235813   6.034   6.762   9.646  1.2059 -2.1322 -3.1831
 4800TIP3   OH235814   3.842   5.318   9.657  0.1023 -0.4820  0.4737
 4800TIP3    H135815   3.791   5.399   9.660  1.8182  0.6942 -0.2853
 4800TIP3    H235816   3.804   5.268   9.585 -0.5463 -0.0591  0.5121
 4801TIP3   OH235817   4.105   3.305  13.879  0.1374  0.6963  0.0645
 4801TIP3    H135818   4.012   3.316  13.897 -0.2590 -0.3449 -1.1709
 4801TIP3    H235819   4.109   3.281  13.786  1.3229 -2.4419  0.7984
 4802TIP3   OH235820   1.060   3.364   9.936  0.1829 -0.5259  0.4253
 4802TIP3    H135821   1.155   3.357   9.924  0.2535  0.3542  0.4504
 4802TIP3    H235822   1.048   3.442   9.989 -0.6099 -0.1520 -0.2838
 4803TIP3   OH235823   2.758   3.484  14.656 -0.0268  0.1594  0.0654
 4803TIP3    H135824   2.810   3.424  14.603 -0.0062 -0.5953  0.9264
 4803TIP3    H235825   2.692   3.517  14.595  1.9375  1.8406 -1.3149
 4804TIP3   OH235826   3.702   2.837  13.561  0.4285 -0.0386 -0.0971
 4804TIP3    H135827   3.744   2.856  13.477  0.9507  0.4187  0.2642
 4804TIP3    H235828   3.677   2.923  13.595  1.5207 -0.0939  0.8908
 4805TIP3   OH235829   4.930   3.778  12.377  0.1936 -0.0703  0.1586
 4805TIP3    H135830   4.922   3.870  12.355 -0.4203  0.2016  1.3974
 4805TIP3    H235831   4.971   3.777  12.464 -1.4209 -0.8481  0.9721
 4806TIP3   OH235832   6.915   3.160  14.588 -0.3525 -0.0288 -0.1578
 4806TIP3    H135833   6.861   3.107  14.529 -0.7744 -0.0641  0.2526
 4806TIP3    H235834   6.986   3.192  14.533 -0.3991 -0.5676 -0.5445
 4807TIP3   OH235835   6.632   0.709   0.090  0.5993  0.0321  0.2878
 4807TIP3    H135836   6.663   0.800   0.089  0.2359  0.1714  0.7550
 4807TIP3    H235837   6.701   0.661   0.135  0.5833  0.1627  0.4537
 4808TIP3   OH235838   5.213   2.045  14.357  1.1323 -0.3098  0.3598
 4808TIP3    H135839   5.293   2.009  14.319  0.9828  0.0099 -0.2711
 4808TIP3    H235840   5.219   2.025  14.451  1.0583 -1.9424  0.0366
 4809TIP3   OH235841   2.645   3.076  11.994  0.0754  0.0290  0.0005
 4809TIP3    H135842   2.716   3.026  11.954  0.7678 -0.2059  1.4417
 4809TIP3    H235843   2.581   3.010  12.020  0.4720 -0.0299  0.8824
 4810TIP3   OH235844   1.156   2.290  10.248  0.2663  0.1335  0.0332
 4810TIP3    H135845   1.201   2.342  10.315 -1.4660  1.6640  0.0946
 4810TIP3    H235846   1.116   2.218  10.297  0.6735  0.1107  0.3385
 4811TIP3   OH235847   0.513   5.072  13.655 -0.2088  0.3178  0.2094
 4811TIP3    H135848   0.435   5.019  13.640  0.6877 -1.8705  2.5329
 4811TIP3    H235849   0.508   5.096  13.748  1.2112  1.2773  0.0660
 4812TIP3   OH235850   6.882   1.335  14.239 -0.0554  0.1574  0.0570
 4812TIP3    H135851   6.953   1.399  14.240  0.9949 -0.9510  1.9601
 4812TIP3    H235852   6.920   1.256  14.276 -2.1742 -0.6126  0.7430
 4813TIP3   OH235853   4.161   6.482  11.712  0.1096  0.3961 -0.2483
 4813TIP3    H135854   4.201   6.569  11.717 -0.4724  0.6272  0.5874
 4813TIP3    H235855   4.139   6.471  11.619  0.6781  0.9013 -0.4534
 4814TIP3   OH235856   4.102   5.808  11.031 -0.1090 -0.1477  0.2664
 4814TIP3    H135857   4.161   5.828  11.104 -1.3207  2.6224  0.5801
 4814TIP3    H235858   4.040   5.744  11.067  1.3829 -1.5292  0.5288
 4815TIP3   OH235859   1.731   4.433   9.518  0.2085  0.0990 -0.3164
 4815TIP3    H135860   1.640   4.447   9.544  0.1207 -0.4536 -0.3177
 4815TIP3    H235861   1.782   4.458   9.596 -0.0259 -1.0646  0.2275
 4816TIP3   OH235862   6.640   1.808   0.624 -0.4948  0.1132  0.0083
 4816TIP3    H135863   6.643   1.716   0.651 -0.4315  0.0446 -0.2305
 4816TIP3    H235864   6.730   1.827   0.597 -0.0856  0.7294  1.6435
 4817TIP3   OH235865   1.139   5.573  12.964  0.3184 -0.1569 -0.4248
 4817TIP3    H135866   1.086   5.496  12.983  0.1098 -0.1082 -0.7928
 4817TIP3    H235867   1.204   5.575  13.034  0.5821 -0.8987 -0.6433
 4818TIP3   OH235868   4.014   0.556  10.966 -0.0004 -0.2649  0.0301
 4818TIP3    H135869   3.946   0.494  10.992 -1.7890  0.1303 -3.2314
 4818TIP3    H235870   4.087   0.537  11.026 -2.5356 -1.3633  3.0636
 4819TIP3   OH235871   2.711   6.480   3.220 -0.1025 -0.8841  0.4643
 4819TIP3    H135872   2.620   6.462   3.241 -0.1201 -1.0322  0.2690
 4819TIP3    H235873   2.753   6.495   3.305 -0.2405 -1.1345  0.5799
 4820TIP3   OH235874   6.765   7.011  11.565  0.4801 -0.2846  0.1586
 4820TIP3    H135875   6.759   7.044  11.655 -0.1413  0.5102 -0.1623
 4820TIP3    H235876   6.858   7.020  11.543  0.5771 -0.1679  0.6050
 4821TIP3   OH235877   4.507   1.184  10.109  0.2228  0.6926  0.1155
 4821TIP3    H135878   4.483   1.233  10.188  1.0481 -1.3378  1.6864
 4821TIP3    H235879   4.446   1.111  10.106  0.3066  0.6472 -1.0626
 4822TIP3   OH235880   0.371   1.445  12.592  0.5268  0.3809 -0.2702
 4822TIP3    H135881   0.390   1.354  12.573 -0.6084  0.2496 -0.8844
 4822TIP3    H235882   0.384   1.453  12.687  3.8104  0.4272 -0.6239
 4823TIP3   OH235883   6.993   1.693  10.669  0.3342  0.7440  0.0290
 4823TIP3    H135884   6.982   1.618  10.610 -1.6467 -0.5165  1.8482
 4823TIP3    H235885   7.072   1.736  10.638  1.5166 -2.0357 -1.1733
 4824TIP3   OH235886   3.780   4.923  14.295 -0.6684  0.1757 -0.2967
 4824TIP3    H135887   3.832   4.992  14.253 -2.3863  0.5596 -1.9441
 4824TIP3    H235888   3.745   4.964  14.374 -0.7363  0.8430 -0.6626
 4825TIP3   OH235889   4.369   1.857   0.732  0.1009  0.5816  0.1815
 4825TIP3    H135890   4.333   1.788   0.786 -3.2033  1.8084 -0.1829
 4825TIP3    H235891   4.328   1.844   0.646  2.4819  0.7421 -1.0759
 4826TIP3   OH235892   6.809   2.226  12.040 -0.2026 -0.3836 -0.2919
 4826TIP3    H135893   6.888   2.214  12.093 -0.5599  0.0621  0.3607
 4826TIP3    H235894   6.839   2.218  11.950  1.4138  3.5963 -0.3224
 4827TIP3   OH235895   2.512   0.306   9.993  0.6545  0.3354 -0.3464
 4827TIP3    H135896   2.444   0.303  10.061  0.8359  1.8236 -0.0646
 4827TIP3    H235897   2.523   0.215   9.966 -1.0639 -0.0099 -0.0069
 4828TIP3   OH235898   3.468   5.584  11.985  0.4226  0.0555  0.5174
 4828TIP3    H135899   3.547   5.558  12.034  1.0003  2.0690  0.7442
 4828TIP3    H235900   3.490   5.565  11.894  0.5791 -0.7766  0.7180
 4829TIP3   OH235901   2.964   2.378  11.721 -0.2590  0.3821 -0.0437
 4829TIP3    H135902   2.986   2.360  11.813  0.7272  1.3784 -0.0614
 4829TIP3    H235903   3.035   2.341  11.671 -2.1668 -2.7331 -0.6954
 4830TIP3   OH235904   1.292   1.701   2.387  0.4513  0.1216  0.1540
 4830TIP3    H135905   1.345   1.626   2.360 -0.8576 -0.2402 -1.5728
 4830TIP3    H235906   1.312   1.769   2.322 -0.4433  0.2934  0.0362
 4831TIP3   OH235907   2.262   2.448  14.197 -0.3168  0.5432 -0.3843
 4831TIP3    H135908   2.296   2.533  14.168 -1.4858  1.6441  1.3226
 4831TIP3    H235909   2.287   2.441  14.289 -0.9475 -0.6017 -0.2737
 4832TIP3   OH235910   0.709   0.702  10.316 -0.8672  0.5553 -0.1073
 4832TIP3    H135911   0.718   0.670  10.226  1.1985  0.3737  0.1063
 4832TIP3    H235912   0.622   0.741  10.319 -0.5879  1.5467 -2.4974
 4833TIP3   OH235913   5.227   0.317  10.493 -0.6525 -0.0962  0.3048
 4833TIP3    H135914   5.269   0.304  10.408  0.7358 -3.0188  1.3271
 4833TIP3    H235915   5.287   0.374  10.541  0.6038 -1.6883  0.6664
 4834TIP3   OH235916   6.209   0.918  12.095 -0.4839 -0.1585  0.3474
 4834TIP3    H135917   6.202   0.878  12.009  0.2946  1.0340 -0.2968
 4834TIP3    H235918   6.272   0.864  12.143  0.6288  0.3234 -0.5374
 4835TIP3   OH235919   5.415   1.391  11.308 -0.1905 -0.0656  0.5869
 4835TIP3    H135920   5.499   1.346  11.317 -0.0734 -0.0263 -0.2855
 4835TIP3    H235921   5.350   1.328  11.339  0.1499 -0.0941  1.2657
 4836TIP3   OH235922   6.107   0.052  11.980  0.0914 -0.4652  0.0619
 4836TIP3    H135923   6.052  -0.026  11.992 -1.1366  0.5417  1.2137
 4836TIP3    H235924   6.046   0.120  11.951  1.5155 -0.4739 -3.4555
 4837TIP3   OH235925   2.365   5.010  12.272  0.1450 -0.0370  0.1232
 4837TIP3    H135926   2.384   5.096  12.309  0.3597 -0.0541  0.0545
 4837TIP3    H235927   2.276   4.990  12.301  0.5000 -0.2850  1.0769
 4838TIP3   OH235928   1.043   3.011   4.203  0.3850 -0.2558  0.0040
 4838TIP3    H135929   1.079   3.047   4.122  2.6480 -1.4204  0.3956
 4838TIP3    H235930   1.018   2.921   4.181  1.3877 -0.7149  0.6231
 4839TIP3   OH235931   5.374   0.191  13.909  0.7327 -0.2016  0.0128
 4839TIP3    H135932   5.456   0.225  13.873  1.9522 -0.6837  2.1599
 4839TIP3    H235933   5.336   0.266  13.956  1.9275 -0.9025  2.2336
 4840TIP3   OH235934   1.511   6.236  15.102  0.5238  0.1023  0.2548
 4840TIP3    H135935   1.499   6.247  15.197 -2.0942  0.8274 -0.0833
 4840TIP3    H235936   1.440   6.287  15.063  1.3341 -0.4679 -2.1191
 4841TIP3   OH235937   0.222   6.582  14.731 -0.3159 -0.3030 -0.1381
 4841TIP3    H135938   0.168   6.504  14.745 -1.6479  0.7245  0.7613
 4841TIP3    H235939   0.175   6.633  14.666  0.6014 -0.2810 -0.8039
 4842TIP3   OH235940   4.337   0.984  10.652 -0.0427 -0.7787 -0.1014
 4842TIP3    H135941   4.326   1.061  10.707  1.1033 -1.0532  0.5483
 4842TIP3    H235942   4.248   0.954  10.635 -0.5376  1.0091 -0.8606
 4843TIP3   OH235943   5.514   5.727   4.470  0.4342 -0.2462  0.2646
 4843TIP3    H135944   5.584   5.781   4.434  0.3123  0.6307  1.2905
 4843TIP3    H235945   5.457   5.709   4.395 -0.2710  2.2384  0.0875
 4844TIP3   OH235946   3.536   3.643  14.162  0.3392 -0.1920  0.4291
 4844TIP3    H135947   3.541   3.729  14.121  1.7900  0.1646  1.3042
 4844TIP3    H235948   3.448   3.612  14.141  1.2245 -0.4430 -3.7659
 4845TIP3   OH235949   5.773   3.746  15.453  0.2613  0.1366 -0.4836
 4845TIP3    H135950   5.689   3.743  15.408 -0.1752 -1.3357  0.3925
 4845TIP3    H235951   5.838   3.743  15.382 -0.3995  0.9919 -1.1460
 4846TIP3   OH235952   3.547   2.931  10.657 -0.3267  0.3592 -0.1176
 4846TIP3    H135953   3.485   2.988  10.702 -0.4253  1.7239 -1.9273
 4846TIP3    H235954   3.568   2.976  10.576 -0.5231 -2.2380 -1.7217
 4847TIP3   OH235955   2.066   0.195  14.838 -0.0417  0.9133 -0.8716
 4847TIP3    H135956   2.086   0.209  14.745  0.1523 -1.6247 -1.2904
 4847TIP3    H235957   2.148   0.213  14.883  1.0419 -1.5132 -1.6904
 4848TIP3   OH235958   0.423   4.459   1.023 -0.0275  0.2286 -0.8507
 4848TIP3    H135959   0.354   4.442   0.959 -0.7883  0.2328 -0.0629
 4848TIP3    H235960   0.427   4.555   1.029 -1.2403  0.2302  0.4110
 4849TIP3   OH235961   6.191   0.667   9.997  0.5477 -0.0563  0.7730
 4849TIP3    H135962   6.253   0.595  10.004 -0.4906 -0.9057  1.7630
 4849TIP3    H235963   6.156   0.660   9.908  1.3501  0.0142  0.4416
 4850TIP3   OH235964   3.290   6.930  14.841  0.3142 -0.1108  0.9938
 4850TIP3    H135965   3.227   6.936  14.914 -0.7290 -1.0306  0.2019
 4850TIP3    H235966   3.236   6.933  14.762  1.2147 -1.3112  0.2955
 4851TIP3   OH235967   5.641   4.489  12.308 -0.9538 -0.1444 -0.6442
 4851TIP3    H135968   5.720   4.487  12.363 -1.1601  0.5534 -0.3130
 4851TIP3    H235969   5.597   4.571  12.332 -2.4768 -1.1525  0.1623
 4852TIP3   OH235970   2.430   4.759  15.268 -0.2890 -0.0748 -0.0203
 4852TIP3    H135971   2.481   4.825  15.315  1.7994 -1.6779  0.1031
 4852TIP3    H235972   2.419   4.688  15.330 -0.7573 -0.6949 -0.7911
 4853TIP3   OH235973   4.102   2.174  11.116 -0.4045 -0.2538  0.5499
 4853TIP3    H135974   4.186   2.191  11.158 -0.2593 -0.7498  0.4693
 4853TIP3    H235975   4.036   2.193  11.183 -0.3181  1.6146  0.1503
 4854TIP3   OH235976   5.686   4.727   9.358 -0.2831 -0.5116  0.0524
 4854TIP3    H135977   5.602   4.766   9.382 -0.3896 -1.3885  1.1831
 4854TIP3    H235978   5.748   4.800   9.360 -1.1597  0.3388 -1.7515
 4855TIP3   OH235979   4.402   1.238   2.836  0.3802 -0.1328  0.2074
 4855TIP3    H135980   4.449   1.243   2.753 -0.6608  1.8309 -0.3441
 4855TIP3    H235981   4.405   1.327   2.870 -0.9091 -0.4753  1.3022
 4856TIP3   OH235982   0.097   0.780   0.765 -0.4897 -0.2849 -0.3683
 4856TIP3    H135983   0.143   0.805   0.845 -1.6334 -0.2881  0.3050
 4856TIP3    H235984   0.006   0.803   0.781 -0.7170 -0.1612 -1.7332
 4857TIP3   OH235985   4.403   6.690  12.020  0.0493 -0.3885  0.4802
 4857TIP3    H135986   4.386   6.647  11.936  1.4634 -0.2340  0.0817
 4857TIP3    H235987   4.325   6.672  12.073 -0.6024 -1.0098 -0.6493
 4858TIP3   OH235988   6.069   7.081  14.723 -0.0792  0.4250  0.1644
 4858TIP3    H135989   6.108   7.086  14.810  0.1571 -0.3773  0.1055
 4858TIP3    H235990   6.062   6.988  14.704 -0.0965  0.5888 -0.6940
 4859TIP3   OH235991   3.998   5.325  14.875 -0.8478 -0.0273 -0.0724
 4859TIP3    H135992   4.090   5.332  14.848 -0.4367 -0.8011  1.0684
 4859TIP3    H235993   3.964   5.414  14.865  0.6525  0.8050  1.6092
 4860TIP3   OH235994   0.116   5.849   3.293  0.0029 -0.1689 -0.1256
 4860TIP3    H135995   0.083   5.894   3.371 -0.6429 -1.2896  0.2732
 4860TIP3    H235996   0.171   5.779   3.328  3.3151  1.8854 -0.7585
 4861TIP3   OH235997   0.043   4.875   3.735  0.6813  0.0905  0.4122
 4861TIP3    H135998   0.071   4.805   3.794  0.1349  0.4717  1.1339
 4861TIP3    H235999  -0.020   4.927   3.786  2.2845  2.0865  0.4990
 4862TIP3   OH236000   4.797   3.565  14.345 -0.0273 -0.3587  0.8342
 4862TIP3    H136001   4.747   3.611  14.278  0.1752 -0.4701  0.6093
 4862TIP3    H236002   4.786   3.472  14.325  0.7024 -0.3710  0.4722
 4863TIP3   OH236003   6.311   3.251  14.958 -0.2746 -0.1400 -0.0965
 4863TIP3    H136004   6.344   3.162  14.974  1.1410  0.2790 -0.5505
 4863TIP3    H236005   6.220   3.238  14.930 -0.0127 -1.4615 -0.3941
 4864TIP3   OH236006   1.111   6.103  11.550  0.4583  0.1845  0.7793
 4864TIP3    H136007   1.074   6.185  11.582 -0.7038 -0.3384  0.8235
 4864TIP3    H236008   1.036   6.052  11.521  1.2128 -0.6452  0.2219
 4865TIP3   OH236009   4.785   0.929  15.300  0.1570 -0.1447 -0.1016
 4865TIP3    H136010   4.862   0.980  15.327 -0.0824  0.4250 -0.4716
 4865TIP3    H236011   4.711   0.982  15.327 -0.0911  0.0235 -1.0832
 4866TIP3   OH236012   2.607   1.727   1.920 -0.0847  0.8225 -0.2072
 4866TIP3    H136013   2.610   1.722   2.016  2.4660  0.3969 -0.2654
 4866TIP3    H236014   2.565   1.646   1.893  1.9193 -0.5130  0.4903
 4867TIP3   OH236015   6.051   3.153  12.254 -0.1167  0.0835 -0.1077
 4867TIP3    H136016   6.046   3.226  12.192 -1.9129  0.2783  0.2084
 4867TIP3    H236017   5.961   3.142  12.285  0.4386 -1.1265  1.1801
 4868TIP3   OH236018   6.344   3.573  14.292 -0.0648 -0.9428  0.2036
 4868TIP3    H136019   6.421   3.524  14.264  0.1616  0.7348 -2.4659
 4868TIP3    H236020   6.374   3.623  14.368  2.1153  0.9223 -1.7137
 4869TIP3   OH236021   2.256   5.294   0.688 -0.5643 -0.2860 -0.5522
 4869TIP3    H136022   2.274   5.384   0.659 -0.2692 -0.3819 -0.6781
 4869TIP3    H236023   2.309   5.240   0.629  2.9139 -0.3614  2.2804
 4870TIP3   OH236024   5.066   0.373   9.689  0.3791 -0.5371  0.2633
 4870TIP3    H136025   5.089   0.280   9.689  0.2276 -0.5873  1.2219
 4870TIP3    H236026   5.149   0.419   9.690  0.4546 -0.6569 -0.1898
 4871TIP3   OH236027   3.098   2.591   3.697  0.1117 -0.2948 -0.5409
 4871TIP3    H136028   3.048   2.568   3.776 -0.0093  0.4689 -0.3891
 4871TIP3    H236029   3.031   2.603   3.630 -0.1007  2.2794  0.0302
 4872TIP3   OH236030   3.163   5.606   4.388  0.0754  0.2108  0.7239
 4872TIP3    H136031   3.186   5.632   4.299 -0.7204  1.4601  0.8648
 4872TIP3    H236032   3.163   5.510   4.385 -0.0637  0.2309 -0.6543
 4873TIP3   OH236033   1.402   4.570  12.284 -0.0300 -0.2579 -0.3112
 4873TIP3    H136034   1.427   4.523  12.204 -2.0051 -0.2213 -0.9969
 4873TIP3    H236035   1.307   4.557  12.291  0.1682 -0.9446  2.4835
 4874TIP3   OH236036   3.800   2.361  10.373 -0.8895  0.2524  0.6129
 4874TIP3    H136037   3.877   2.367  10.430 -0.4884  1.8053 -0.0220
 4874TIP3    H236038   3.733   2.412  10.419 -0.2377  2.4573 -0.7094
 4875TIP3   OH236039   4.112   3.336  10.058 -0.2336  0.1765  0.4962
 4875TIP3    H136040   4.089   3.291  10.139 -1.7076 -0.8248 -0.4197
 4875TIP3    H236041   4.078   3.279   9.989  3.7422 -0.6426 -1.0280
 4876TIP3   OH236042   6.481   5.209  11.736  0.4565 -0.1688 -0.1260
 4876TIP3    H136043   6.461   5.301  11.719 -0.1180 -0.2168  0.2456
 4876TIP3    H236044   6.416   5.160  11.685  0.0864 -0.3434  0.4973
 4877TIP3   OH236045   2.331   0.988  12.264  0.0181 -0.0672 -0.4691
 4877TIP3    H136046   2.260   1.026  12.315 -0.4639  0.0854 -1.2396
 4877TIP3    H236047   2.331   1.037  12.182  0.9428 -0.1415 -0.5210
 4878TIP3   OH236048   5.078   1.932   0.505  0.0778 -0.1005  0.2384
 4878TIP3    H136049   5.040   1.888   0.581  1.7923 -1.1290  0.5590
 4878TIP3    H236050   5.090   2.023   0.534  1.8403 -0.7343  1.7096
 4879TIP3   OH236051   3.113   3.953   1.031  0.0631  0.2228  0.1008
 4879TIP3    H136052   3.139   3.910   0.949  0.9261 -0.0733  0.5169
 4879TIP3    H236053   3.105   4.045   1.008  0.6461  0.1925 -0.2429
 4880TIP3   OH236054   5.721   7.048  13.528 -0.6157  0.6478 -0.2636
 4880TIP3    H136055   5.710   6.957  13.502 -0.3112  0.3215  0.7328
 4880TIP3    H236056   5.750   7.044  13.619  0.1406  1.7187 -0.4430
 4881TIP3   OH236057   2.265   3.385   0.555  0.1036  0.2166 -0.7819
 4881TIP3    H136058   2.243   3.433   0.475  1.4461  1.7312 -0.2902
 4881TIP3    H236059   2.335   3.437   0.596  1.6082 -2.1312 -0.1840
 4882TIP3   OH236060   2.019   0.312  15.116  0.1084  0.2587  0.2018
 4882TIP3    H136061   2.095   0.279  15.068 -0.1685  0.9400 -0.7495
 4882TIP3    H236062   2.041   0.300  15.208  0.5638 -1.3073 -0.0833
 4883TIP3   OH236063   6.121   2.105  10.027  0.1664  0.0275  0.0658
 4883TIP3    H136064   6.051   2.161   9.993  0.6228  0.1006 -0.8011
 4883TIP3    H236065   6.116   2.026   9.973  0.2928 -0.2656  0.4827
 4884TIP3   OH236066   6.242   1.381   1.116 -0.3684 -0.2244 -0.8123
 4884TIP3    H136067   6.208   1.320   1.050 -1.3881  2.4506 -2.9605
 4884TIP3    H236068   6.172   1.388   1.181 -1.7940  1.2446 -2.4304
 4885TIP3   OH236069   5.911   6.803  13.484 -0.0816  0.1037  0.3817
 4885TIP3    H136070   5.826   6.800  13.527  0.8762  2.1055  2.6678
 4885TIP3    H236071   5.891   6.819  13.392 -2.1746  0.9502  0.9217
 4886TIP3   OH236072   4.798   4.857  13.376  0.3696  0.3484  0.5788
 4886TIP3    H136073   4.877   4.906  13.399  0.8899  0.4964 -1.3993
 4886TIP3    H236074   4.827   4.793  13.311 -1.0080 -0.0907  0.3569
 4887TIP3   OH236075   3.502   3.066  15.309 -0.0972  0.1236 -0.0719
 4887TIP3    H136076   3.542   3.134  15.364 -0.6372 -0.0016  0.4767
 4887TIP3    H236077   3.410   3.091  15.302  0.0961  0.5509 -1.5466
 4888TIP3   OH236078   1.998   3.205   2.485  0.2509  0.2667  0.4948
 4888TIP3    H136079   1.960   3.158   2.559  1.3778  0.1867  1.0457
 4888TIP3    H236080   2.035   3.285   2.524  2.6452 -0.7126  0.4124
 4889TIP3   OH236081   4.976   3.320  13.555  0.2762  0.0906  0.0597
 4889TIP3    H136082   4.974   3.239  13.505  0.3219 -0.0419  0.2705
 4889TIP3    H236083   4.948   3.295  13.643  1.7855 -0.0171  0.5489
 4890TIP3   OH236084   2.392   3.530  13.141  0.5478  0.5167 -0.2037
 4890TIP3    H136085   2.383   3.560  13.050 -0.1265 -0.0543 -0.3330
 4890TIP3    H236086   2.371   3.436  13.137  1.5910  0.2449  0.3621
 4891TIP3   OH236087   1.522   3.384  13.061 -0.1216  0.1314 -0.1500
 4891TIP3    H136088   1.539   3.394  12.967 -1.0156  1.2320 -0.2062
 4891TIP3    H236089   1.565   3.460  13.101  0.4716 -0.4641  0.3759
 4892TIP3   OH236090   1.318   3.453  13.997  0.8603 -0.0687  0.0098
 4892TIP3    H136091   1.381   3.482  13.931 -0.4310  0.0782 -1.2121
 4892TIP3    H236092   1.256   3.525  14.004 -0.3962 -1.0764 -0.4503
 4893TIP3   OH236093   5.774   5.761  11.582  0.0605  0.0931 -0.0240
 4893TIP3    H136094   5.760   5.807  11.665  1.9935 -1.3471  1.1939
 4893TIP3    H236095   5.688   5.723  11.561 -0.2673 -0.3275  1.8740
 4894TIP3   OH236096   2.312   5.135  10.437  0.0197 -0.3562 -0.0802
 4894TIP3    H136097   2.394   5.177  10.411  0.5084 -0.8210  0.6757
 4894TIP3    H236098   2.246   5.203  10.426  0.3064 -0.3143 -1.8175
 4895TIP3   OH236099   5.101   2.860  10.479 -0.0714 -0.0672  0.4500
 4895TIP3    H136100   5.107   2.923  10.550 -2.8045  1.1285 -0.2537
 4895TIP3    H236101   5.048   2.904  10.412  0.1165 -2.1595 -1.1902
 4896TIP3   OH236102   5.768   3.579   1.646  0.2750 -0.2463 -0.3468
 4896TIP3    H136103   5.796   3.670   1.636 -0.7857  0.0087 -1.2715
 4896TIP3    H236104   5.680   3.585   1.682  0.5205 -0.9476  0.3941
 4897TIP3   OH236105   4.701   4.254  11.722  0.0097  0.0247  0.1596
 4897TIP3    H136106   4.682   4.176  11.774  0.9609 -0.5034 -0.2537
 4897TIP3    H236107   4.758   4.307  11.777 -0.5464  0.3917  0.3957
 4898TIP3   OH236108   3.580   1.115  13.283  0.0846  0.4100 -0.0345
 4898TIP3    H136109   3.595   1.022  13.268  1.2390  0.6175 -0.2343
 4898TIP3    H236110   3.525   1.142  13.209 -1.1548 -0.3154  0.5846
 4899TIP3   OH236111   5.504   1.166   2.719  0.0596 -0.9041  0.1257
 4899TIP3    H136112   5.574   1.216   2.679  0.1042 -1.3008 -0.2961
 4899TIP3    H236113   5.543   1.130   2.799  1.2330 -3.4307 -1.4748
 4900TIP3   OH236114   1.275   1.303  13.898 -0.3234  0.0315 -0.0537
 4900TIP3    H136115   1.305   1.225  13.944 -1.1248 -0.1959  0.1036
 4900TIP3    H236116   1.304   1.291  13.807  0.2339 -0.0759  0.1390
 4901TIP3   OH236117   2.492   2.062  15.466 -0.1086 -0.1598  0.4260
 4901TIP3    H136118   2.500   1.969  15.442  0.4875  0.0961 -0.4277
 4901TIP3    H236119   2.582   2.088  15.488 -0.2950  0.1830  0.7839
 4902TIP3   OH236120   4.878   3.662  14.026 -0.3023 -0.2403  0.1472
 4902TIP3    H136121   4.787   3.667  14.055 -0.1787 -0.4387  0.5862
 4902TIP3    H236122   4.927   3.713  14.091  0.0162 -0.9240  0.4509
 4903TIP3   OH236123   6.777   4.058   9.981  0.0383  0.2759  0.3622
 4903TIP3    H136124   6.689   4.033   9.954 -0.3343  1.6931  0.1686
 4903TIP3    H236125   6.826   4.067   9.899 -0.3680  2.0057  0.2804
 4904TIP3   OH236126   4.532   0.259  12.758  0.0757  0.3594  0.4956
 4904TIP3    H136127   4.538   0.324  12.829 -1.0780  0.5491  0.4459
 4904TIP3    H236128   4.620   0.254  12.723 -0.1126  3.2437 -0.6459
 4905TIP3   OH236129   3.462   6.875  10.067 -0.1435  0.5162  0.5751
 4905TIP3    H136130   3.444   6.953  10.014 -2.3614  0.1264  0.6921
 4905TIP3    H236131   3.479   6.909  10.155 -0.6706  0.8892  0.5327
 4906TIP3   OH236132   2.548   1.464  10.180 -0.2113 -0.4417 -0.1409
 4906TIP3    H136133   2.569   1.536  10.120 -0.2402  0.6791  1.1429
 4906TIP3    H236134   2.632   1.422  10.199 -0.2151 -0.8601 -1.0127
 4907TIP3   OH236135   1.179   3.109   0.423  0.3030 -0.3385  0.7923
 4907TIP3    H136136   1.261   3.067   0.400  0.4782  0.8843 -1.0374
 4907TIP3    H236137   1.113   3.066   0.368 -0.1588 -0.7614  1.6573
 4908TIP3   OH236138   1.389   3.937   1.345  0.2677  0.0681  0.0756
 4908TIP3    H136139   1.411   4.029   1.331  0.2066 -0.0969 -1.2194
 4908TIP3    H236140   1.318   3.919   1.284 -1.3568 -0.2463  1.9810
 4909TIP3   OH236141   4.704   4.410   9.843 -0.1280  0.3936  1.1052
 4909TIP3    H136142   4.619   4.367   9.826  0.6859 -1.1379  0.7191
 4909TIP3    H236143   4.731   4.443   9.757  0.7207 -1.1664  0.7444
 4910TIP3   OH236144   4.879   0.560   0.093  0.1996 -0.0294 -0.1662
 4910TIP3    H136145   4.959   0.508   0.082 -0.0869 -0.1897 -1.7675
 4910TIP3    H236146   4.910   0.651   0.092  0.3866 -0.0925 -0.7136
 4911TIP3   OH236147   2.312   5.649  14.072  0.7386 -0.0235  0.1505
 4911TIP3    H136148   2.287   5.558  14.060 -1.9411  0.9391 -2.5344
 4911TIP3    H236149   2.391   5.660  14.019  2.2285 -1.1034  1.9979
 4912TIP3   OH236150   6.922   0.373  11.919 -0.8868 -0.4957  0.1008
 4912TIP3    H136151   6.849   0.414  11.965 -0.8578  0.1271 -0.3852
 4912TIP3    H236152   6.881   0.325  11.847 -0.9574 -1.7345  0.9520
 4913TIP3   OH236153   4.212   3.141   0.445  0.1801  0.1997 -0.0898
 4913TIP3    H136154   4.229   3.198   0.370 -2.4034  0.1480 -0.8212
 4913TIP3    H236155   4.231   3.195   0.522 -1.7357  1.9843 -0.7648
 4914TIP3   OH236156   1.425   2.801  15.057 -0.1669 -0.4083  0.5405
 4914TIP3    H136157   1.483   2.733  15.091  0.2097  0.2549  1.2570
 4914TIP3    H236158   1.471   2.883  15.074 -1.4974  0.1653  1.5219
 4915TIP3   OH236159   3.896   1.529   2.831 -0.1644 -0.4792  0.3755
 4915TIP3    H136160   3.944   1.569   2.759  0.4636 -0.4195  0.8221
 4915TIP3    H236161   3.919   1.581   2.908  1.5417 -2.3116  1.1792
 4916TIP3   OH236162   5.749   1.685  10.677 -0.9191  0.0371 -0.0699
 4916TIP3    H136163   5.747   1.745  10.602 -1.7408 -0.6271 -0.5965
 4916TIP3    H236164   5.714   1.603  10.643 -2.1685 -0.0168  1.2694
 4917TIP3   OH236165   3.702   4.136  10.190  0.5961 -0.4335 -0.0178
 4917TIP3    H136166   3.694   4.219  10.237 -0.2069 -0.7535  0.4432
 4917TIP3    H236167   3.793   4.109  10.204  1.7162  1.6838 -2.4825
 4918TIP3   OH236168   4.111   2.664   2.031 -0.1605 -0.1176 -0.0260
 4918TIP3    H136169   4.140   2.735   1.973 -0.6401 -0.3387 -0.5453
 4918TIP3    H236170   4.077   2.597   1.972  0.3809 -0.8314  0.4563
 4919TIP3   OH236171   0.251   0.455   0.725  0.0461 -0.7479  0.2934
 4919TIP3    H136172   0.171   0.449   0.776 -0.5708 -1.4291 -0.7233
 4919TIP3    H236173   0.232   0.408   0.644  0.6689  1.0852 -0.9982
 4920TIP3   OH236174   5.756   0.755   0.697  0.0001 -0.6626 -0.3936
 4920TIP3    H136175   5.771   0.745   0.603 -0.0338  1.2295 -0.6451
 4920TIP3    H236176   5.776   0.847   0.715 -0.4893 -0.8548  1.3651
 4921TIP3   OH236177   3.958   4.323   1.494 -0.2962  0.1796  0.4127
 4921TIP3    H136178   3.940   4.386   1.563 -1.6893  1.1463 -0.7732
 4921TIP3    H236179   3.904   4.351   1.420  1.9556 -0.0982 -1.4915
 4922TIP3   OH236180   7.114   5.560  11.490 -0.0602 -0.0282  0.2047
 4922TIP3    H136181   7.052   5.489  11.471 -0.5243  0.2948  0.4829
 4922TIP3    H236182   7.128   5.603  11.405  1.8438 -1.7056 -0.4045
 4923TIP3   OH236183   0.343   4.406  10.103 -0.1637 -0.1083  0.0498
 4923TIP3    H136184   0.366   4.405  10.196 -0.3996 -2.2965  0.1349
 4923TIP3    H236185   0.249   4.424  10.102  0.1668  1.9082  0.0696
 4924TIP3   OH236186   3.903   0.860  10.152  0.1192 -0.3946 -0.8236
 4924TIP3    H136187   3.853   0.816  10.083  0.4440 -1.6935 -0.2594
 4924TIP3    H236188   3.962   0.919  10.106 -0.8160 -0.0196 -1.5694
 4925TIP3   OH236189   7.133   1.596  10.275  0.1809  0.2213 -0.2141
 4925TIP3    H136190   7.071   1.545  10.327  0.9773  0.3890  0.9516
 4925TIP3    H236191   7.115   1.572  10.184 -2.3285  1.1081 -0.0196
 4926TIP3   OH236192   5.610   0.738  13.164 -0.1844 -0.3836 -0.0136
 4926TIP3    H136193   5.599   0.833  13.166  0.3901 -0.3174  1.4680
 4926TIP3    H236194   5.697   0.723  13.202 -0.1205 -1.4823 -0.5551
 4927TIP3   OH236195   2.173   1.386  10.567 -0.0044  0.1854 -0.4618
 4927TIP3    H136196   2.080   1.396  10.548 -0.1268  0.4284  0.2705
 4927TIP3    H236197   2.196   1.301  10.528 -0.7780 -0.3957  0.3037
 4928TIP3   OH236198   4.204   2.523  11.168  0.5741  0.6977 -0.2093
 4928TIP3    H136199   4.122   2.480  11.144  1.3435 -0.1174 -1.5090
 4928TIP3    H236200   4.197   2.538  11.262 -1.4930  1.6191 -0.4660
 4929TIP3   OH236201   3.441   3.488  12.731 -0.0601 -0.8827 -0.0487
 4929TIP3    H136202   3.406   3.560  12.678  1.3375 -1.0557 -1.2804
 4929TIP3    H236203   3.456   3.527  12.817  0.0587  0.1284 -0.5114
 4930TIP3   OH236204   4.930   6.650  11.646 -0.1680  0.3379 -0.2592
 4930TIP3    H136205   4.917   6.606  11.562  1.6188 -0.9198  0.0534
 4930TIP3    H236206   4.989   6.723  11.627  0.9794 -0.4933  0.0092
 4931TIP3   OH236207   2.489   1.670  13.837  0.2162  0.4969 -0.3939
 4931TIP3    H136208   2.510   1.586  13.796  0.9950  0.9778 -1.0184
 4931TIP3    H236209   2.574   1.708  13.859 -0.0983  1.3419 -0.5866
 4932TIP3   OH236210   0.522   4.431   9.703  0.2014 -0.1572 -0.2748
 4932TIP3    H136211   0.612   4.399   9.692  0.6993  1.5684 -1.6502
 4932TIP3    H236212   0.531   4.506   9.761 -0.3125  0.1862 -0.6414
 4933TIP3   OH236213   3.823   5.139  10.192 -0.2271  0.5700  0.1530
 4933TIP3    H136214   3.909   5.168  10.161  0.4085  0.1982  1.4963
 4933TIP3    H236215   3.829   5.044  10.196 -0.7348  0.5343  0.1581
 4934TIP3   OH236216   0.160   2.030  12.152 -0.0024  0.2214 -0.1840
 4934TIP3    H136217   0.159   1.948  12.200 -0.0109  1.3806  1.9009
 4934TIP3    H236218   0.236   2.023  12.093  1.2882 -0.4656  1.4983
 4935TIP3   OH236219   0.097   4.670  13.641 -0.4798  0.1429 -0.1176
 4935TIP3    H136220   0.127   4.691  13.729  1.0643 -0.8802 -0.3623
 4935TIP3    H236221   0.091   4.574  13.640  0.8314  0.0419 -1.5066
 4936TIP3   OH236222   3.997   2.109  10.539 -0.0712  0.0727  0.6297
 4936TIP3    H136223   3.921   2.078  10.488 -0.6108 -0.1623  1.5504
 4936TIP3    H236224   4.073   2.086  10.485 -0.4879 -2.1584  0.8843
 4937TIP3   OH236225   1.448   4.696   0.634  0.1183 -0.2028  0.1049
 4937TIP3    H136226   1.434   4.602   0.646 -0.5968 -0.1937 -0.5655
 4937TIP3    H236227   1.432   4.734   0.720  0.4949 -0.7034  0.3993
 4938TIP3   OH236228   4.298   0.294   0.414  0.8293  0.3104  0.3949
 4938TIP3    H136229   4.221   0.245   0.443  1.5252 -2.0382 -1.4482
 4938TIP3    H236230   4.361   0.283   0.486  0.1118  0.6743  1.0971
 4939TIP3   OH236231   3.857   2.088  13.168 -0.6120 -0.3196 -0.4871
 4939TIP3    H136232   3.869   2.174  13.207  0.0970 -0.4666 -0.3748
 4939TIP3    H236233   3.799   2.103  13.093 -0.1201  0.3206 -0.7389
 4940TIP3   OH236234   1.747   2.666  14.450  0.8028 -0.4721 -0.2109
 4940TIP3    H136235   1.692   2.602  14.496  1.7185 -1.6310 -0.6599
 4940TIP3    H236236   1.818   2.684  14.512  0.6742 -0.0769 -0.1802
 4941TIP3   OH236237   5.354   4.521   4.734  0.5599 -0.8008 -0.2213
 4941TIP3    H136238   5.430   4.577   4.718 -0.3126  1.0482  1.7057
 4941TIP3    H236239   5.317   4.553   4.816 -2.1039 -1.8651 -0.9023
 4942TIP3   OH236240   4.019   4.657   1.987 -0.0010 -0.5922  0.5820
 4942TIP3    H136241   3.931   4.695   1.990 -0.2085 -1.0968  2.4889
 4942TIP3    H236242   4.028   4.612   2.071  1.4575 -1.9888 -0.2585
 4943TIP3   OH236243   6.893   5.974  10.699  0.7914 -0.0498  0.6416
 4943TIP3    H136244   6.973   6.026  10.710  1.0115 -0.4523  0.9465
 4943TIP3    H236245   6.921   5.896  10.653  0.4242  0.1762  0.0274
 4944TIP3   OH236246   0.140   1.106   1.724  0.6111 -0.0761 -0.9346
 4944TIP3    H136247   0.054   1.109   1.767  0.2194 -1.6998 -1.5745
 4944TIP3    H236248   0.201   1.135   1.793  0.0022 -2.5702  0.8043
 4945TIP3   OH236249   5.625   1.421  14.603 -0.2722  0.2966  0.2993
 4945TIP3    H136250   5.588   1.389  14.686  0.5189 -0.3034  0.4326
 4945TIP3    H236251   5.685   1.490  14.629 -3.1161  3.1609 -0.0813
 4946TIP3   OH236252   6.071   7.063  10.430  0.0819  0.3665  0.1754
 4946TIP3    H136253   6.029   7.121  10.367 -0.6972 -0.7301 -0.3409
 4946TIP3    H236254   6.163   7.061  10.403  0.1064  1.2529  0.1457
 4947TIP3   OH236255   5.426   4.022  10.638  0.3041  0.2691  0.1410
 4947TIP3    H136256   5.385   3.937  10.651  1.9557 -0.2491  2.5753
 4947TIP3    H236257   5.474   4.013  10.556 -2.7650  0.3230 -1.8491
 4948TIP3   OH236258   4.089   3.150  12.054  0.5507  0.5455 -0.2902
 4948TIP3    H136259   4.139   3.231  12.046  0.6181  0.5477  0.1373
 4948TIP3    H236260   4.003   3.172  12.019  1.0837  0.3098 -1.7999
 4949TIP3   OH236261   0.097   4.008  13.116 -0.3673 -0.0190 -0.2467
 4949TIP3    H136262   0.112   4.054  13.198  0.5061  0.4947 -0.6722
 4949TIP3    H236263   0.162   3.938  13.116 -0.2048  0.1276 -0.5926
 4950TIP3   OH236264   4.189   7.051  13.053  0.0624 -0.1616 -0.3888
 4950TIP3    H136265   4.265   7.102  13.022 -1.2786 -0.0321 -3.8685
 4950TIP3    H236266   4.130   7.117  13.090 -0.1138  0.3857 -1.5805
 4951TIP3   OH236267   2.681   1.470  12.688  0.0241 -0.0222 -0.4705
 4951TIP3    H136268   2.668   1.414  12.764 -1.7843 -1.6677 -1.8875
 4951TIP3    H236269   2.766   1.444  12.653 -0.0814 -0.7507 -0.1970
 4952TIP3   OH236270   5.160   7.114   2.793 -0.6836  0.0101 -0.2088
 4952TIP3    H136271   5.067   7.104   2.813 -0.5626  0.3526  0.5502
 4952TIP3    H236272   5.201   7.033   2.824 -0.6576  0.0779 -0.0630
 4953TIP3   OH236273   3.332   7.032   9.698 -0.4425  0.2160 -0.0681
 4953TIP3    H136274   3.279   7.109   9.675 -0.8731 -0.0622 -0.0239
 4953TIP3    H236275   3.316   6.970   9.626 -0.3540  0.0417  0.0621
 4954TIP3   OH236276   3.934   6.986  10.636 -0.0408 -0.0277 -0.0180
 4954TIP3    H136277   3.842   6.961  10.626  0.3120 -1.6106  0.3461
 4954TIP3    H236278   3.933   7.081  10.649 -1.5420  0.1021 -0.9525
 4955TIP3   OH236279   6.570   5.309  15.198  0.6755  0.2591 -0.0492
 4955TIP3    H136280   6.590   5.387  15.250  0.9211  0.6011 -0.6412
 4955TIP3    H236281   6.642   5.249  15.218 -0.9109 -0.9773  2.5718
 4956TIP3   OH236282   2.145   0.353  14.305  0.5790 -0.2312  0.5280
 4956TIP3    H136283   2.159   0.440  14.266 -0.5001  0.1066  0.8500
 4956TIP3    H236284   2.113   0.300  14.232  0.3387 -0.0991  0.5348
 4957TIP3   OH236285   4.769   5.592  10.780  0.4098 -0.7035  0.0876
 4957TIP3    H136286   4.753   5.577  10.873  1.7754 -1.4600  0.2344
 4957TIP3    H236287   4.699   5.543  10.736 -0.6528  0.2264  0.7022
 4958TIP3   OH236288   0.872   2.173   0.014  0.2964 -0.0987  0.1696
 4958TIP3    H136289   0.924   2.109  -0.036  0.8680 -0.4344  1.1728
 4958TIP3    H236290   0.804   2.201  -0.047  0.9170 -0.5771 -0.7692
 4959TIP3   OH236291   1.709   1.390  14.074  0.5151  0.2318  0.3353
 4959TIP3    H136292   1.714   1.476  14.117  0.7011  0.0093  0.7631
 4959TIP3    H236293   1.800   1.361  14.068  0.3487 -0.6256  1.6029
 4960TIP3   OH236294   2.826   1.658  12.346  0.5101 -0.3958  0.2408
 4960TIP3    H136295   2.855   1.736  12.392  0.7195 -0.1491 -0.2948
 4960TIP3    H236296   2.773   1.691  12.273  1.1259 -0.7059 -0.3663
 4961TIP3   OH236297   1.290   6.696  12.981  0.0019 -0.4050 -0.6565
 4961TIP3    H136298   1.345   6.635  13.030 -1.1652 -1.1084 -0.1991
 4961TIP3    H236299   1.346   6.726  12.909  1.0747 -0.8819 -0.0437
 4962TIP3   OH236300   2.237   1.885  11.928  0.2275  0.1207  0.2747
 4962TIP3    H136301   2.329   1.891  11.904 -0.0084  0.5581 -0.5605
 4962TIP3    H236302   2.200   1.970  11.902 -0.3356  0.0851  0.9289
 4963TIP3   OH236303   5.990   0.610  11.931  0.3189  0.0158 -0.0414
 4963TIP3    H136304   6.063   0.657  11.971 -0.2961 -0.6977  2.0638
 4963TIP3    H236305   6.030   0.529  11.897  0.9935  1.0075 -1.7318
 4964TIP3   OH236306   3.058   5.851  12.051  0.9815 -0.2356 -0.3090
 4964TIP3    H136307   3.135   5.870  12.104 -0.0963  1.1802  0.8509
 4964TIP3    H236308   3.061   5.913  11.979  1.3952 -0.8187 -0.8087
 4965TIP3   OH236309   1.336   1.252   4.982  0.6118  0.0259  0.4000
 4965TIP3    H136310   1.285   1.194   4.925 -0.3529  0.9844  0.2526
 4965TIP3    H236311   1.425   1.218   4.978  0.0074 -1.6930  0.6337
 4966TIP3   OH236312   2.878   3.952  13.681 -0.8513  0.1681  0.2088
 4966TIP3    H136313   2.836   3.869  13.658 -1.5373 -0.2433  2.6182
 4966TIP3    H236314   2.957   3.926  13.729  0.5692  0.9580 -1.5888
 4967TIP3   OH236315   1.587   6.296  12.680  0.8080 -0.4392 -0.1330
 4967TIP3    H136316   1.598   6.205  12.651 -1.8327 -1.7175  2.4176
 4967TIP3    H236317   1.668   6.317  12.726  0.4439 -2.5494  1.6014
 4968TIP3   OH236318   2.223   4.902  11.733  0.6121  0.1086  0.5287
 4968TIP3    H136319   2.130   4.920  11.717  0.5564 -0.3017  0.3987
 4968TIP3    H236320   2.246   4.963  11.803  1.2183  2.9877 -1.9492
 4969TIP3   OH236321   0.990   6.812  11.060 -0.3645  0.1377 -0.3048
 4969TIP3    H136322   1.035   6.764  11.130  0.0210  0.6928 -0.1689
 4969TIP3    H236323   1.060   6.852  11.009 -0.6846  0.6249 -0.3682
 4970TIP3   OH236324   0.237   1.720  14.167 -0.1375  0.0243 -0.0550
 4970TIP3    H136325   0.227   1.799  14.220 -1.4491  0.2895 -0.6548
 4970TIP3    H236326   0.171   1.659  14.202 -1.8414  0.6102 -2.0407
 4971TIP3   OH236327   0.363   0.816   2.754 -0.3330 -0.1402  0.6831
 4971TIP3    H136328   0.272   0.789   2.743 -1.0782  2.5281 -0.6396
 4971TIP3    H236329   0.358   0.893   2.810  1.0763  0.1869  0.3984
 4972TIP3   OH236330   3.105   0.849  13.797  0.3132 -0.2788 -0.3805
 4972TIP3    H136331   3.053   0.782  13.842 -0.3327 -0.3570 -1.2053
 4972TIP3    H236332   3.047   0.925  13.793  1.3265  0.6514  1.2774
 4973TIP3   OH236333   6.403   0.888   4.789  0.0576 -0.2291 -0.0158
 4973TIP3    H136334   6.321   0.938   4.789  0.2201  0.0490  0.9785
 4973TIP3    H236335   6.460   0.934   4.850  1.4178  0.2896 -1.5858
 4974TIP3   OH236336   3.005   3.698   9.715 -0.0720 -0.0488  1.0372
 4974TIP3    H136337   2.933   3.761   9.720 -0.6430 -0.7746  2.7523
 4974TIP3    H236338   2.963   3.616   9.689  0.1428 -0.4373  1.8873
 4975TIP3   OH236339   3.504   4.121  10.987  0.3742  0.0917  0.2161
 4975TIP3    H136340   3.583   4.077  11.018 -0.1572 -0.1517  1.2745
 4975TIP3    H236341   3.513   4.123  10.892  0.4722 -2.2204  0.1215
 4976TIP3   OH236342   3.014   1.593  11.541  0.4033  0.2605  0.4930
 4976TIP3    H136343   2.928   1.597  11.498  1.0144 -1.1686 -0.9741
 4976TIP3    H236344   3.020   1.503  11.574  0.3000  1.0789  2.9883
 4977TIP3   OH236345   1.422   3.245  14.486 -0.2779 -0.2042 -0.6163
 4977TIP3    H136346   1.347   3.225  14.431 -1.4485 -0.8123  1.1270
 4977TIP3    H236347   1.491   3.187  14.454 -0.1994  1.0467 -2.8670
 4978TIP3   OH236348   4.755   4.422   0.032  0.1781 -1.0371  0.2129
 4978TIP3    H136349   4.789   4.417  -0.057 -1.4854 -1.2865 -0.4604
 4978TIP3    H236350   4.766   4.333   0.067  0.4484 -1.0467  0.1031
 4979TIP3   OH236351   2.984   2.116  10.660  0.9906 -0.1744  0.0342
 4979TIP3    H136352   2.988   2.095  10.753  0.3964  3.1432  0.9207
 4979TIP3    H236353   2.899   2.082  10.631 -0.5655  2.0181  1.7205
 4980TIP3   OH236354   2.246   1.661  15.118 -0.4288 -0.2892  0.0291
 4980TIP3    H136355   2.333   1.627  15.137  0.0496  0.1928 -1.1619
 4980TIP3    H236356   2.190   1.625  15.186  1.0649  1.1130  2.1088
 4981TIP3   OH236357   0.434   3.986  11.399 -0.6158  0.0581 -0.1953
 4981TIP3    H136358   0.435   3.949  11.487 -1.2922 -0.1115 -0.2510
 4981TIP3    H236359   0.526   3.999  11.377 -0.4372  2.8291  1.6539
 4982TIP3   OH236360   5.962   5.084  10.339 -0.4345  0.5329  0.1950
 4982TIP3    H136361   5.984   5.177  10.339  0.7560  0.2736 -0.0317
 4982TIP3    H236362   6.038   5.042  10.297 -1.8834 -0.3371 -1.7008
 4983TIP3   OH236363   1.462   6.449  14.614 -0.7945  0.5423  0.6691
 4983TIP3    H136364   1.444   6.531  14.567  0.9279  0.7747  0.3424
 4983TIP3    H236365   1.424   6.463  14.700 -0.7683  1.5869  0.5316
 4984TIP3   OH236366   4.935   2.916   0.679 -0.4733  0.0703  0.3761
 4984TIP3    H136367   4.909   2.833   0.640 -0.1550  0.0768  0.1451
 4984TIP3    H236368   5.030   2.910   0.689 -0.5821 -0.0304  1.3926
 4985TIP3   OH236369   2.162   5.128   2.238 -0.0690 -0.3271 -0.2851
 4985TIP3    H136370   2.255   5.107   2.245 -0.1425 -0.9134 -0.8654
 4985TIP3    H236371   2.159   5.213   2.195  0.2423  0.9390  2.0563
 4986TIP3   OH236372   4.037   5.168  13.670  0.5403 -0.0244  0.0467
 4986TIP3    H136373   4.009   5.084  13.705 -1.3546  0.5237 -0.0046
 4986TIP3    H236374   4.052   5.152  13.577 -1.0127 -0.0880 -0.2192
 4987TIP3   OH236375   5.354   6.650   0.996 -0.2500  0.1095  0.0682
 4987TIP3    H136376   5.385   6.648   1.086  0.1289  0.6207 -0.0476
 4987TIP3    H236377   5.259   6.658   1.003 -0.3913 -1.5081  0.4308
 4988TIP3   OH236378   6.039   2.705   0.546  0.0814 -0.0028 -0.0705
 4988TIP3    H136379   5.946   2.699   0.527  0.3285  0.0065 -1.3387
 4988TIP3    H236380   6.079   2.735   0.464  1.0763  1.0086  0.7413
 4989TIP3   OH236381   0.511   5.156   1.121  0.2006 -0.1734  0.3820
 4989TIP3    H136382   0.482   5.067   1.144  0.5185 -0.1778  0.7674
 4989TIP3    H236383   0.504   5.159   1.026  0.7676 -0.8185  0.3142
 4990TIP3   OH236384   1.475   1.218   2.443  0.2148  0.0500 -0.2033
 4990TIP3    H136385   1.515   1.295   2.484 -1.4254  0.5405  0.5633
 4990TIP3    H236386   1.386   1.246   2.421  0.2333 -1.0112 -1.8155
 4991TIP3   OH236387   6.010   2.270  11.531 -0.1414  0.1691 -0.0925
 4991TIP3    H136388   6.092   2.264  11.581  0.6866  2.0166 -1.1240
 4991TIP3    H236389   5.948   2.215  11.579  1.3246 -0.1883  1.4754
 4992TIP3   OH236390   1.178   5.207  10.876 -0.0205  0.4952 -0.2359
 4992TIP3    H136391   1.145   5.195  10.965 -0.4465  0.8587 -0.3416
 4992TIP3    H236392   1.273   5.216  10.887 -0.0361  0.2257  0.1477
 4993TIP3   OH236393   0.965   2.704  12.555 -0.0425  0.1414  0.2773
 4993TIP3    H136394   0.968   2.708  12.650 -0.2556  0.7919  0.2605
 4993TIP3    H236395   0.991   2.614  12.534 -2.7408 -0.8922  1.0459
 4994TIP3   OH236396   1.887   2.583  10.028  0.4250  0.1902 -0.0229
 4994TIP3    H136397   1.832   2.660  10.039 -1.5190 -1.2394  0.8601
 4994TIP3    H236398   1.952   2.589  10.098  1.1967  1.6959 -0.8273
 4995TIP3   OH236399   0.104   1.341  10.990  0.4115 -0.0960 -0.3340
 4995TIP3    H136400   0.018   1.366  10.957  0.9962  0.9977 -1.1047
 4995TIP3    H236401   0.086   1.289  11.068 -0.9248  2.0182  0.8629
 4996TIP3   OH236402   6.139   5.138  11.233 -0.0479 -0.1549  0.1889
 4996TIP3    H136403   6.229   5.118  11.258  0.3467  1.4984  0.2359
 4996TIP3    H236404   6.146   5.175  11.145 -0.4665  1.2731  0.7145
 4997TIP3   OH236405   0.426   3.503   1.036  0.0052 -0.1606  0.1445
 4997TIP3    H136406   0.470   3.487   1.120 -0.6215  0.5634  0.6323
 4997TIP3    H236407   0.487   3.470   0.970  0.5517 -0.6593  0.8807
 4998TIP3   OH236408   0.296   2.285  10.531  0.3948  0.0396 -0.1501
 4998TIP3    H136409   0.241   2.288  10.453  0.3688 -1.3962 -0.2254
 4998TIP3    H236410   0.273   2.364  10.580  0.3051  0.8862 -1.5124
 4999TIP3   OH236411   6.387   4.343   9.592  0.4182 -0.2950  0.6868
 4999TIP3    H136412   6.468   4.394   9.585 -0.5882  1.1329 -1.5195
 4999TIP3    H236413   6.413   4.255   9.566  1.8898 -0.7088  3.1799
 5000TIP3   OH236414   0.242   6.084  12.906  0.2879  0.0608 -0.2785
 5000TIP3    H136415   0.257   6.047  12.993  0.7623 -1.6575 -1.0482
 5000TIP3    H236416   0.242   6.008  12.847 -0.1546  1.1648 -1.7697
 5001TIP3   OH236417   5.518   5.090  12.462  0.9603  0.6835 -0.4443
 5001TIP3    H136418   5.556   5.040  12.534 -0.0484  1.0437  0.3812
 5001TIP3    H236419   5.445   5.138  12.503 -1.3558 -1.1122 -2.1896
 5002TIP3   OH236420   1.717   4.180  14.028  0.4648  0.0385  0.3959
 5002TIP3    H136421   1.677   4.094  14.038 -0.9993  0.7623  1.0758
 5002TIP3    H236422   1.773   4.171  13.950  1.2947 -1.8330  1.1410
 5003TIP3   OH236423   6.904   3.930   0.541  0.5406 -0.7880 -0.3911
 5003TIP3    H136424   6.968   3.901   0.606  0.5313  1.3490  0.6789
 5003TIP3    H236425   6.948   4.001   0.494 -0.0132 -1.2838 -1.6930
 5004TIP3   OH236426   0.080   5.417   9.445  0.4460 -0.3408 -0.2580
 5004TIP3    H136427   0.129   5.444   9.523  0.5550 -0.7209 -0.1914
 5004TIP3    H236428   0.111   5.475   9.375  1.3226 -0.8676 -0.3210
 5005TIP3   OH236429   2.597   6.613  10.716 -0.1065  0.2625  0.0331
 5005TIP3    H136430   2.630   6.535  10.761  0.6027  0.7353  0.3549
 5005TIP3    H236431   2.635   6.608  10.628 -0.8658 -0.2629 -0.2691
 5006TIP3   OH236432   6.346   2.551  14.815  0.1213 -0.3729  0.0711
 5006TIP3    H136433   6.265   2.506  14.836 -1.1137  1.1972 -1.0630
 5006TIP3    H236434   6.340   2.635  14.861  1.4441 -0.5069  0.5362
 5007TIP3   OH236435   4.586   5.304  15.230  0.6525  0.3052  0.2966
 5007TIP3    H136436   4.655   5.353  15.186  1.1677 -0.7394 -0.0912
 5007TIP3    H236437   4.632   5.245  15.290 -0.0220  1.6775  2.3056
 5008TIP3   OH236438   6.186   0.762   9.357  0.3602  0.6722  0.1107
 5008TIP3    H136439   6.223   0.791   9.441  1.2511  0.9521 -0.3614
 5008TIP3    H236440   6.162   0.843   9.312 -0.1615  0.5201  0.1098
 5009TIP3   OH236441   0.211   2.713  13.694  0.2197 -0.5876 -0.1234
 5009TIP3    H136442   0.142   2.657  13.729 -0.0477 -0.0354  0.2439
 5009TIP3    H236443   0.266   2.654  13.642 -1.7845 -0.6752 -2.3196
 5010TIP3   OH236444   0.257   1.877  14.617  0.5263  0.0446 -0.3984
 5010TIP3    H136445   0.167   1.878  14.586  1.0561 -2.8063 -2.3607
 5010TIP3    H236446   0.258   1.811  14.686  1.8797 -3.7723 -3.7258
 5011TIP3   OH236447   3.501   1.440  10.654  0.5994 -0.3300  0.2043
 5011TIP3    H136448   3.450   1.364  10.627 -0.1847  0.7281 -1.4641
 5011TIP3    H236449   3.592   1.410  10.651  0.2851 -1.3086 -0.0114
 5012TIP3   OH236450   2.255   6.660  10.428  0.2904  0.5128  0.1333
 5012TIP3    H136451   2.303   6.584  10.463  0.6369  0.9344  0.5891
 5012TIP3    H236452   2.269   6.656  10.334 -1.8273 -1.4614 -0.1958
 5013TIP3   OH236453   0.351   4.742  14.054 -0.0167 -0.6602 -0.0294
 5013TIP3    H136454   0.316   4.809  13.995 -1.5752 -1.9836 -0.7076
 5013TIP3    H236455   0.399   4.682  13.996  1.1221 -0.3160  0.5286
 5014TIP3   OH236456   4.609   3.887  12.397 -0.0820 -0.1177 -0.2649
 5014TIP3    H136457   4.638   3.798  12.419 -0.2681 -0.7201 -2.2889
 5014TIP3    H236458   4.538   3.874  12.335 -0.3318  1.4593 -0.3357
 5015TIP3   OH236459   4.652   0.086  10.030  0.1047 -0.3330 -0.3130
 5015TIP3    H136460   4.680   0.136   9.954 -0.4987 -0.3141 -0.5229
 5015TIP3    H236461   4.576   0.134  10.064  0.0562 -0.6239 -0.0048
 5016TIP3   OH236462   2.422   1.732   2.218 -0.6013  0.0160  0.1035
 5016TIP3    H136463   2.362   1.729   2.143 -0.6570 -1.2942  0.1804
 5016TIP3    H236464   2.416   1.822   2.249  0.3615  0.9618 -2.2113
 5017TIP3   OH236465   2.711   6.120  10.118 -0.4668 -0.0827 -0.3581
 5017TIP3    H136466   2.774   6.153  10.054 -0.5618 -1.5288 -1.2417
 5017TIP3    H236467   2.627   6.153  10.089 -0.0238  3.9492  2.1811
 5018TIP3   OH236468   3.871   5.201   5.081  0.2785 -0.2196  0.2194
 5018TIP3    H136469   3.927   5.229   5.009  0.7517  2.2429  1.4290
 5018TIP3    H236470   3.892   5.108   5.094  2.4217  0.0724 -0.8171
 5019TIP3   OH236471   2.638   6.422   1.699 -0.2438 -0.1244 -0.1168
 5019TIP3    H136472   2.729   6.452   1.693 -0.9169  1.7200 -1.8660
 5019TIP3    H236473   2.636   6.344   1.644  0.6012 -1.1643  1.2449
 5020TIP3   OH236474   2.137   2.235   9.243  0.1738 -0.0854 -0.6466
 5020TIP3    H136475   2.232   2.236   9.248  0.1343 -0.2049  0.6368
 5020TIP3    H236476   2.117   2.249   9.151  1.4332 -0.2763 -0.9666
 5021TIP3   OH236477   5.153   0.074  10.373 -0.2093 -0.2557  0.2652
 5021TIP3    H136478   5.248   0.072  10.381 -0.1552 -1.1688 -0.4684
 5021TIP3    H236479   5.128   0.161  10.405  1.0124  0.6323 -1.0989
 5022TIP3   OH236480   1.149   4.653  13.531  0.6200  0.2680 -0.2821
 5022TIP3    H136481   1.245   4.649  13.530  0.7573  2.0173  0.7352
 5022TIP3    H236482   1.125   4.608  13.612  0.6983  1.0380  0.1798
 5023TIP3   OH236483   2.235   4.262  13.026 -0.3404 -0.1592  0.4979
 5023TIP3    H136484   2.305   4.281  12.963 -0.4947  0.2794  0.4559
 5023TIP3    H236485   2.180   4.197  12.982 -1.0878  0.9719 -0.3039
 5024TIP3   OH236486   2.877   5.323   1.817 -0.4937  0.1625  0.3480
 5024TIP3    H136487   2.928   5.242   1.816 -0.2359  0.3149  0.7312
 5024TIP3    H236488   2.889   5.361   1.730 -0.9022 -0.3846  0.0483
 5025TIP3   OH236489   6.807   4.823   4.859  0.6032 -0.4169  0.5638
 5025TIP3    H136490   6.854   4.905   4.875 -0.3510  0.0073  1.2853
 5025TIP3    H236491   6.743   4.818   4.930  1.2314 -2.2272  1.0594
 5026TIP3   OH236492   2.344   2.278  12.304  0.3714 -0.2894 -0.2474
 5026TIP3    H136493   2.327   2.184  12.302  2.5810 -0.7354 -0.3252
 5026TIP3    H236494   2.369   2.296  12.394 -0.4335  0.3310 -0.1368
 5027TIP3   OH236495   0.900   2.374   1.292  0.2584 -0.0083  0.2117
 5027TIP3    H136496   0.860   2.456   1.263 -0.4173 -0.4062 -0.0131
 5027TIP3    H236497   0.993   2.386   1.277  0.2807  1.0819  1.0859
 5028TIP3   OH236498   0.873   4.023  12.349 -0.2335 -0.1354  0.1657
 5028TIP3    H136499   0.932   3.947  12.347  2.2691  1.6304  1.3230
 5028TIP3    H236500   0.903   4.079  12.277 -2.3336 -0.3620 -0.9585
 5029TIP3   OH236501   3.487   4.260   0.552 -0.0697 -0.6971 -0.5055
 5029TIP3    H136502   3.540   4.206   0.494 -0.5108 -1.8744  0.1544
 5029TIP3    H236503   3.538   4.264   0.633  0.5922  1.0192 -0.9717
 5030TIP3   OH236504   2.810   7.105  13.642  0.4169  0.1403 -0.2261
 5030TIP3    H136505   2.849   7.124  13.557  0.4985 -0.1951 -0.2646
 5030TIP3    H236506   2.873   7.139  13.706  1.0293 -0.8719 -0.2772
 5031TIP3   OH236507   6.893   2.144  11.767  0.4648 -0.7148  0.2505
 5031TIP3    H136508   6.925   2.119  11.680  0.2046 -1.3876  0.3433
 5031TIP3    H236509   6.941   2.086  11.827  0.8955 -0.0224  0.5893
 5032TIP3   OH236510   2.649   3.021   1.921  0.2772 -0.3884 -0.2319
 5032TIP3    H136511   2.660   2.941   1.973  0.0108 -0.3111 -0.0522
 5032TIP3    H236512   2.592   2.995   1.849  0.1926 -0.3621 -0.1749
 5033TIP3   OH236513   1.151   6.342  10.117  0.0826 -0.2475  0.3245
 5033TIP3    H136514   1.236   6.385  10.124 -0.5857  1.0375  0.8944
 5033TIP3    H236515   1.156   6.291  10.036  0.5540  1.7125 -0.9248
 5034TIP3   OH236516   3.923   1.754   1.689  0.5320 -0.6451 -0.5832
 5034TIP3    H136517   3.981   1.767   1.615  2.1816 -0.8067  0.6281
 5034TIP3    H236518   3.880   1.839   1.701  2.6419  0.3860  0.1914
 5035TIP3   OH236519   0.889   0.282  11.223  0.4285 -0.1967 -0.2688
 5035TIP3    H136520   0.809   0.230  11.234  0.7582 -0.6787 -0.1571
 5035TIP3    H236521   0.939   0.268  11.303 -0.6314  2.3499  0.9535
 5036TIP3   OH236522   4.704   2.986  13.364  0.1018 -0.1761 -0.3981
 5036TIP3    H136523   4.738   3.015  13.449  4.1406  0.6158 -2.0861
 5036TIP3    H236524   4.719   2.892  13.363  0.9575 -0.0484 -0.5453
 5037TIP3   OH236525   2.643   1.019  11.164  0.3325  0.3300  0.4865
 5037TIP3    H136526   2.721   0.985  11.121 -0.8710 -2.2032  0.0633
 5037TIP3    H236527   2.594   1.062  11.094  0.3125 -0.1062  0.2251
 5038TIP3   OH236528   0.310   6.965  11.251  0.0547  0.3993  0.1875
 5038TIP3    H136529   0.299   7.026  11.178  1.1981  0.1571 -0.2177
 5038TIP3    H236530   0.383   7.001  11.301  1.1917 -0.9470 -0.4284
 5039TIP3   OH236531   5.093   2.738   9.536 -0.0025  0.1928  0.0767
 5039TIP3    H136532   5.154   2.714   9.605 -0.2728  1.1759  0.6715
 5039TIP3    H236533   5.131   2.700   9.457 -0.5034 -2.3353  0.9525
 5040TIP3   OH236534   4.694   6.389  11.745  0.0413 -0.3698 -0.2519
 5040TIP3    H136535   4.702   6.323  11.676 -0.0974  0.3749 -0.9857
 5040TIP3    H236536   4.747   6.354  11.817 -1.5760 -2.2212  0.1224
 5041TIP3   OH236537   0.415   4.647  13.595 -0.4550  0.2145  0.1792
 5041TIP3    H136538   0.343   4.610  13.545 -0.6620  0.0307  0.6113
 5041TIP3    H236539   0.452   4.714  13.538  0.4601 -1.2132 -0.9747
 5042TIP3   OH236540   0.661   4.348  11.266 -0.0822 -0.6003 -0.2964
 5042TIP3    H136541   0.682   4.328  11.175 -1.4100  1.1453 -1.0458
 5042TIP3    H236542   0.696   4.437  11.279 -0.1704 -0.7114  0.8242
 5043TIP3   OH236543   0.664   5.729  13.955  0.0229 -0.1467  0.0475
 5043TIP3    H136544   0.659   5.713  13.860 -0.1731 -1.4292  0.2594
 5043TIP3    H236545   0.742   5.682  13.983  1.1463  1.7402  0.2615
 5044TIP3   OH236546   5.254   6.490  14.043 -0.1886 -0.1808  0.5820
 5044TIP3    H136547   5.166   6.474  14.078 -0.7500 -0.5427 -0.9244
 5044TIP3    H236548   5.256   6.442  13.960  0.7575  1.4226 -0.3721
 5045TIP3   OH236549   6.660   6.644  10.849 -0.1238 -0.0237 -0.3295
 5045TIP3    H136550   6.623   6.555  10.851 -2.1597  0.7302 -1.2069
 5045TIP3    H236551   6.673   6.667  10.941  0.4823 -1.2370 -0.0976
 5046TIP3   OH236552   5.329   6.591  10.447  0.2315  0.1517 -0.6220
 5046TIP3    H136553   5.248   6.605  10.399 -0.1215  0.2773 -0.0078
 5046TIP3    H236554   5.374   6.676  10.445 -0.5951  0.6579  0.7178
 5047TIP3   OH236555   0.340   0.719   1.567  0.6211 -0.3358  0.0426
 5047TIP3    H136556   0.259   0.670   1.582 -0.7746  1.3136 -1.6483
 5047TIP3    H236557   0.381   0.725   1.654 -1.8405  0.0391  1.2603
 5048TIP3   OH236558   6.699   7.028  10.596  0.0418 -0.0082 -0.0957
 5048TIP3    H136559   6.748   7.102  10.559 -0.5102  0.1722 -0.4712
 5048TIP3    H236560   6.739   6.951  10.555  1.0387  0.0208  0.7708
 5049TIP3   OH236561   6.087   2.869  14.826  0.3586  0.6758 -0.2044
 5049TIP3    H136562   6.113   2.961  14.829 -0.9319  1.0424  1.6811
 5049TIP3    H236563   6.067   2.852  14.734  0.6157  2.2726 -0.5837
 5050TIP3   OH236564   2.106   0.239   4.471  0.0447 -0.2646 -0.0859
 5050TIP3    H136565   2.151   0.176   4.527 -0.3442 -1.9314 -1.5702
 5050TIP3    H236566   2.017   0.204   4.462  0.1373 -0.1044 -1.8212
 5051TIP3   OH236567   0.807   5.324  14.343 -0.4819  0.2737  0.5733
 5051TIP3    H136568   0.866   5.349  14.273 -0.2250 -0.3592  0.5534
 5051TIP3    H236569   0.723   5.308  14.299 -0.5435  0.7022  0.5348
 5052TIP3   OH236570   2.860   4.879   9.792 -0.5978  0.1910 -0.2684
 5052TIP3    H136571   2.955   4.893   9.800 -0.4321 -1.2925  0.8809
 5052TIP3    H236572   2.838   4.915   9.706  1.1614 -0.2084 -0.9397
 5053TIP3   OH236573   5.670   2.427   0.098 -0.0900 -0.1746  0.5470
 5053TIP3    H136574   5.635   2.338   0.090  0.5445 -0.7256  2.8723
 5053TIP3    H236575   5.753   2.415   0.144  0.0861  1.6074  0.7560
 5054TIP3   OH236576   0.977   4.397   0.696 -0.0049 -0.1166 -0.3172
 5054TIP3    H136577   0.885   4.420   0.710  0.1374  0.4177 -0.2547
 5054TIP3    H236578   1.002   4.443   0.616  0.6629  1.0483  0.5438
 5055TIP3   OH236579   5.095   1.844   4.744  0.0534  0.3028 -0.1012
 5055TIP3    H136580   5.098   1.770   4.805  1.5071 -0.9767 -1.6641
 5055TIP3    H236581   5.119   1.919   4.798  0.4436 -0.6479  1.1006
 5056TIP3   OH236582   3.958   5.616  11.147  0.5259  0.7002  0.4665
 5056TIP3    H136583   3.911   5.538  11.119  1.4091 -0.7189  2.6420
 5056TIP3    H236584   3.890   5.680  11.165 -0.5639 -0.8321  2.1562
 5057TIP3   OH236585   5.478   4.632   9.848 -0.5356  0.1469  0.1316
 5057TIP3    H136586   5.553   4.577   9.871 -0.5352  0.1811  0.2135
 5057TIP3    H236587   5.435   4.585   9.777 -0.3312  0.2198 -0.0419
 5058TIP3   OH236588   0.868   3.367  10.223 -0.1368 -0.8264  0.1088
 5058TIP3    H136589   0.854   3.457  10.192  0.7636 -1.2041 -1.5038
 5058TIP3    H236590   0.797   3.317  10.182 -0.4564 -0.9127  0.7586
 5059TIP3   OH236591   4.538   1.878   1.779  0.3891  0.1304  0.2037
 5059TIP3    H136592   4.627   1.869   1.745  0.0448 -1.5507 -0.3282
 5059TIP3    H236593   4.521   1.972   1.776  1.4580  0.3210 -1.5052
 5060TIP3   OH236594   4.151   0.790   0.315  0.0384 -0.2234  0.4985
 5060TIP3    H136595   4.232   0.826   0.279  0.0758  0.6478  1.4170
 5060TIP3    H236596   4.120   0.730   0.248  0.5878  0.6697 -0.5913
 5061TIP3   OH236597   1.605   1.438  11.902 -0.9345 -0.0881  0.1900
 5061TIP3    H136598   1.602   1.456  11.808 -1.8382  1.0479  0.4223
 5061TIP3    H236599   1.672   1.497  11.936 -0.0904 -1.0077  0.1725
 5062TIP3   OH236600   3.770   3.508  13.072  0.2176 -0.5210  0.4707
 5062TIP3    H136601   3.824   3.472  13.002 -0.5503  0.9493 -0.9550
 5062TIP3    H236602   3.768   3.602  13.054 -0.5198 -0.1980  2.1210
 5063TIP3   OH236603   0.391   3.354  14.532 -0.3162 -0.0153 -0.1810
 5063TIP3    H136604   0.302   3.383  14.508 -0.1916 -1.1379 -2.2389
 5063TIP3    H236605   0.436   3.435  14.555 -1.9443  0.5474  1.2913
 5064TIP3   OH236606   3.479   7.053   3.210  0.7430 -0.1126 -0.0155
 5064TIP3    H136607   3.523   7.095   3.284  0.0399  1.4410 -0.4420
 5064TIP3    H236608   3.527   7.083   3.133 -0.5410  1.0119 -0.4274
 5065TIP3   OH236609   5.570   4.044  10.861  0.0742  0.1604 -0.4843
 5065TIP3    H136610   5.513   4.020  10.788 -0.4013 -2.2331  0.6022
 5065TIP3    H236611   5.616   3.963  10.883  1.5086  1.2640  0.7745
 5066TIP3   OH236612   2.486   6.321   9.514 -0.2581  0.2574 -0.3416
 5066TIP3    H136613   2.557   6.263   9.542  0.4900  0.4178 -1.8044
 5066TIP3    H236614   2.529   6.404   9.493 -1.2703  1.2887  1.3878
 5067TIP3   OH236615   3.896   4.866  12.090  0.3891 -0.5078 -0.7042
 5067TIP3    H136616   3.957   4.854  12.017  0.4203  0.7318 -0.9094
 5067TIP3    H236617   3.811   4.881  12.048  0.5798  1.1995 -0.5552
 5068TIP3   OH236618   6.669   0.235   1.518  0.1034  0.2591  0.4938
 5068TIP3    H136619   6.676   0.148   1.557 -3.6345  0.4173  1.9067
 5068TIP3    H236620   6.691   0.295   1.589  0.5194  0.5227  0.1493
 5069TIP3   OH236621   5.884   2.131  15.112 -0.0355  0.5225  0.0106
 5069TIP3    H136622   5.896   2.113  15.205 -0.4507  2.9982  0.6210
 5069TIP3    H236623   5.825   2.063  15.081  0.3056 -0.4862  1.4985
 5070TIP3   OH236624   3.094   0.546  10.575 -0.3839 -0.2912  0.0783
 5070TIP3    H136625   3.078   0.567  10.483  2.3995  2.4279  0.0534
 5070TIP3    H236626   3.046   0.613  10.623 -1.1551 -1.2022  0.5967
 5071TIP3   OH236627   3.243   4.330   0.729  0.3959  0.2217 -0.0681
 5071TIP3    H136628   3.200   4.262   0.677  0.8526  0.1647 -0.3750
 5071TIP3    H236629   3.331   4.336   0.692  0.3429  1.0240 -0.0856
 5072TIP3   OH236630   0.723   1.249  15.126 -0.1120  0.1256 -0.0415
 5072TIP3    H136631   0.779   1.178  15.156  0.7666  0.9850  0.4357
 5072TIP3    H236632   0.779   1.301  15.068 -0.7405  0.4139 -0.4057
 5073TIP3   OH236633   4.117   0.037  14.129  0.0163  0.0694  0.1063
 5073TIP3    H136634   4.103   0.046  14.224  0.5903  1.2179  0.1022
 5073TIP3    H236635   4.032   0.012  14.094 -0.4855  0.7722  0.7965
 5074TIP3   OH236636   6.303   1.837  14.035  0.5296  0.2298 -0.0096
 5074TIP3    H136637   6.246   1.873  14.102 -1.8181  0.6535 -2.0967
 5074TIP3    H236638   6.263   1.753  14.011  2.9521 -1.3714  1.0174
 5075TIP3   OH236639   3.690   6.676  14.521 -0.0216  0.0118 -0.0412
 5075TIP3    H136640   3.637   6.598  14.539  0.1746 -0.4849 -1.4577
 5075TIP3    H236641   3.642   6.721  14.451  1.4822 -0.5682 -1.5275
 5076TIP3   OH236642   4.194   3.352   4.504 -0.6281 -0.0516 -0.4236
 5076TIP3    H136643   4.277   3.383   4.469  1.3013 -3.1542  0.9288
 5076TIP3    H236644   4.195   3.378   4.596 -0.1756 -1.7310  0.0799
 5077TIP3   OH236645   6.478   2.459  10.337  0.3184 -0.4599 -0.1503
 5077TIP3    H136646   6.568   2.492  10.333  1.1117 -2.5190 -0.4633
 5077TIP3    H236647   6.424   2.537  10.350  2.1842  0.7760  0.5433
 5078TIP3   OH236648   0.239   5.930  10.467  0.1360 -0.7292 -0.1055
 5078TIP3    H136649   0.330   5.934  10.438 -0.2699 -0.5709 -1.4462
 5078TIP3    H236650   0.203   5.853  10.423 -1.0252  0.6445 -1.6958
 5079TIP3   OH236651   6.036   4.813   0.933  0.1417 -0.0450  0.4911
 5079TIP3    H136652   6.073   4.895   0.900  0.7256 -0.1853  0.7754
 5079TIP3    H236653   6.064   4.747   0.870  0.4557 -0.1627  0.7454
 5080TIP3   OH236654   6.491   4.790  11.685 -0.2004  0.2736  0.4847
 5080TIP3    H136655   6.550   4.865  11.680  2.7692 -1.9668 -0.8599
 5080TIP3    H236656   6.476   4.777  11.778 -0.6399  2.3326  0.7596
 5081TIP3   OH236657   6.209   2.812  11.464  0.0508 -0.3992  0.4685
 5081TIP3    H136658   6.128   2.823  11.415 -0.5203  1.5240  1.7464
 5081TIP3    H236659   6.278   2.823  11.398 -0.7040  0.4769 -0.1943
 5082TIP3   OH236660   3.179   4.801  12.285 -0.3775  0.3029  0.1926
 5082TIP3    H136661   3.151   4.769  12.199 -0.6971 -0.4447  0.5594
 5082TIP3    H236662   3.106   4.779  12.343 -0.0811  0.6200  0.6961
 5083TIP3   OH236663   1.252   4.197   0.285  0.9313 -0.6499 -0.3462
 5083TIP3    H136664   1.343   4.172   0.270  0.7721 -2.2467  1.0851
 5083TIP3    H236665   1.202   4.143   0.223  0.9260 -0.1949 -0.7362
 5084TIP3   OH236666   2.834   3.890  10.637  0.4716  1.0419  0.1934
 5084TIP3    H136667   2.824   3.816  10.697  0.8738  0.6742 -0.1864
 5084TIP3    H236668   2.771   3.874  10.567  0.2691  1.2750  0.3209
 5085TIP3   OH236669   0.581   6.854  15.303  0.0509 -0.3070  0.5140
 5085TIP3    H136670   0.558   6.786  15.366  0.8589 -1.5660 -0.4839
 5085TIP3    H236671   0.556   6.818  15.218  1.0613  0.3703 -0.0991
 5086TIP3   OH236672   5.809   3.657  12.217 -0.4617  0.3643  0.0548
 5086TIP3    H136673   5.890   3.686  12.177  1.2400 -1.1756  2.1030
 5086TIP3    H236674   5.786   3.577  12.169 -0.5201  0.5692 -0.2570
 5087TIP3   OH236675   6.716   1.944   2.495  0.6639 -0.1769 -0.2834
 5087TIP3    H136676   6.639   1.996   2.517  1.7189  0.8446  1.2983
 5087TIP3    H236677   6.747   1.911   2.580  1.1401 -1.7892 -1.0514
 5088TIP3   OH236678   4.868   3.772  13.133 -0.1889  0.1781  0.0798
 5088TIP3    H136679   4.956   3.737  13.149 -0.4156 -0.1592  0.6068
 5088TIP3    H236680   4.826   3.708  13.077  0.0307  0.5374 -0.5085
 5089TIP3   OH236681   4.194   5.854  10.454 -0.0436 -0.1688  0.0934
 5089TIP3    H136682   4.236   5.934  10.484 -2.0272  1.1206 -0.4324
 5089TIP3    H236683   4.150   5.819  10.532 -0.2260 -0.0647  0.0366
 5090TIP3   OH236684   3.142   0.748   9.570 -0.4246 -0.5655 -0.3279
 5090TIP3    H136685   3.083   0.823   9.569  0.3568  0.0931  0.3864
 5090TIP3    H236686   3.171   0.738   9.479 -2.6054 -1.7453 -0.9548
 5091TIP3   OH236687   6.917   3.392   2.661  0.3816 -0.1850  0.1195
 5091TIP3    H136688   6.948   3.472   2.704  0.0848 -0.7456  1.4474
 5091TIP3    H236689   6.979   3.324   2.687 -0.9047 -0.9537  1.3904
 5092TIP3   OH236690   5.941   5.803  12.782 -1.1193  0.1680 -0.3632
 5092TIP3    H136691   6.035   5.788  12.787 -0.3096  4.2507  1.3510
 5092TIP3    H236692   5.930   5.859  12.704 -1.4578  2.4363  1.2016
 5093TIP3   OH236693   3.127   0.347   5.057 -0.1258 -0.3681  0.2578
 5093TIP3    H136694   3.108   0.441   5.063 -2.3281 -0.7668  0.4124
 5093TIP3    H236695   3.219   0.343   5.033 -0.2415  1.8745 -0.8669
 5094TIP3   OH236696   5.691   2.049  13.219  0.3012 -0.1049  0.5757
 5094TIP3    H136697   5.653   2.136  13.207 -0.5537 -0.3741  1.2082
 5094TIP3    H236698   5.717   2.022  13.131 -1.3349 -0.0520  0.0398
 5095TIP3   OH236699   2.270   5.821  11.917  0.0107 -0.6809 -0.4936
 5095TIP3    H136700   2.264   5.816  12.012 -0.1060  2.1648 -0.2576
 5095TIP3    H236701   2.182   5.844  11.888  0.9378  3.4018 -0.6915
 5096TIP3   OH236702   6.967   6.091  11.588 -0.7165  0.5736 -0.2352
 5096TIP3    H136703   7.031   6.162  11.582  1.8654 -1.5536  0.1969
 5096TIP3    H236704   6.956   6.076  11.682  0.6871 -1.0999 -0.2802
 5097TIP3   OH236705   6.578   3.481  12.979  0.1986 -0.8659 -0.4416
 5097TIP3    H136706   6.635   3.558  12.984 -0.8419  0.1046 -2.1708
 5097TIP3    H236707   6.624   3.420  12.922 -1.0823  0.6040 -3.2486
 5098TIP3   OH236708   0.776   3.945   9.901  0.2697  0.0716  0.3337
 5098TIP3    H136709   0.829   3.966   9.824 -1.0102  2.0935 -0.0753
 5098TIP3    H236710   0.802   3.856   9.925  3.6934  0.8691  0.0748
 5099TIP3   OH236711   5.240   1.133  12.962  0.6435 -0.6356  0.4947
 5099TIP3    H136712   5.146   1.115  12.959  0.4495  0.3462 -0.0671
 5099TIP3    H236713   5.257   1.159  13.053  0.3936 -0.9170  0.6225
 5100TIP3   OH236714   2.580   1.231   0.286 -0.2623  0.0343 -0.1435
 5100TIP3    H136715   2.628   1.213   0.367  1.0614 -0.3949 -0.9988
 5100TIP3    H236716   2.510   1.291   0.313  1.1970  1.2896  1.0048
 5101TIP3   OH236717   3.221   1.817  14.276  0.1997  0.2142  0.1308
 5101TIP3    H136718   3.229   1.912  14.266 -0.0756  0.2236 -0.0220
 5101TIP3    H236719   3.267   1.797  14.357  0.2317  0.4844  0.1799
 5102TIP3   OH236720   0.236   5.860   2.831  0.0389  0.2846 -0.3629
 5102TIP3    H136721   0.141   5.854   2.824 -0.1912  1.2454  1.3823
 5102TIP3    H236722   0.260   5.797   2.899  0.6515  0.0092 -0.8275
 5103TIP3   OH236723   2.934   3.473   0.539  0.2867 -1.0172 -0.3933
 5103TIP3    H136724   3.023   3.497   0.565  0.7311 -1.2916 -1.5960
 5103TIP3    H236725   2.944   3.388   0.495 -0.5144 -0.8670 -0.8826
 5104TIP3   OH236726   5.981   2.277  11.026  0.2679  0.4783 -0.7146
 5104TIP3    H136727   6.011   2.301  11.114 -2.2035 -0.3419  0.4313
 5104TIP3    H236728   5.951   2.359  10.988 -1.7853  0.3835  0.5615
 5105TIP3   OH236729   1.800   5.449  14.345 -0.5684 -0.1008 -0.4108
 5105TIP3    H136730   1.852   5.429  14.424 -0.7785 -0.9266 -0.4784
 5105TIP3    H236731   1.749   5.370  14.329 -0.0440 -0.2014 -1.7603
 5106TIP3   OH236732   0.319   1.558  11.015 -0.0996  0.4128 -0.1686
 5106TIP3    H136733   0.256   1.623  11.046 -0.2686  1.6100 -2.7873
 5106TIP3    H236734   0.268   1.477  11.009 -0.1314  0.1780  2.1853
 5107TIP3   OH236735   1.066   5.508   0.201 -0.2937 -0.4673 -0.0933
 5107TIP3    H136736   1.124   5.515   0.125  0.1853  0.2735  0.3276
 5107TIP3    H236737   1.102   5.437   0.253 -2.2094 -2.9128 -1.8733
 5108TIP3   OH236738   2.185   4.579   1.776  0.4091 -0.1250 -0.5616
 5108TIP3    H136739   2.100   4.582   1.733  0.4317  0.5022 -0.5815
 5108TIP3    H236740   2.189   4.661   1.827 -0.1562 -1.4092  1.6849
 5109TIP3   OH236741   4.906   2.499   0.032  0.5010 -0.1836 -0.4306
 5109TIP3    H136742   4.904   2.594   0.018  1.4924 -0.1597 -0.4624
 5109TIP3    H236743   4.916   2.462  -0.056  1.0494 -0.2737 -0.3333
 5110TIP3   OH236744   6.117   1.677  11.738  0.0368 -0.3313  0.5686
 5110TIP3    H136745   6.033   1.669  11.693  1.5651 -0.8183 -2.4040
 5110TIP3    H236746   6.131   1.772  11.745 -0.5371 -0.2487  0.6822
 5111TIP3   OH236747   0.137   5.586  12.336  0.0306 -0.4747  0.4619
 5111TIP3    H136748   0.212   5.552  12.384 -1.1092 -1.9711  1.2652
 5111TIP3    H236749   0.112   5.666  12.383  3.1934  2.1727 -1.8778
 5112TIP3   OH236750   3.516   6.561  14.186  0.0979  0.4193  0.2671
 5112TIP3    H136751   3.511   6.648  14.224 -1.1525  0.6042 -0.2516
 5112TIP3    H236752   3.427   6.544  14.153 -0.0186 -1.5481  1.4413
 5113TIP3   OH236753   0.868   1.362  11.380  0.1925 -0.3942  0.1224
 5113TIP3    H136754   0.861   1.288  11.320  1.9320  0.6297 -1.4601
 5113TIP3    H236755   0.947   1.346  11.431 -1.7487 -1.7190  2.9866
 5114TIP3   OH236756   4.816   6.682   2.802 -0.0236 -0.1841 -0.4000
 5114TIP3    H136757   4.778   6.770   2.794 -0.2176 -0.2233  0.0468
 5114TIP3    H236758   4.807   6.644   2.714 -0.1810  0.1437 -0.5283
 5115TIP3   OH236759   6.054   6.965   2.591 -0.0733  0.2605 -0.2021
 5115TIP3    H136760   5.962   6.942   2.605  0.1854  0.0469  1.3466
 5115TIP3    H236761   6.101   6.920   2.661  1.1283  0.9557 -0.5281
 5116TIP3   OH236762   2.070   5.003  10.152  0.0346  0.0065 -0.0955
 5116TIP3    H136763   1.980   4.988  10.181  1.1725 -1.9542  2.8291
 5116TIP3    H236764   2.103   4.917  10.127  1.0981  0.7164 -1.2739
 5117TIP3   OH236765   0.507   4.993  10.152 -0.6200  0.2082 -0.6419
 5117TIP3    H136766   0.454   4.914  10.138 -1.0288  0.2867  0.3907
 5117TIP3    H236767   0.446   5.065  10.137 -0.7057  0.3049  0.1461
 5118TIP3   OH236768   0.524   0.308  11.647 -0.2733 -0.5827  0.0319
 5118TIP3    H136769   0.564   0.237  11.696  1.4245 -1.4916 -2.4673
 5118TIP3    H236770   0.455   0.267  11.596  0.8820 -0.5884 -1.6228
 5119TIP3   OH236771   2.785   4.074  14.118 -0.1658 -0.8851  0.2344
 5119TIP3    H136772   2.771   4.113  14.204 -0.2825  1.8911 -0.9306
 5119TIP3    H236773   2.878   4.050  14.117  0.2998  0.7827  0.5283
 5120TIP3   OH236774   2.816   1.679  11.853 -0.0822 -0.0395 -0.1585
 5120TIP3    H136775   2.877   1.655  11.783  3.2513 -2.4760  3.1891
 5120TIP3    H236776   2.759   1.603  11.863 -0.3095  0.1529  0.0107
 5121TIP3   OH236777   2.245   1.596   0.598 -0.0823 -0.5028 -0.2086
 5121TIP3    H136778   2.313   1.616   0.662 -0.0560 -0.6823 -0.1792
 5121TIP3    H236779   2.163   1.623   0.640 -0.0973 -0.9165  0.0293
 5122TIP3   OH236780   3.027   4.568  11.155  0.2653  0.1879 -0.2196
 5122TIP3    H136781   2.991   4.563  11.244 -1.5319  2.2861 -0.7430
 5122TIP3    H236782   3.117   4.597  11.167  0.3952 -0.6372  0.9438
 5123TIP3   OH236783   1.393   2.298   2.733  0.0318  0.0278  0.8340
 5123TIP3    H136784   1.407   2.210   2.766 -1.0893 -0.2702  0.5652
 5123TIP3    H236785   1.300   2.300   2.709 -0.4329  1.8318  2.5105
 5124TIP3   OH236786   5.280   1.704  12.511  0.0293  0.8731 -0.0606
 5124TIP3    H136787   5.259   1.714  12.604 -1.6745 -2.0339 -0.0148
 5124TIP3    H236788   5.359   1.649  12.510 -0.0208  0.8063 -0.3459
 5125TIP3   OH236789   3.733   3.772  11.745 -0.0228  0.3879  0.1532
 5125TIP3    H136790   3.651   3.811  11.715  0.0608  1.2928  1.0340
 5125TIP3    H236791   3.793   3.847  11.753  0.9958 -0.2844 -0.7680
 5126TIP3   OH236792   4.356   2.257  11.601  0.4211 -0.0707  0.0668
 5126TIP3    H136793   4.293   2.186  11.608 -0.0835  0.4977  1.7226
 5126TIP3    H236794   4.403   2.257  11.684  0.0554  1.8382  0.3260
 5127TIP3   OH236795   0.247   5.801   1.531 -0.2497  0.4767 -0.0174
 5127TIP3    H136796   0.281   5.844   1.453 -0.1680 -0.0431 -0.2774
 5127TIP3    H236797   0.222   5.713   1.500 -1.4006  0.6887  0.2596
 5128TIP3   OH236798   1.533   0.331  10.652  0.3994 -0.0515 -0.8681
 5128TIP3    H136799   1.537   0.275  10.575  0.5922 -2.3718  0.7083
 5128TIP3    H236800   1.447   0.372  10.647  0.4382 -0.0926 -2.3220
 5129TIP3   OH236801   5.127   3.309  10.824  0.5618 -0.3929  0.4798
 5129TIP3    H136802   5.107   3.230  10.774  3.7692 -2.9174  2.7274
 5129TIP3    H236803   5.063   3.310  10.894  1.0519 -1.6541  0.9831
 5130TIP3   OH236804   5.923   2.090  14.460 -0.5097 -0.6253 -0.6929
 5130TIP3    H136805   5.913   1.995  14.460 -3.2980 -0.4799  2.1818
 5130TIP3    H236806   5.852   2.122  14.404 -2.2475 -0.2518  1.5493
 5131TIP3   OH236807   3.969   0.297  11.247  0.1250  0.4314  0.6638
 5131TIP3    H136808   3.902   0.229  11.236  1.2364 -0.4921 -0.7408
 5131TIP3    H236809   3.990   0.294  11.341  0.1732 -1.1984  0.6307
 5132TIP3   OH236810   6.256   3.166  14.266  0.4801  0.3493  0.2720
 5132TIP3    H136811   6.216   3.083  14.294  0.7783 -0.1399 -0.7107
 5132TIP3    H236812   6.279   3.210  14.348 -1.3033  0.2777  0.8763
 5133TIP3   OH236813   4.191   3.393  10.919 -0.3824 -0.3732  0.4213
 5133TIP3    H136814   4.237   3.436  10.990 -1.9503  1.0952  0.6015
 5133TIP3    H236815   4.257   3.383  10.850  1.0193 -1.3470  1.8406
 5134TIP3   OH236816   1.757   0.528  10.607 -0.2098  0.1874  0.6807
 5134TIP3    H136817   1.691   0.585  10.646 -1.0748  0.1307 -0.6148
 5134TIP3    H236818   1.715   0.442  10.604  0.7564 -0.3451  1.8219
 5135TIP3   OH236819   4.023   4.769   4.640  0.3102  0.3194 -0.5723
 5135TIP3    H136820   3.948   4.736   4.590  0.3541 -1.9116  0.6701
 5135TIP3    H236821   4.042   4.699   4.702  4.0003  0.3877 -1.3967
 5136TIP3   OH236822   4.441   6.256  15.493 -0.0830 -0.1165 -0.6423
 5136TIP3    H136823   4.437   6.220  15.404  4.5472  1.7253 -1.9297
 5136TIP3    H236824   4.515   6.211  15.534 -1.2386  0.0864  1.8600
 5137TIP3   OH236825   5.164   0.230   9.979  0.5722 -0.0258 -0.4150
 5137TIP3    H136826   5.247   0.277   9.995  1.3010 -1.0134 -1.1721
 5137TIP3    H236827   5.138   0.258   9.892 -0.9524  1.7725  0.5431
 5138TIP3   OH236828   3.358   0.587  10.133 -0.0099 -0.0125  0.0043
 5138TIP3    H136829   3.377   0.521  10.199  0.2127  0.4096  0.3668
 5138TIP3    H236830   3.317   0.659  10.181 -1.4250 -0.3998 -0.5807
 5139TIP3   OH236831   3.521   1.933  10.357  0.1038 -0.3109 -0.0091
 5139TIP3    H136832   3.458   1.933  10.284 -0.3319  0.6868  0.3531
 5139TIP3    H236833   3.587   1.997  10.331 -0.0193  0.0009  0.4466
 5140TIP3   OH236834   6.330   1.807  11.282  0.2494 -0.0861 -0.3564
 5140TIP3    H136835   6.348   1.859  11.204 -0.7251  0.7169 -0.0520
 5140TIP3    H236836   6.238   1.823  11.302  0.3433 -0.7055  0.6480
 5141TIP3   OH236837   3.686   6.850  10.562 -0.5495 -0.1439 -0.3741
 5141TIP3    H136838   3.644   6.849  10.475 -1.7490 -2.5298  0.1603
 5141TIP3    H236839   3.627   6.799  10.618  1.3521 -0.6315  1.2959
 5142TIP3   OH236840   3.608   7.156  11.471 -0.0489  0.2902  0.1309
 5142TIP3    H136841   3.539   7.096  11.444  0.0130  0.4876 -0.4879
 5142TIP3    H236842   3.562   7.232  11.506 -0.1275 -0.0778  0.8360
 5143TIP3   OH236843   2.972   2.648   5.197  0.0630 -0.3689 -0.0016
 5143TIP3    H136844   3.027   2.574   5.173  0.0976 -0.7838  1.2544
 5143TIP3    H236845   3.026   2.725   5.183 -0.1894 -0.4990 -1.9453
 5144TIP3   OH236846   3.156   1.171  11.930  0.7031  0.0457 -0.2750
 5144TIP3    H136847   3.094   1.224  11.879 -0.4543  1.5143  2.4767
 5144TIP3    H236848   3.231   1.229  11.943  1.3813 -0.6439 -1.0108
 5145TIP3   OH236849   5.062   2.295  14.251  0.0601 -0.1740  0.0311
 5145TIP3    H136850   5.091   2.316  14.162 -2.0460 -1.6030 -1.0984
 5145TIP3    H236851   5.124   2.230  14.282  1.3739  1.0363  0.0278
 5146TIP3   OH236852   6.554   3.572  11.136 -0.1765  0.1205  0.0081
 5146TIP3    H136853   6.649   3.559  11.134 -0.2628 -0.4545 -0.4228
 5146TIP3    H236854   6.530   3.555  11.227  0.0124 -0.6366 -0.0791
 5147TIP3   OH236855   2.343   3.670  14.560  0.5811 -0.1497 -0.6881
 5147TIP3    H136856   2.324   3.745  14.503  0.4200  1.0099  0.8355
 5147TIP3    H236857   2.267   3.663  14.617  1.8878  0.4971  1.2247
 5148TIP3   OH236858   5.858   2.783   9.854 -0.3848 -0.1886 -0.4512
 5148TIP3    H136859   5.922   2.788   9.924 -0.2493  0.3317 -0.6110
 5148TIP3    H236860   5.833   2.691   9.851 -0.7166 -0.1431  0.5712
 5149TIP3   OH236861   6.679   2.694   9.549  0.4158 -0.0920  0.1181
 5149TIP3    H136862   6.608   2.756   9.566 -0.0621 -1.0207  1.5993
 5149TIP3    H236863   6.702   2.658   9.634  2.3377 -0.2110 -0.3847
 5150TIP3   OH236864   6.047   3.858  13.314  0.3570  0.9217 -1.1101
 5150TIP3    H136865   6.076   3.844  13.223 -0.0212  1.0901 -1.2600
 5150TIP3    H236866   6.122   3.833  13.367  0.2257 -0.1997 -1.4322
 5151TIP3   OH236867   4.587   0.464  10.983  0.2572  0.3983 -0.1906
 5151TIP3    H136868   4.620   0.381  11.020  0.9726  0.4311 -0.7379
 5151TIP3    H236869   4.619   0.465  10.893 -1.3269  0.4045 -0.7881
 5152TIP3   OH236870   3.995   6.968  14.208  0.0804  0.5577 -0.9576
 5152TIP3    H136871   3.924   6.919  14.167 -0.4589  0.5244  0.0058
 5152TIP3    H236872   3.959   6.999  14.291  1.0992  0.7696 -0.5775
 5153TIP3   OH236873   2.491   4.875   1.766 -0.1582 -0.0253  0.1576
 5153TIP3    H136874   2.501   4.944   1.701  1.2787 -0.1511  0.2099
 5153TIP3    H236875   2.431   4.912   1.831 -1.2326  0.2795 -0.9787
 5154TIP3   OH236876   4.154   6.545   2.860 -0.0841 -0.6935  0.0858
 5154TIP3    H136877   4.192   6.457   2.866  0.7678 -0.3814 -0.5141
 5154TIP3    H236878   4.122   6.551   2.769 -0.7273 -0.6138  0.3135
 5155TIP3   OH236879   2.255   0.731  13.865 -0.7301 -0.4774 -0.6267
 5155TIP3    H136880   2.180   0.720  13.923 -1.1561  0.9323 -0.8757
 5155TIP3    H236881   2.256   0.651  13.812 -0.7721 -1.4633  0.7916
 5156TIP3   OH236882   6.637   2.594  11.096  0.3417 -0.4679  0.3318
 5156TIP3    H136883   6.615   2.681  11.064 -0.3311 -0.5016  0.6888
 5156TIP3    H236884   6.714   2.568  11.045  1.3274  0.8389  1.1133
 5157TIP3   OH236885   0.859   3.543   2.187  0.0899  0.5141  0.6795
 5157TIP3    H136886   0.815   3.616   2.143 -2.1267  0.7900  3.1309
 5157TIP3    H236887   0.825   3.464   2.145 -0.5219  0.8226  0.5869
 5158TIP3   OH236888   2.754   1.508   1.330 -0.6004  0.0931  0.5622
 5158TIP3    H136889   2.698   1.433   1.309 -1.3083  0.8919 -0.4806
 5158TIP3    H236890   2.706   1.554   1.399 -2.0888  1.6306 -1.3778
 5159TIP3   OH236891   5.712   5.866  10.216  0.0014  0.1590 -0.6481
 5159TIP3    H136892   5.689   5.950  10.177  2.1962  1.0204 -0.2563
 5159TIP3    H236893   5.755   5.889  10.299  3.6411 -1.0477 -2.0036
 5160TIP3   OH236894   5.150   6.642  15.298  0.1214 -0.0437 -0.0069
 5160TIP3    H136895   5.095   6.581  15.348  0.6138  0.8047  1.6719
 5160TIP3    H236896   5.239   6.610  15.310  0.0683 -1.6683 -3.0872
 5161TIP3   OH236897   5.863   0.679   4.171  0.2175 -0.3155  0.1822
 5161TIP3    H136898   5.887   0.593   4.204 -0.3823 -1.3798 -1.9365
 5161TIP3    H236899   5.941   0.733   4.183  1.0659 -1.5426  0.3078
 5162TIP3   OH236900   3.269   6.425  10.540 -0.3752  0.3699 -0.3521
 5162TIP3    H136901   3.340   6.477  10.578 -0.8738  1.5645 -1.0159
 5162TIP3    H236902   3.193   6.482  10.542 -0.9275 -0.3133 -1.1606
 5163TIP3   OH236903   5.157   1.742  14.916 -0.0300 -0.2802  0.2294
 5163TIP3    H136904   5.090   1.673  14.921  0.6867 -0.9303  1.5614
 5163TIP3    H236905   5.207   1.721  14.838  0.6064 -1.7313  0.9716
 5164TIP3   OH236906   6.964   5.555  13.290  0.1548 -0.8934 -0.2977
 5164TIP3    H136907   6.950   5.568  13.196  0.0325 -1.1625 -0.3191
 5164TIP3    H236908   7.023   5.479  13.294 -0.4206 -1.3362 -0.1374
 5165TIP3   OH236909   0.835   2.256  13.167 -0.0995 -0.2829  0.0150
 5165TIP3    H136910   0.925   2.283  13.150 -0.5373  0.8722 -0.5641
 5165TIP3    H236911   0.798   2.327  13.220 -0.6260 -0.8289  0.3970
 5166TIP3   OH236912   6.074   3.998  12.966 -0.1162 -0.2977 -0.0808
 5166TIP3    H136913   6.004   4.052  13.003  1.1657  0.8622  0.7392
 5166TIP3    H236914   6.050   3.988  12.873 -1.5747 -0.3194  0.2691
 5167TIP3   OH236915   1.162   1.275  15.252  0.3312  0.3216 -0.4550
 5167TIP3    H136916   1.176   1.215  15.179 -0.0178 -0.5513  0.1779
 5167TIP3    H236917   1.248   1.286  15.292  0.4482  0.4745 -0.7498
 5168TIP3   OH236918   0.744   3.619  13.348  0.0307  0.5463  0.0760
 5168TIP3    H136919   0.765   3.710  13.328  1.2043  0.2483 -0.1236
 5168TIP3    H236920   0.817   3.590  13.403 -0.4111 -0.2304  0.2577
 5169TIP3   OH236921   0.808   5.621   9.420 -0.2785  0.4476  0.0965
 5169TIP3    H136922   0.719   5.617   9.455 -0.4982 -0.6091 -0.5543
 5169TIP3    H236923   0.848   5.539   9.448  0.8242  1.3275  1.2104
 5170TIP3   OH236924   5.745   4.260  11.700  0.2492 -0.0026  0.0626
 5170TIP3    H136925   5.785   4.265  11.787  1.5170 -0.9961 -0.4347
 5170TIP3    H236926   5.816   4.276  11.639 -0.6637  0.8674 -0.8098
 5171TIP3   OH236927   4.360   4.428  11.849  0.8356  0.6721  0.1665
 5171TIP3    H136928   4.344   4.358  11.786 -3.3687 -1.2833  2.9154
 5171TIP3    H236929   4.302   4.499  11.822 -1.2085 -0.2851  1.7362
 5172TIP3   OH236930   7.024   4.670  10.549 -0.3338  0.1604  0.4357
 5172TIP3    H136931   6.938   4.703  10.573  1.0856  3.1821  2.0286
 5172TIP3    H236932   7.025   4.579  10.578 -2.9477  0.0558  0.3555
 5173TIP3   OH236933   6.539   3.424   4.820 -0.3543  0.0659  0.5373
 5173TIP3    H136934   6.537   3.420   4.915  1.3340  0.6399  0.6332
 5173TIP3    H236935   6.472   3.489   4.797 -0.0175  0.7325  1.4031
 5174TIP3   OH236936   3.576   1.857   0.877 -0.1171  0.3976 -0.1783
 5174TIP3    H136937   3.533   1.772   0.884  0.2478 -0.0339 -2.3657
 5174TIP3    H236938   3.506   1.921   0.894 -0.6791 -0.3344  0.2838
 5175TIP3   OH236939   4.223   6.487  14.073 -0.2077  0.3465  1.2732
 5175TIP3    H136940   4.150   6.547  14.054 -1.0123 -0.7179  0.8720
 5175TIP3    H236941   4.260   6.520  14.154 -1.3583  0.7331  1.6710
 5176TIP3   OH236942   2.837   5.502  10.187 -1.1047 -0.0098 -0.1732
 5176TIP3    H136943   2.848   5.420  10.235  1.3582 -0.7465 -1.7759
 5176TIP3    H236944   2.857   5.479  10.096 -3.3237  1.7808 -1.2126
 5177TIP3   OH236945   1.111   6.738  10.358 -0.5613  0.5357  0.4036
 5177TIP3    H136946   1.063   6.782  10.288  0.0877 -0.1758 -0.5098
 5177TIP3    H236947   1.101   6.645  10.340  0.0736  0.3523  0.9314
 5178TIP3   OH236948   0.349   2.041  11.932 -0.4005 -0.1187 -0.2310
 5178TIP3    H136949   0.311   1.973  11.876 -1.3614 -0.1346  0.4250
 5178TIP3    H236950   0.442   2.017  11.938 -1.0144 -2.4796  1.4724
 5179TIP3   OH236951   1.203   5.209  10.408  0.2794 -0.4017  0.3335
 5179TIP3    H136952   1.114   5.173  10.397 -0.1686  0.5731  0.6916
 5179TIP3    H236953   1.198   5.261  10.488  0.9324  0.3940 -0.1339
 5180TIP3   OH236954   6.217   6.404  12.301 -0.2350 -0.3041 -0.1399
 5180TIP3    H136955   6.181   6.430  12.386 -0.1280 -1.3355  0.2425
 5180TIP3    H236956   6.302   6.365  12.322  0.8354  1.4969 -0.9675
 5181TIP3   OH236957   0.051   1.875   9.427 -1.0547 -0.2097  0.5858
 5181TIP3    H136958   0.113   1.808   9.398 -0.5798  0.3851  0.2073
 5181TIP3    H236959   0.026   1.847   9.515  0.1835 -0.1643  0.9648
 5182TIP3   OH236960   6.863   4.425  13.467  0.0554  0.4055 -0.1130
 5182TIP3    H136961   6.828   4.349  13.513  1.9764 -0.0132  0.7464
 5182TIP3    H236962   6.865   4.495  13.533 -0.6256  0.8985 -0.5925
 5183TIP3   OH236963   4.303   4.158  14.980 -0.6308 -0.2732  1.1172
 5183TIP3    H136964   4.358   4.194  14.910 -0.5187  0.7442  1.6948
 5183TIP3    H236965   4.213   4.174  14.950 -0.5854  0.8382  1.5034
 5184TIP3   OH236966   4.347   6.733  12.429  0.4558 -0.0650 -0.0848
 5184TIP3    H136967   4.421   6.766  12.481 -0.0848 -0.8065  1.2076
 5184TIP3    H236968   4.385   6.661  12.378  0.3442 -1.6037  1.8542
 5185TIP3   OH236969   0.840   6.623  11.369 -0.2133  0.5624  0.5819
 5185TIP3    H136970   0.831   6.587  11.457  0.9086 -0.8896  0.1431
 5185TIP3    H236971   0.814   6.551  11.311 -0.7953  1.4510 -0.3008
 5186TIP3   OH236972   1.465   5.069  13.834 -0.2808  1.1226  0.3421
 5186TIP3    H136973   1.427   5.106  13.754 -0.9123 -0.3383 -0.0631
 5186TIP3    H236974   1.542   5.022  13.804 -1.3495 -0.7179  0.3209
 5187TIP3   OH236975   2.589   1.214  11.331  0.4357 -0.3041 -0.5861
 5187TIP3    H136976   2.608   1.141  11.272 -1.3982 -0.9555 -0.4375
 5187TIP3    H236977   2.637   1.194  11.411  1.5959 -0.2728 -1.2580
 5188TIP3   OH236978   1.519   2.360  11.694 -0.3301 -0.0133  0.3524
 5188TIP3    H136979   1.555   2.332  11.610 -1.3270 -0.0458 -0.0789
 5188TIP3    H236980   1.557   2.447  11.708 -1.2700  0.6360 -0.8625
 5189TIP3   OH236981   5.136   2.598  13.657 -0.1225 -0.6984 -0.4382
 5189TIP3    H136982   5.118   2.519  13.606  0.0436 -0.2697 -1.1883
 5189TIP3    H236983   5.078   2.664  13.620 -0.2441 -0.4612  0.1691
 5190TIP3   OH236984   6.592   5.361  13.614 -0.2298  0.0886  0.1442
 5190TIP3    H136985   6.608   5.306  13.538  0.8274 -0.3604  0.6755
 5190TIP3    H236986   6.670   5.416  13.622 -0.2622  0.0359  0.9656
 5191TIP3   OH236987   5.184   5.929   9.301  0.2484  0.3099  0.6169
 5191TIP3    H136988   5.089   5.924   9.290  0.1997  1.4740  0.3237
 5191TIP3    H236989   5.197   5.939   9.395  0.0367  0.8202  0.5931
 5192TIP3   OH236990   5.851   2.332   0.561 -0.1683  0.0579 -0.3711
 5192TIP3    H136991   5.945   2.328   0.578 -0.4022 -1.7123  0.7527
 5192TIP3    H236992   5.837   2.270   0.490 -0.7186 -1.1419  0.7587
 5193TIP3   OH236993   0.232   2.346  10.233 -0.0467 -0.3117  0.0813
 5193TIP3    H136994   0.230   2.251  10.220 -3.5975 -0.2884 -0.3876
 5193TIP3    H236995   0.296   2.377  10.168  1.0319 -2.3102  0.0964
 5194TIP3   OH236996   3.212   4.014   1.869  0.1436 -0.0155 -0.3128
 5194TIP3    H136997   3.152   4.061   1.811  1.1090  0.4522 -0.9567
 5194TIP3    H236998   3.280   3.980   1.810  0.9229  0.1151  0.5000
 5195TIP3   OH236999   2.997   6.069   1.074  0.1677 -0.7428  0.2042
 5195TIP3    H137000   2.970   6.043   1.162 -1.5536 -0.7287 -0.2844
 5195TIP3    H237001   3.092   6.074   1.079  0.0669 -0.0255  2.2586
 5196TIP3   OH237002   1.327   2.947   2.990 -0.3193  0.3615 -0.0136
 5196TIP3    H137003   1.348   2.889   3.064 -0.9471  0.4094  0.2146
 5196TIP3    H237004   1.250   2.907   2.950  0.6646 -0.2714 -1.3295
 5197TIP3   OH237005   6.246   5.905   1.183  0.4315  0.1225 -0.0708
 5197TIP3    H137006   6.310   5.925   1.115  0.6477  0.5352  0.2492
 5197TIP3    H237007   6.165   5.946   1.153  0.5936  0.5336  0.0443
 5198TIP3   OH237008   0.756   6.239  11.803 -0.0720  0.0252 -0.5026
 5198TIP3    H137009   0.835   6.292  11.816 -0.7284  0.7347  0.7039
 5198TIP3    H237010   0.753   6.223  11.709  0.5324  1.5183 -0.7985
 5199TIP3   OH237011   6.846   5.616   4.117 -0.5081  0.3938  0.0431
 5199TIP3    H137012   6.776   5.553   4.104  0.2067 -0.3976 -0.0778
 5199TIP3    H237013   6.926   5.568   4.095  0.0644  1.3029  0.0788
 5200TIP3   OH237014   6.535   2.811  13.048  0.3393 -0.0452  0.3377
 5200TIP3    H137015   6.565   2.901  13.055 -0.8773  0.3654  0.5099
 5200TIP3    H237016   6.592   2.762  13.108  2.9698  0.0389 -1.8701
 5201TIP3   OH237017   0.591   2.097  12.552 -0.0846 -0.5303 -0.3180
 5201TIP3    H137018   0.560   2.133  12.635 -2.5404  3.1366 -2.5286
 5201TIP3    H237019   0.527   2.029  12.530 -0.3859 -0.3616  0.0240
 5202TIP3   OH237020   0.755   0.326  11.510 -0.4295  0.0544  0.1403
 5202TIP3    H137021   0.675   0.347  11.557  0.2224 -0.3162  1.4617
 5202TIP3    H237022   0.794   0.253  11.559  0.0543 -0.6589 -1.2423
 5203TIP3   OH237023   1.982   6.855   0.685  0.0758  0.2254  0.3525
 5203TIP3    H137024   2.037   6.846   0.763 -1.4357 -1.0377  1.3367
 5203TIP3    H237025   1.947   6.944   0.691  0.5187  0.3833  0.7136
 5204TIP3   OH237026   3.822   1.734  11.968 -0.1786 -0.4163 -0.0827
 5204TIP3    H137027   3.845   1.827  11.958 -2.7950  0.3849  0.7391
 5204TIP3    H237028   3.758   1.718  11.899 -0.9139 -1.1603  0.7532
 5205TIP3   OH237029   5.680   3.447  11.034 -0.1953 -0.4190 -0.4591
 5205TIP3    H137030   5.724   3.467  11.117  2.0780  1.2638 -1.9356
 5205TIP3    H237031   5.750   3.416  10.977 -1.1336  0.9862 -2.5217
 5206TIP3   OH237032   0.246   2.150  10.926  0.1787  0.4368  0.3237
 5206TIP3    H137033   0.226   2.238  10.958  1.6817  1.1717 -0.6067
 5206TIP3    H237034   0.175   2.128  10.866 -0.0117  1.1977  0.2676
 5207TIP3   OH237035   5.509   3.628   2.658 -0.2226  0.2590  0.4547
 5207TIP3    H137036   5.449   3.579   2.714  0.3305  0.9305  1.6723
 5207TIP3    H237037   5.480   3.719   2.667  0.8767  0.5655  0.9212
 5208TIP3   OH237038   1.151   4.745  11.798  0.1305 -0.0492  0.0046
 5208TIP3    H137039   1.079   4.764  11.738  1.1358  2.0410 -0.6229
 5208TIP3    H237040   1.110   4.742  11.884 -0.8447  0.2018 -0.4295
 5209TIP3   OH237041   3.883   1.024  10.809 -0.8727 -0.1001 -0.0885
 5209TIP3    H137042   3.951   0.957  10.811 -0.5688  0.1746 -0.9165
 5209TIP3    H237043   3.816   0.991  10.869 -0.6848 -1.0960 -0.4027
 5210TIP3   OH237044   4.280   2.516   2.736  0.4325  0.1208  0.4793
 5210TIP3    H137045   4.301   2.422   2.736 -0.8281 -0.2039 -1.1468
 5210TIP3    H237046   4.305   2.546   2.649  0.4451  1.2213  0.8525
 5211TIP3   OH237047   4.108   1.236  12.822 -0.1773 -0.2744  0.1276
 5211TIP3    H137048   4.058   1.257  12.900  1.4115 -1.8958  1.7111
 5211TIP3    H237049   4.119   1.141  12.826  2.5355 -0.0696 -0.3627
 5212TIP3   OH237050   4.197   2.540  12.584 -0.1237 -0.8171  1.0970
 5212TIP3    H137051   4.255   2.464  12.586  0.8432 -0.2670 -1.4017
 5212TIP3    H237052   4.230   2.597  12.653  0.4438 -1.7706  1.6373
 5213TIP3   OH237053   3.866   5.570  14.939  0.7370  0.6692 -0.1073
 5213TIP3    H137054   3.773   5.570  14.916  0.4961  0.1230  0.8043
 5213TIP3    H237055   3.874   5.635  15.008  0.4638 -1.2197  1.8169
 5214TIP3   OH237056   3.707   1.407  10.401  0.2280  0.1457 -0.7472
 5214TIP3    H137057   3.688   1.500  10.386  1.2453  0.6368  0.8532
 5214TIP3    H237058   3.621   1.365  10.395 -0.1410  1.0203 -2.3921
 5215TIP3   OH237059   5.176   2.604  15.016 -0.5786 -0.2631 -0.1966
 5215TIP3    H137060   5.122   2.674  15.054  0.5321  0.7274 -0.3830
 5215TIP3    H237061   5.247   2.592  15.080  0.7763  0.7449 -1.4531
 5216TIP3   OH237062   2.109   3.374  13.393  0.1878  0.3147  0.6318
 5216TIP3    H137063   2.068   3.461  13.401 -1.6249 -0.5805  1.6975
 5216TIP3    H237064   2.150   3.359  13.478  2.8686  1.1559 -0.3829
 5217TIP3   OH237065   4.446   5.859   2.501 -0.1233  0.1705  0.5475
 5217TIP3    H137066   4.375   5.797   2.514  0.7040 -1.1500 -0.9160
 5217TIP3    H237067   4.437   5.887   2.409 -0.2948  2.0032  1.0808
 5218TIP3   OH237068   2.319   6.166   0.506  0.6927  0.4221 -0.4117
 5218TIP3    H137069   2.269   6.174   0.425  1.0578  0.9327 -0.5902
 5218TIP3    H237070   2.393   6.226   0.495  0.1064  1.4016  0.8006
 5219TIP3   OH237071   6.375   0.121  11.939 -0.0820  0.4003  0.0907
 5219TIP3    H137072   6.285   0.102  11.967 -0.3474  0.9319 -0.3856
 5219TIP3    H237073   6.413   0.170  12.011  0.2645 -0.9548  0.8709
 5220TIP3   OH237074   2.731   5.988  14.918 -0.3566 -0.4523 -0.0792
 5220TIP3    H137075   2.770   6.021  14.837 -0.2777  2.2933  0.9813
 5220TIP3    H237076   2.806   5.961  14.971 -0.2375 -0.1495 -0.0874
 5221TIP3   OH237077   2.540   0.427  12.455  0.3900 -0.5672 -0.0512
 5221TIP3    H137078   2.566   0.356  12.398  0.7360 -1.1418  0.8023
 5221TIP3    H237079   2.582   0.408  12.539 -0.1020  0.2474  0.4013
 5222TIP3   OH237080   1.336   6.151   9.428  0.1499 -0.0756  0.0686
 5222TIP3    H137081   1.325   6.080   9.364  0.4387  0.2360 -0.3270
 5222TIP3    H237082   1.425   6.184   9.413  0.4345 -0.3684  1.0085
 5223TIP3   OH237083   4.783   3.001   1.586  0.2491  0.0839  0.1364
 5223TIP3    H137084   4.728   3.066   1.542  0.5749  0.8205  0.7851
 5223TIP3    H237085   4.729   2.922   1.590  0.3727 -0.1726 -1.9942
 5224TIP3   OH237086   5.133   5.480  10.870 -0.0606 -0.5923 -0.2596
 5224TIP3    H137087   5.102   5.436  10.791  1.4151 -0.6259 -0.8430
 5224TIP3    H237088   5.109   5.572  10.858  1.1442 -0.3791 -1.3041
 5225TIP3   OH237089   4.770   3.298  14.820  0.5797 -0.1185  0.3211
 5225TIP3    H137090   4.743   3.281  14.729 -0.3969  0.3330  0.5163
 5225TIP3    H237091   4.859   3.330  14.812  0.4880 -0.0362 -0.4896
 5226TIP3   OH237092   1.140   2.685  11.635 -0.4230 -0.1635  0.1417
 5226TIP3    H137093   1.191   2.681  11.716  0.1824 -2.7246 -0.2687
 5226TIP3    H237094   1.054   2.652  11.659 -0.7664  0.6939  0.0890
 5227TIP3   OH237095   6.126   5.286  10.538 -0.0176  0.0654  0.0428
 5227TIP3    H137096   6.187   5.216  10.512  1.0880  0.5101  1.3538
 5227TIP3    H237097   6.125   5.346  10.463  0.6667 -0.2702 -0.2428
 5228TIP3   OH237098   0.354   5.264  10.397  0.3296  0.5174 -0.3091
 5228TIP3    H137099   0.305   5.188  10.366  1.4579 -0.1560 -0.5071
 5228TIP3    H237100   0.352   5.256  10.492 -0.5040  0.8628 -0.2963
 5229TIP3   OH237101   5.209   2.274  10.099  0.0232 -0.0379 -0.4268
 5229TIP3    H137102   5.227   2.273  10.005  0.0555 -2.3293 -0.4746
 5229TIP3    H237103   5.273   2.334  10.136 -1.5352  2.8413 -2.0793
 5230TIP3   OH237104   0.796   1.785   9.781 -0.0926 -0.0057  0.0291
 5230TIP3    H137105   0.727   1.841   9.744 -0.4172 -0.6502 -0.3515
 5230TIP3    H237106   0.818   1.827   9.864 -1.0702  0.1208  0.2380
 5231TIP3   OH237107   5.241   2.334   9.831  0.2149  0.5362  0.4933
 5231TIP3    H137108   5.314   2.373   9.784 -0.5696  1.2355 -0.1857
 5231TIP3    H237109   5.188   2.293   9.763  0.4302 -0.7667  1.0747
 5232TIP3   OH237110   1.645   0.987   0.853 -0.1133 -0.0159  0.2724
 5232TIP3    H137111   1.667   0.894   0.859 -1.5710 -0.3679  0.5105
 5232TIP3    H237112   1.659   1.021   0.941 -0.9913 -0.3506  0.5465
 5233TIP3   OH237113   5.681   6.122  11.571  0.2168 -0.1360  0.4075
 5233TIP3    H137114   5.674   6.051  11.634  1.1400 -0.0208  0.6587
 5233TIP3    H237115   5.626   6.192  11.607 -0.0281 -0.4240  0.5893
 5234TIP3   OH237116   2.634   4.456   9.896 -0.0440 -0.2877  0.2897
 5234TIP3    H137117   2.632   4.398   9.820 -1.4650 -0.7899  0.6744
 5234TIP3    H237118   2.634   4.398   9.971 -1.0555  0.1733  0.6755
 5235TIP3   OH237119   4.729   5.001   3.197 -0.5607 -0.1491  0.2177
 5235TIP3    H137120   4.801   4.972   3.141 -0.8306  1.1550 -0.8339
 5235TIP3    H237121   4.656   4.944   3.174 -0.1116 -0.9850  0.7629
 5236TIP3   OH237122   3.108   4.707  14.147 -0.1769  0.0294 -0.4639
 5236TIP3    H137123   3.084   4.797  14.170  0.9545  0.0658  0.6490
 5236TIP3    H237124   3.175   4.718  14.080  0.5091  0.0379  0.2184
 5237TIP3   OH237125   1.624   3.942  15.190  0.5779 -0.4970 -0.2189
 5237TIP3    H137126   1.696   3.933  15.127  1.9940  0.7858  1.1004
 5237TIP3    H237127   1.587   4.029  15.172  0.7580 -0.2732  0.4545
 5238TIP3   OH237128   3.037   6.768  14.392 -0.2012  0.5676  0.0403
 5238TIP3    H137129   3.087   6.729  14.320 -1.0793  2.8778 -1.9517
 5238TIP3    H237130   3.063   6.860  14.393 -2.7062  1.3618  0.3801
 5239TIP3   OH237131   2.459   4.003   9.519  0.2384  0.1078 -0.4946
 5239TIP3    H137132   2.365   3.987   9.519  0.1140  0.7967 -1.2142
 5239TIP3    H237133   2.498   3.917   9.537 -0.5169 -0.1774 -0.1657
 5240TIP3   OH237134   0.709   2.537  14.275  0.6298  0.8481 -0.3441
 5240TIP3    H137135   0.704   2.601  14.346 -1.2375 -1.3708  1.7147
 5240TIP3    H237136   0.789   2.488  14.292 -0.1276 -0.0884  0.7181
 5241TIP3   OH237137   6.360   3.130  10.626  0.2411  0.2552 -0.0855
 5241TIP3    H137138   6.423   3.058  10.628 -0.1572 -0.1051 -0.3273
 5241TIP3    H237139   6.393   3.189  10.558  0.8525  0.5670  0.4796
 5242TIP3   OH237140   7.029   2.136  11.518  0.8153 -0.0937  0.0129
 5242TIP3    H137141   7.117   2.139  11.481  0.8742  0.2654  0.1754
 5242TIP3    H237142   6.978   2.197  11.465 -0.1160 -2.4745 -2.0227
 5243TIP3   OH237143   6.323   4.979  15.022  0.3745 -0.1526 -0.0632
 5243TIP3    H137144   6.305   5.072  15.035  0.4270 -0.1580  0.0546
 5243TIP3    H237145   6.389   4.977  14.953 -1.6201 -0.2251 -2.0883
 5244TIP3   OH237146   5.706   1.287  14.112 -0.0556  0.0361  0.6452
 5244TIP3    H137147   5.764   1.341  14.058 -1.4755  1.1534  0.1773
 5244TIP3    H237148   5.761   1.214  14.141  0.9072 -0.3101 -1.8393
 5245TIP3   OH237149   2.455   4.958   4.972 -0.0537 -0.3049 -0.3616
 5245TIP3    H137150   2.444   4.944   5.066 -1.8479  2.3230 -0.0829
 5245TIP3    H237151   2.369   4.985   4.942  0.8969  0.5729 -2.4563
 5246TIP3   OH237152   6.049   2.007   3.975  0.5197 -0.4601 -0.3024
 5246TIP3    H137153   6.078   2.083   3.923  1.1530 -1.5427 -1.5847
 5246TIP3    H237154   5.994   1.957   3.914  0.1614 -1.0675  0.5137
 5247TIP3   OH237155   3.064   1.792  12.488  0.3204 -0.1154  0.6031
 5247TIP3    H137156   3.028   1.879  12.469 -0.3524 -0.3078  0.9808
 5247TIP3    H237157   3.078   1.753  12.402  0.9337  0.4839  0.4169
 5248TIP3   OH237158   6.194   4.667  13.562 -0.6877  0.0778 -0.5535
 5248TIP3    H137159   6.281   4.634  13.584 -1.5625 -1.4868  0.8260
 5248TIP3    H237160   6.201   4.762  13.571  0.1531 -0.1618  2.7367
 5249TIP3   OH237161   6.096   3.129  10.949  0.8066  0.0566 -0.0821
 5249TIP3    H137162   6.161   3.060  10.941 -0.5449 -1.2952  0.1785
 5249TIP3    H237163   6.123   3.195  10.885  2.6275 -0.2812  0.2980
 5250TIP3   OH237164   0.152   1.816  12.987  0.2031  0.7825 -0.0902
 5250TIP3    H137165   0.158   1.874  13.063 -0.7544 -0.9685  1.3967
 5250TIP3    H237166   0.240   1.818  12.949  1.5015 -0.2749  2.6104
 5251TIP3   OH237167   2.604   0.003  11.378 -0.3065  0.4518 -0.5742
 5251TIP3    H137168   2.601   0.097  11.394 -1.4391  0.3299  0.0774
 5251TIP3    H237169   2.612  -0.036  11.465 -0.7378 -0.0774 -0.7645
 5252TIP3   OH237170   0.181   3.929  14.624 -0.0132  0.3219 -0.5994
 5252TIP3    H137171   0.188   4.025  14.630 -2.2766  0.4952  0.2623
 5252TIP3    H237172   0.260   3.897  14.667  0.2659  1.8212  0.0817
 5253TIP3   OH237173   2.292   2.945  14.507  0.8771 -0.7455  0.8105
 5253TIP3    H137174   2.384   2.958  14.531  0.8669 -0.0455  0.4838
 5253TIP3    H237175   2.246   3.018  14.547  0.3210 -1.5180  1.6501
 5254TIP3   OH237176   6.308   5.048   9.465 -0.1845 -0.5087 -0.1988
 5254TIP3    H137177   6.395   5.087   9.472  0.3386 -1.4415 -1.2071
 5254TIP3    H237178   6.264   5.074   9.546  0.4452  1.3473 -0.3980
 5255TIP3   OH237179   3.243   6.156  15.211  0.0112  0.2035 -0.2623
 5255TIP3    H137180   3.259   6.084  15.272  2.1791 -0.4204 -1.4213
 5255TIP3    H237181   3.299   6.135  15.136 -0.9075  2.0435 -1.5278
 5256TIP3   OH237182   0.578   2.502  12.695 -0.5495 -0.2380  0.0240
 5256TIP3    H137183   0.492   2.522  12.658 -0.3655 -0.7521 -0.7215
 5256TIP3    H237184   0.624   2.455  12.625  0.1734 -0.3765  0.5714
 5257TIP3   OH237185   4.952   4.177  11.621  0.0779  0.1274 -0.2420
 5257TIP3    H137186   4.865   4.209  11.645 -0.4686 -1.5251  0.1513
 5257TIP3    H237187   5.008   4.199  11.695 -0.8340 -1.8953  1.1394
 5258TIP3   OH237188   3.450   4.211  10.282  0.1549  0.1657  0.0638
 5258TIP3    H137189   3.524   4.172  10.235  2.4934  0.3021  3.2961
 5258TIP3    H237190   3.410   4.139  10.330  0.3100  0.6238  0.9027
 5259TIP3   OH237191   0.172   4.867  12.913  0.3501 -0.3247 -0.1782
 5259TIP3    H137192   0.230   4.942  12.928  0.5368 -0.9398  2.6721
 5259TIP3    H237193   0.088   4.907  12.888  1.2912  0.6535 -1.9697
 5260TIP3   OH237194   3.048   4.854   2.607  0.6293 -0.5504 -0.6023
 5260TIP3    H137195   3.128   4.824   2.564  2.4595  2.0225  0.7471
 5260TIP3    H237196   3.036   4.944   2.577 -1.0411 -0.4493  0.2300
 5261TIP3   OH237197   6.216   0.358  15.309  0.3558  0.5688  0.5865
 5261TIP3    H137198   6.155   0.344  15.237  1.1180 -1.0563  0.2030
 5261TIP3    H237199   6.191   0.442  15.346 -1.5802  0.3317 -0.0753
 5262TIP3   OH237200   6.560   1.744  14.971 -0.1355 -0.1442 -0.5089
 5262TIP3    H137201   6.473   1.776  14.945 -0.8315 -0.9625  0.7331
 5262TIP3    H237202   6.567   1.658  14.928 -0.9440 -1.1288  1.2528
 5263TIP3   OH237203   4.186   1.547  13.321 -0.3296  0.0705  0.1414
 5263TIP3    H137204   4.176   1.641  13.334  1.2420  0.0902  1.5795
 5263TIP3    H237205   4.278   1.536  13.300 -0.1940 -1.2414  1.2682
 5264TIP3   OH237206   0.399   2.191   0.028 -0.0719  0.0177  0.5665
 5264TIP3    H137207   0.351   2.272   0.041 -0.2438  0.2601 -1.2874
 5264TIP3    H237208   0.332   2.126   0.009  0.2473  0.4676 -2.5636
 5265TIP3   OH237209   6.736   0.103  11.079  0.0428  0.0429 -0.2015
 5265TIP3    H137210   6.754   0.032  11.140  1.2935 -1.0866 -1.7911
 5265TIP3    H237211   6.702   0.059  11.001  0.1892  1.2469 -0.9725
 5266TIP3   OH237212   0.059   7.140  13.240  0.3363  0.0509  0.3560
 5266TIP3    H137213  -0.000   7.066  13.244 -0.5409  0.7305  0.3292
 5266TIP3    H237214   0.147   7.102  13.241 -0.1013 -1.0482 -0.8392
 5267TIP3   OH237215   5.111   5.204   3.785 -0.0524 -0.4213 -0.2310
 5267TIP3    H137216   5.027   5.164   3.809 -0.5227  0.4102 -0.4578
 5267TIP3    H237217   5.167   5.130   3.762 -0.1526 -1.1358  1.6167
 5268TIP3   OH237218   5.824   1.079   9.477 -0.1970 -0.0823  0.1793
 5268TIP3    H137219   5.761   1.148   9.456  0.0982 -0.1633 -1.0290
 5268TIP3    H237220   5.789   1.001   9.433  0.9964 -0.0114 -0.9269
 5269TIP3   OH237221   2.191   4.489  14.856 -0.0599 -0.0309  0.4926
 5269TIP3    H137222   2.227   4.576  14.837  1.0788 -0.9096 -1.9232
 5269TIP3    H237223   2.223   4.435  14.784 -2.4611 -1.9987  0.7788
 5270TIP3   OH237224   1.762   6.625  13.764  0.4045 -0.1163 -0.0270
 5270TIP3    H137225   1.760   6.566  13.688  0.7535 -0.4312  0.2000
 5270TIP3    H237226   1.799   6.706  13.730  0.5172 -0.2405 -0.2049
 5271TIP3   OH237227   4.297   6.347  11.438  0.2669 -0.0009 -0.7279
 5271TIP3    H137228   4.316   6.334  11.345  0.9199  2.6041 -1.0430
 5271TIP3    H237229   4.221   6.406  11.439  0.4521  0.2493  0.3685
 5272TIP3   OH237230   1.017   6.083  13.954 -0.4557  0.4643 -0.2121
 5272TIP3    H137231   0.952   6.096  13.886 -0.9928  0.2369  0.2500
 5272TIP3    H237232   1.100   6.075  13.907 -0.8652 -0.0793 -0.8588
 5273TIP3   OH237233   4.288   1.841  15.322 -0.7363 -0.2463 -0.2687
 5273TIP3    H137234   4.277   1.777  15.393 -1.8463 -1.1817 -1.2307
 5273TIP3    H237235   4.242   1.919  15.353 -0.6173 -0.4050  0.3225
 5274TIP3   OH237236   2.699   5.275  11.639  0.6377 -0.2598  0.0722
 5274TIP3    H137237   2.763   5.251  11.707  1.0268  0.8194  0.1069
 5274TIP3    H237238   2.716   5.368  11.622  2.1683 -1.0072 -3.2311
 5275TIP3   OH237239   1.166   1.035  12.907 -0.1779 -0.6171  0.1534
 5275TIP3    H137240   1.094   1.009  12.964 -0.6032  0.7161  0.2636
 5275TIP3    H237241   1.213   1.102  12.957  0.8846 -1.1441 -0.0988
 5276TIP3   OH237242   4.241   0.573  12.586  0.0880  0.7824  0.0966
 5276TIP3    H137243   4.285   0.557  12.669  1.8062 -0.3084 -0.9653
 5276TIP3    H237244   4.302   0.542  12.519 -0.8325  2.4739 -1.6436
 5277TIP3   OH237245   3.518   2.495  15.001 -0.2320 -0.1144  0.4655
 5277TIP3    H137246   3.529   2.508  15.095  0.0118  1.4800  0.2434
 5277TIP3    H237247   3.599   2.454  14.972 -0.3023 -0.5984  0.9335
 5278TIP3   OH237248   3.866   5.312  12.301  0.1265 -0.2184  0.7293
 5278TIP3    H137249   3.900   5.271  12.221 -1.9984 -0.1505 -0.2938
 5278TIP3    H237250   3.846   5.238  12.359 -2.1315 -0.6528 -0.4630
 5279TIP3   OH237251   4.315   3.400  11.161 -0.1704  0.0167  0.5272
 5279TIP3    H137252   4.333   3.308  11.179  2.3725 -0.2204 -2.4038
 5279TIP3    H237253   4.384   3.447  11.208 -0.2865  0.2747  0.4398
 5280TIP3   OH237254   4.930   5.361  12.468 -0.2186  0.6192 -0.0557
 5280TIP3    H137255   4.842   5.396  12.464 -2.3153 -4.0043 -1.6776
 5280TIP3    H237256   4.950   5.357  12.562 -2.0119  1.1545  0.3878
 5281TIP3   OH237257   2.239   3.083  12.090  0.3607  0.1514  0.4522
 5281TIP3    H137258   2.238   2.990  12.069 -0.5168  0.3908 -0.6457
 5281TIP3    H237259   2.172   3.093  12.158 -0.1981  0.1223 -0.0916
 5282TIP3   OH237260   3.085   2.527  13.486 -0.0853  0.2219 -0.1695
 5282TIP3    H137261   3.173   2.497  13.508 -0.1587 -1.3819 -1.8690
 5282TIP3    H237262   3.096   2.576  13.404 -0.6297  1.0442  0.2319
 5283TIP3   OH237263   2.607   3.500  11.740  0.0058  0.5117 -0.3689
 5283TIP3    H137264   2.665   3.474  11.812  0.0176  1.2286 -0.1038
 5283TIP3    H237265   2.574   3.418  11.704  1.1956  0.0882 -0.5323
 5284TIP3   OH237266   1.159   6.303   0.205  0.0591 -0.3972  0.1279
 5284TIP3    H137267   1.211   6.306   0.286 -0.7782  1.3751  0.6370
 5284TIP3    H237268   1.083   6.358   0.223  0.4400  1.0387 -2.2734
 5285TIP3   OH237269   4.941   3.781  13.756 -0.2472 -0.1138 -0.0564
 5285TIP3    H137270   5.033   3.759  13.771 -0.0078  2.2165  2.8640
 5285TIP3    H237271   4.896   3.749  13.835 -1.8277 -0.4411 -1.0471
 5286TIP3   OH237272   6.108   1.150  11.757 -0.4639 -0.2551  0.3560
 5286TIP3    H137273   6.178   1.097  11.794 -0.9203 -1.4825 -0.4539
 5286TIP3    H237274   6.149   1.233  11.734  0.9749 -1.3112 -1.0504
 5287TIP3   OH237275   6.331   6.652  10.911  0.3509  0.8647 -0.3328
 5287TIP3    H137276   6.333   6.674  10.818 -2.0782 -0.5388 -0.8131
 5287TIP3    H237277   6.299   6.731  10.954 -0.4047  0.9136 -0.9655
 5288TIP3   OH237278   6.038   0.993  11.544  0.1930 -0.6117 -0.1548
 5288TIP3    H137279   6.077   0.906  11.545 -1.9304 -1.6719  2.3564
 5288TIP3    H237280   6.086   1.042  11.610  1.4826  0.2547 -1.6667
 5289TIP3   OH237281   2.134   2.883  10.061 -0.4674  0.1963 -0.2511
 5289TIP3    H137282   2.084   2.823  10.117  0.3212 -1.2027 -0.9787
 5289TIP3    H237283   2.225   2.859  10.075 -0.0998  1.5035 -0.2921
 5290TIP3   OH237284   1.776   3.820  12.843 -0.9582 -0.0339  0.0489
 5290TIP3    H137285   1.786   3.725  12.836 -1.1295  0.0294 -1.1748
 5290TIP3    H237286   1.849   3.847  12.898  0.0187 -0.7026 -0.8668
 5291TIP3   OH237287   2.381   4.472   1.940  0.0581 -0.1372 -0.5301
 5291TIP3    H137288   2.352   4.384   1.963 -1.2110  0.7552  1.5295
 5291TIP3    H237289   2.301   4.516   1.910  0.1780  0.9853  0.7328
 5292TIP3   OH237290   6.873   3.140  11.073  0.1065 -0.1393  0.7220
 5292TIP3    H137291   6.854   3.058  11.120 -1.7029  0.5427  1.2482
 5292TIP3    H237292   6.953   3.173  11.114  0.4361 -1.2411  1.0125
 5293TIP3   OH237293   1.527   6.495  13.363 -0.2046 -0.3554  0.0696
 5293TIP3    H137294   1.558   6.546  13.288 -1.4663 -0.1900 -0.3507
 5293TIP3    H237295   1.534   6.404  13.335  2.0950 -0.4834  0.8367
 5294TIP3   OH237296   6.202   1.045  10.194 -0.1339  0.2447 -0.0322
 5294TIP3    H137297   6.109   1.057  10.176 -0.2869  0.6887  0.9887
 5294TIP3    H237298   6.207   0.960  10.238  0.0265 -0.0553 -0.6174
 5295TIP3   OH237299   2.927   3.591   0.042 -0.1537 -1.0744  0.1434
 5295TIP3    H137300   2.936   3.602   0.136 -0.5151 -1.4928  0.2258
 5295TIP3    H237301   2.960   3.673   0.005  0.5907 -1.1555  0.6012
 5296TIP3   OH237302   2.958   1.995  10.907  0.7070  0.1628 -0.0063
 5296TIP3    H137303   3.010   1.915  10.894  0.3647 -0.2172  0.9171
 5296TIP3    H237304   2.874   1.964  10.942 -0.3032  0.7382 -1.7962
 5297TIP3   OH237305   2.760   2.164   9.419  0.0072 -0.5249 -0.3520
 5297TIP3    H137306   2.720   2.190   9.502 -0.4704  1.2629 -1.1034
 5297TIP3    H237307   2.846   2.207   9.419  0.5781 -1.6172 -0.2254
 5298TIP3   OH237308   5.360   5.565   9.807 -0.2521  0.0285  0.0582
 5298TIP3    H137309   5.279   5.616   9.806 -1.4704 -1.7800 -1.8406
 5298TIP3    H237310   5.386   5.560   9.715  0.7829 -1.2956  0.3942
 5299TIP3   OH237311   1.430   5.761  13.377  0.1542  0.2693  0.0199
 5299TIP3    H137312   1.389   5.834  13.424  0.4968  0.2921  0.2856
 5299TIP3    H237313   1.490   5.722  13.441  0.4697  0.1713 -0.3353
 5300TIP3   OH237314   4.407   0.686   0.010 -0.1554  0.4835  0.1461
 5300TIP3    H137315   4.482   0.732  -0.026 -1.7305  3.0865 -0.0911
 5300TIP3    H237316   4.367   0.749   0.070 -2.4406 -0.5802 -0.1417
 5301TIP3   OH237317   1.328   1.965  10.329 -0.0979  0.3814 -0.2245
 5301TIP3    H137318   1.379   1.952  10.249  0.7763 -2.2788  0.6307
 5301TIP3    H237319   1.393   1.988  10.396 -0.1053 -1.7425  0.5908
 5302TIP3   OH237320   3.599   0.092  10.288  0.0766 -0.2480 -0.0443
 5302TIP3    H137321   3.566   0.178  10.263  0.7142  0.2770  0.8770
 5302TIP3    H237322   3.593   0.090  10.383  1.6057 -0.5835  0.0653
 5303TIP3   OH237323   4.483   2.766  14.675  0.2192  0.2211 -0.3427
 5303TIP3    H137324   4.572   2.797  14.691 -0.5545  1.7879  1.2573
 5303TIP3    H237325   4.489   2.671  14.682  1.8425  0.2591 -0.8297
 5304TIP3   OH237326   2.840   5.499  12.245 -0.0088  0.1039  0.0696
 5304TIP3    H137327   2.786   5.479  12.169  1.4494  1.1065 -1.3134
 5304TIP3    H237328   2.820   5.430  12.309 -1.8285 -0.3248 -0.9152
 5305TIP3   OH237329   2.762   3.943  11.810 -0.4854  0.2579  0.4702
 5305TIP3    H137330   2.840   3.964  11.759 -1.0799  1.9098  0.1523
 5305TIP3    H237331   2.719   3.873  11.761 -0.7123  1.3737 -1.0070
 5306TIP3   OH237332   4.777   1.362  10.873  0.0003  0.1626  0.3354
 5306TIP3    H137333   4.697   1.364  10.819  1.9876 -0.7261 -2.9210
 5306TIP3    H237334   4.790   1.453  10.899 -0.2263  1.0007 -2.1730
 5307TIP3   OH237335   5.024   1.504   9.231 -0.4275 -0.6397 -0.4103
 5307TIP3    H137336   5.108   1.460   9.218  1.1213  0.3245  4.3275
 5307TIP3    H237337   5.045   1.597   9.228 -1.4244 -0.3731  0.3262
 5308TIP3   OH237338   3.066   2.428  14.177  0.5075  0.3876  0.1223
 5308TIP3    H137339   3.052   2.335  14.157  0.5861  0.5384 -0.6756
 5308TIP3    H237340   3.162   2.436  14.180  0.5046  0.1299  1.7844
 5309TIP3   OH237341   0.424   4.585   4.845 -0.0628  0.2767 -0.1889
 5309TIP3    H137342   0.496   4.534   4.807  0.2178 -0.8474  1.7463
 5309TIP3    H237343   0.462   4.671   4.864  1.1465 -0.6536  1.8456
 5310TIP3   OH237344   3.485   0.268  12.707  0.3345  0.0467  0.7203
 5310TIP3    H137345   3.555   0.243  12.647  0.0641  0.3380  0.2766
 5310TIP3    H237346   3.520   0.251  12.794  0.7061 -0.4498  0.4774
 5311TIP3   OH237347   4.606   1.331  14.542 -0.4739  0.1069 -0.3716
 5311TIP3    H137348   4.548   1.258  14.560 -0.2792 -0.0205 -0.2577
 5311TIP3    H237349   4.626   1.324  14.448 -1.6454  0.8864 -0.6978
 5312TIP3   OH237350   4.493   7.058  12.231  0.4183 -0.0167  0.2554
 5312TIP3    H137351   4.420   7.042  12.290  1.0432 -3.7463  0.2429
 5312TIP3    H237352   4.568   7.016  12.273  1.2975 -1.1759 -2.2679
 5313TIP3   OH237353   2.732   3.053   2.597  0.5348 -0.1561  0.3011
 5313TIP3    H137354   2.708   2.974   2.646 -1.0799  1.7220  2.8034
 5313TIP3    H237355   2.649   3.085   2.561  1.0322  0.7856 -0.0496
 5314TIP3   OH237356   2.856   0.137  11.613  0.3122  0.1163  0.0269
 5314TIP3    H137357   2.808   0.173  11.688  2.9093  0.3407  1.7144
 5314TIP3    H237358   2.924   0.082  11.653 -0.8961 -3.4345 -2.3319
 5315TIP3   OH237359   3.738   4.319   3.665 -0.3827  0.2106 -0.7985
 5315TIP3    H137360   3.761   4.334   3.573 -0.6738 -0.7142 -1.0397
 5315TIP3    H237361   3.646   4.291   3.662 -0.4025  0.1949 -0.2248
 5316TIP3   OH237362   3.993   4.391  11.615  0.2526  0.0885 -0.4798
 5316TIP3    H137363   3.928   4.343  11.564 -0.6108 -0.3611  1.0058
 5316TIP3    H237364   4.001   4.343  11.697  0.8985  1.3181  0.2149
 5317TIP3   OH237365   5.769   1.441  10.911 -0.3149  0.0469  0.3105
 5317TIP3    H137366   5.853   1.398  10.928  0.3245 -0.5158 -3.3426
 5317TIP3    H237367   5.777   1.527  10.952  1.7211 -0.2862  0.7295
 5318TIP3   OH237368   0.603   6.728  11.663 -0.0665  0.7025 -0.1637
 5318TIP3    H137369   0.574   6.809  11.706 -1.6609  0.7312 -1.1858
 5318TIP3    H237370   0.694   6.744  11.640 -0.4909  2.4249 -0.7895
 5319TIP3   OH237371   6.030   4.293   5.135 -0.1097 -0.6508  0.3787
 5319TIP3    H137372   5.952   4.238   5.124  1.1341 -2.4194  0.0584
 5319TIP3    H237373   6.057   4.278   5.226 -0.7728  0.8654  0.8506
 5320TIP3   OH237374   4.249   1.820  12.376  0.1201 -0.1567  0.4012
 5320TIP3    H137375   4.318   1.760  12.345 -0.8149 -2.2763  2.0949
 5320TIP3    H237376   4.289   1.866  12.450  0.3377  0.1072  0.1200
 5321TIP3   OH237377   4.099   5.595  12.629 -1.0688 -0.7014  0.6136
 5321TIP3    H137378   4.163   5.540  12.675  0.9839  0.9983 -0.0455
 5321TIP3    H237379   4.081   5.547  12.548 -0.0619 -0.9005  0.4928
 5322TIP3   OH237380   1.538   0.813  13.511 -0.5474 -0.2755  0.4458
 5322TIP3    H137381   1.620   0.795  13.556  0.4288  0.0327 -1.1242
 5322TIP3    H237382   1.551   0.899  13.471 -2.0505  0.2661  1.0639
 5323TIP3   OH237383   2.100   6.105  11.622  0.2230  0.3830 -0.3711
 5323TIP3    H137384   2.128   6.196  11.610  2.3881  0.0036  1.2825
 5323TIP3    H237385   2.173   6.063  11.667 -1.7081 -1.6008  1.1222
 5324TIP3   OH237386   4.008   4.092   4.624  0.5831  0.0910 -0.2530
 5324TIP3    H137387   4.069   4.091   4.698  1.1695 -0.7353 -0.7366
 5324TIP3    H237388   3.993   4.185   4.606 -1.6005  0.4303  2.5247
 5325TIP3   OH237389   3.235   4.200  13.412  0.1066 -0.3967 -0.3324
 5325TIP3    H137390   3.196   4.247  13.486  1.0040  0.2288 -0.2351
 5325TIP3    H237391   3.163   4.188  13.350 -0.4429 -0.0885  0.2308
 5326TIP3   OH237392   5.333   0.107  10.791  0.0109 -0.1339 -0.5956
 5326TIP3    H137393   5.256   0.056  10.765 -0.2548  0.1198 -0.3122
 5326TIP3    H237394   5.381   0.122  10.710  1.2336 -2.6680 -0.4422
 5327TIP3   OH237395   3.893   3.685  11.404  0.2649 -0.7681  0.2457
 5327TIP3    H137396   3.962   3.649  11.348  0.6467 -0.6366  0.6335
 5327TIP3    H237397   3.812   3.660  11.359  0.5760 -0.0705 -0.7460
 5328TIP3   OH237398   0.803   0.410  15.282  0.3577  0.5032  0.4000
 5328TIP3    H137399   0.720   0.389  15.239  0.4601  0.8965  0.0095
 5328TIP3    H237400   0.829   0.494  15.246  1.7457 -0.3393 -0.6890
 5329TIP3   OH237401   5.561   0.304  12.606 -0.2487  0.4013 -0.5068
 5329TIP3    H137402   5.607   0.358  12.541 -0.1184  0.7582 -0.1245
 5329TIP3    H237403   5.614   0.224  12.613  1.4422  1.5827  1.3320
 5330TIP3   OH237404   5.745   4.111   2.566 -0.2502  0.3558 -0.1444
 5330TIP3    H137405   5.656   4.087   2.540 -0.1024  0.8849 -1.2014
 5330TIP3    H237406   5.735   4.193   2.615 -0.4824 -0.3924  1.1022
 5331TIP3   OH237407   1.693   1.238  11.111  0.4306  0.2747  0.5465
 5331TIP3    H137408   1.628   1.196  11.055 -0.4940  0.2701  1.5798
 5331TIP3    H237409   1.777   1.204  11.081 -0.0907 -0.1768 -0.4334
 5332TIP3   OH237410   4.129   4.051  10.517 -0.5030 -0.7971 -0.4614
 5332TIP3    H137411   4.194   4.119  10.496 -1.7405 -0.2159 -2.8457
 5332TIP3    H237412   4.168   3.970  10.486 -0.6515 -0.5189 -1.4316
 5333TIP3   OH237413   0.338   0.719  14.617 -0.0650  0.5359  0.4629
 5333TIP3    H137414   0.423   0.736  14.658 -0.2154  0.2276  0.9068
 5333TIP3    H237415   0.275   0.728  14.688 -0.4829  1.4596 -0.0040
 5334TIP3   OH237416   6.123   3.570  11.453  0.3527 -0.1831  0.1869
 5334TIP3    H137417   6.073   3.651  11.449  0.6263 -0.0135  0.1707
 5334TIP3    H237418   6.210   3.594  11.420 -0.1837 -0.9620 -1.9968
 5335TIP3   OH237419   3.733   0.353   0.965 -0.2466  0.0273 -0.0887
 5335TIP3    H137420   3.758   0.321   1.052 -0.4731 -0.9017 -0.3599
 5335TIP3    H237421   3.658   0.409   0.980  1.4594  2.2777  0.6640
 5336TIP3   OH237422   0.459   2.581  12.301  0.0184 -0.3492 -0.1794
 5336TIP3    H137423   0.547   2.601  12.332  0.1545 -1.9991  0.5843
 5336TIP3    H237424   0.401   2.614  12.369  0.1682 -1.2896  0.4115
 5337TIP3   OH237425   5.180   4.994   9.725 -0.1600  0.1060  0.2801
 5337TIP3    H137426   5.085   5.003   9.712  0.0164  0.6061 -0.7713
 5337TIP3    H237427   5.189   4.917   9.781 -1.2450  0.7080  1.3467
 5338TIP3   OH237428   4.683   3.929   0.132  0.0071 -0.4403 -0.6913
 5338TIP3    H137429   4.624   3.964   0.065 -1.6237  0.4640  1.1337
 5338TIP3    H237430   4.626   3.907   0.206  1.7716 -1.1252  0.5466
 5339TIP3   OH237431   1.591   5.042  10.862 -0.0985 -0.8716  0.7511
 5339TIP3    H137432   1.576   4.950  10.883 -0.3781 -1.0537 -0.2002
 5339TIP3    H237433   1.572   5.049  10.769 -0.5722  0.2580  0.9149
 5340TIP3   OH237434   3.739   4.259  14.995 -0.4569  0.3983 -0.7531
 5340TIP3    H137435   3.710   4.350  15.003  1.7682  1.3212 -2.2994
 5340TIP3    H237436   3.834   4.264  14.993 -0.2589 -2.0216 -0.5995
 5341TIP3   OH237437   1.933   1.872  14.184 -0.5252  0.2493 -0.1281
 5341TIP3    H137438   1.934   1.944  14.248 -1.5392  0.8366 -0.7566
 5341TIP3    H237439   1.844   1.872  14.149 -0.6366 -1.5221  0.0755
 5342TIP3   OH237440   0.915   1.752  11.729  0.1501 -0.3385 -0.1834
 5342TIP3    H137441   0.966   1.677  11.699 -0.8005  0.0537 -3.1553
 5342TIP3    H237442   0.825   1.732  11.703 -0.1752  1.6291 -0.7729
 5343TIP3   OH237443   4.570   2.157  10.551  0.3589 -0.0180  0.5564
 5343TIP3    H137444   4.566   2.068  10.587  1.6824 -0.1266  0.5022
 5343TIP3    H237445   4.642   2.154  10.488 -1.0828  0.5069 -1.2049
 5344TIP3   OH237446   3.956   3.424  11.043 -0.3528  0.3497 -0.3316
 5344TIP3    H137447   4.038   3.424  10.993 -0.0270 -1.8122  0.0877
 5344TIP3    H237448   3.936   3.517  11.056  1.4157  0.9442 -1.4236
 5345TIP3   OH237449   0.144   5.129  12.006 -0.0935 -0.3406  0.8100
 5345TIP3    H137450   0.165   5.076  12.083  0.3319  0.3977  1.2165
 5345TIP3    H237451   0.189   5.212  12.022 -0.5423  0.0488  0.0698
 5346TIP3   OH237452   4.956   1.162  10.925 -0.1007  0.0607  0.0342
 5346TIP3    H137453   4.899   1.235  10.903 -1.5010 -1.4698 -1.7656
 5346TIP3    H237454   5.031   1.170  10.866 -1.6325 -1.4464 -2.2797
 5347TIP3   OH237455   2.829   0.149  12.566  0.4650 -0.4834  0.1192
 5347TIP3    H137456   2.852   0.204  12.491  0.4689  0.3695  0.7289
 5347TIP3    H237457   2.756   0.096  12.536  1.2598 -1.0554 -0.8855
 5348TIP3   OH237458   7.015   5.386  12.951 -0.1007  0.6466  0.6424
 5348TIP3    H137459   6.989   5.478  12.949 -0.3153  0.5835  0.5546
 5348TIP3    H237460   6.982   5.349  12.869 -0.4509  0.3738  0.8998
 5349TIP3   OH237461   3.131   0.788  12.372 -0.0454  0.3142  0.1357
 5349TIP3    H137462   3.088   0.873  12.366  0.7903  0.6884 -0.9516
 5349TIP3    H237463   3.078   0.730  12.318  1.0873  0.9236 -1.7315
 5350TIP3   OH237464   4.957   0.889  10.670 -0.5121 -0.0894 -0.0295
 5350TIP3    H137465   5.021   0.820  10.686  0.6606  1.1689  0.9211
 5350TIP3    H237466   4.873   0.850  10.695 -0.0147 -1.4776 -0.4573
 5351TIP3   OH237467   4.632   2.878   0.705 -0.3180  0.2299  0.4091
 5351TIP3    H137468   4.608   2.843   0.791 -0.7320  1.7900  0.9654
 5351TIP3    H237469   4.718   2.916   0.718 -0.9006  1.5894  0.5046
 5352TIP3   OH237470   1.005   1.016  10.548  0.0013  0.7573  0.3944
 5352TIP3    H137471   0.931   1.051  10.499 -0.3029  2.2419  1.8526
 5352TIP3    H237472   0.965   0.960  10.614  0.2887  0.3838  0.2580
 5353TIP3   OH237473   6.168   2.112  14.084  0.2889 -0.0589  0.7419
 5353TIP3    H137474   6.182   2.093  14.177 -0.4128 -3.0944  0.3263
 5353TIP3    H237475   6.106   2.046  14.055  1.2872  0.1176 -2.1483
 5354TIP3   OH237476   3.149   0.304  14.124 -0.2525  0.3554  0.4435
 5354TIP3    H137477   3.149   0.325  14.030  0.4569  2.3237  0.8410
 5354TIP3    H237478   3.074   0.352  14.159 -2.9250 -3.3902  0.3722
 5355TIP3   OH237479   4.351   1.080   3.805  0.3374 -0.2112  0.0625
 5355TIP3    H137480   4.289   1.105   3.875  0.5010  1.8456 -0.4743
 5355TIP3    H237481   4.395   1.162   3.782  1.1697 -1.0954 -1.6159
 5356TIP3   OH237482   1.587   1.035   9.768 -0.0039 -0.4879 -0.0482
 5356TIP3    H137483   1.664   1.073   9.726 -1.0938 -0.8843 -2.5867
 5356TIP3    H237484   1.533   1.110   9.791  1.0357 -0.2143  1.6276
 5357TIP3   OH237485   0.503   1.333   0.546 -0.1445  0.2373  0.7107
 5357TIP3    H137486   0.541   1.385   0.618 -0.4603  0.0746  0.9978
 5357TIP3    H237487   0.412   1.321   0.571 -0.3555  0.5135  0.0845
 5358TIP3   OH237488   2.590   7.148  10.547 -0.0194 -0.4903 -0.3913
 5358TIP3    H137489   2.581   7.056  10.570  0.5423 -0.0172  1.9839
 5358TIP3    H237490   2.684   7.162  10.537 -0.1806 -0.4238 -2.0146
 5359TIP3   OH237491   6.676   2.264  12.824  0.2146 -0.3746 -0.1310
 5359TIP3    H137492   6.612   2.325  12.859  0.6202  1.1867 -1.9557
 5359TIP3    H237493   6.761   2.296  12.856  0.4270  0.0038 -1.0497
 5360TIP3   OH237494   6.524   2.226  10.633  0.6845  0.8338 -0.3831
 5360TIP3    H137495   6.602   2.251  10.682 -0.3154 -0.6567  2.1666
 5360TIP3    H237496   6.504   2.302  10.579  2.7183  2.0098  0.4070
 5361TIP3   OH237497   6.532   3.255  10.066  0.1091 -0.8774  0.0815
 5361TIP3    H137498   6.530   3.348  10.089  0.6279 -0.7766 -0.2567
 5361TIP3    H237499   6.625   3.234  10.058 -0.0266 -1.1156 -1.0670
 5362TIP3   OH237500   5.223   5.071  14.285 -0.2117  0.6254  0.0146
 5362TIP3    H137501   5.200   4.980  14.269 -1.5583  1.1097 -0.9000
 5362TIP3    H237502   5.319   5.073  14.274 -0.1930 -0.6183 -0.2169
 5363TIP3   OH237503   1.248   4.353  13.584  0.4604 -0.7165 -0.0531
 5363TIP3    H137504   1.156   4.377  13.569  0.4644 -1.0598 -0.6571
 5363TIP3    H237505   1.287   4.353  13.497  0.3503 -3.3442 -0.1891
 5364TIP3   OH237506   0.321   5.910  15.362  0.2372 -0.0415  0.3234
 5364TIP3    H137507   0.283   5.873  15.281 -0.6056  1.5404 -0.0373
 5364TIP3    H237508   0.411   5.878  15.363  1.4652  2.6591 -3.1658
 5365TIP3   OH237509   4.271   3.757  12.681 -0.3671  0.4848  0.0908
 5365TIP3    H137510   4.202   3.691  12.689  0.0528 -0.3890 -2.6311
 5365TIP3    H237511   4.352   3.708  12.697 -0.2236  1.5374  3.4466
 5366TIP3   OH237512   0.343   0.495  14.463 -0.3555  0.5785  0.5709
 5366TIP3    H137513   0.340   0.565  14.528 -3.3972  0.5499  0.6223
 5366TIP3    H237514   0.260   0.503  14.416  0.1123 -1.7431 -0.8049
 5367TIP3   OH237515   1.014   0.156   3.954  0.1832  0.0037 -0.7585
 5367TIP3    H137516   1.006   0.080   3.895 -0.3109 -0.6864  0.1603
 5367TIP3    H237517   1.030   0.117   4.040 -2.1468  0.7947  0.1282
 5368TIP3   OH237518   4.869   4.571  13.288 -0.1877 -0.1600  0.7880
 5368TIP3    H137519   4.840   4.628  13.217  1.0409 -0.1865  0.2414
 5368TIP3    H237520   4.951   4.532  13.256 -0.6501 -1.7171  1.4227
 5369TIP3   OH237521   5.919   4.886   9.428 -0.3035  0.0155 -0.3227
 5369TIP3    H137522   6.002   4.845   9.405  0.1590 -1.1263  2.8184
 5369TIP3    H237523   5.944   4.971   9.466 -0.8197  0.8133 -1.7068
 5370TIP3   OH237524   4.323   1.940   3.804 -0.0232 -0.3687  0.4026
 5370TIP3    H137525   4.418   1.935   3.806 -0.0796 -1.9577  0.2655
 5370TIP3    H237526   4.294   1.850   3.796 -1.4947  0.2092 -1.5846
 5371TIP3   OH237527   6.012   7.121   3.137  0.0900  0.3099 -0.8045
 5371TIP3    H137528   6.017   7.159   3.225 -1.0581  1.7415 -1.3239
 5371TIP3    H237529   6.101   7.087   3.121 -0.1875 -1.9515  1.6925
 5372TIP3   OH237530   2.866   0.980  12.127  0.6465  0.0553  0.2955
 5372TIP3    H137531   2.902   0.909  12.073  0.0810  0.4725 -0.6583
 5372TIP3    H237532   2.903   1.060  12.090 -1.5289  0.5359 -1.0122
 5373TIP3   OH237533   6.422   1.179  12.732 -0.5344 -0.2747 -0.1077
 5373TIP3    H137534   6.400   1.270  12.751  0.1221  0.2756 -1.7977
 5373TIP3    H237535   6.341   1.130  12.748 -0.8899  0.5861  0.8072
 5374TIP3   OH237536   1.917   0.850  11.076 -0.3090 -0.2131  0.5354
 5374TIP3    H137537   1.915   0.783  11.145  0.3732 -0.5251  0.2576
 5374TIP3    H237538   1.994   0.904  11.097 -0.8395  0.4760  0.7438
 5375TIP3   OH237539   0.807   0.151   2.880  0.2088  0.2972  0.1925
 5375TIP3    H137540   0.810   0.066   2.924 -1.2255  1.4024  2.6014
 5375TIP3    H237541   0.878   0.201   2.920  0.4376  0.5787 -0.5400
 5376TIP3   OH237542   2.999   0.120  10.711 -0.8917 -0.3475 -0.3396
 5376TIP3    H137543   2.955   0.194  10.751 -3.1102 -1.8292  0.1662
 5376TIP3    H237544   2.987   0.048  10.773  0.7760 -1.2614 -1.0133
 5377TIP3   OH237545   5.102   6.974  11.272 -0.1749  0.0163 -0.2721
 5377TIP3    H137546   5.097   7.052  11.327 -1.2963  1.4434 -2.2433
 5377TIP3    H237547   5.183   6.986  11.221 -0.8538  0.4627 -1.2912
 5378TIP3   OH237548   6.983   1.429  11.411 -0.1467 -1.0237 -0.4999
 5378TIP3    H137549   6.889   1.424  11.395 -0.5613  1.7205  0.4731
 5378TIP3    H237550   6.990   1.470  11.497  1.9416 -1.3417 -0.4731
 5379TIP3   OH237551   6.292   3.790  12.259  0.4079  0.1549  0.5511
 5379TIP3    H137552   6.352   3.821  12.191  0.9182 -0.0028  0.9240
 5379TIP3    H237553   6.338   3.716  12.299  0.0997  0.2283  1.0443
 5380TIP3   OH237554   5.153   4.499   0.028  0.0243 -0.1427 -0.1168
 5380TIP3    H137555   5.115   4.417   0.060 -0.5658  0.6614  1.3492
 5380TIP3    H237556   5.199   4.474  -0.052 -0.7591 -1.7677 -0.1136
 5381TIP3   OH237557   6.541   4.633   9.559 -0.2442 -0.0699 -0.1071
 5381TIP3    H137558   6.623   4.592   9.587 -0.1479 -0.3008 -0.7230
 5381TIP3    H237559   6.569   4.709   9.508 -0.4203  0.3385  0.3917
 5382TIP3   OH237560   1.643   6.400  10.393  0.1853  0.2970  0.1553
 5382TIP3    H137561   1.734   6.398  10.425  0.1087  0.8984  0.4189
 5382TIP3    H237562   1.607   6.480  10.430 -0.8993 -0.6759  1.2886
 5383TIP3   OH237563   0.907   6.554  12.033 -0.2901  0.5901 -0.3722
 5383TIP3    H137564   0.958   6.486  11.989 -1.3992 -1.4863  1.3333
 5383TIP3    H237565   0.816   6.522  12.030 -0.7533  1.6510  1.0660
 5384TIP3   OH237566   0.824   0.054   9.876  0.2468  0.2858  0.0860
 5384TIP3    H137567   0.892  -0.013   9.870  0.4194  0.3387  1.2164
 5384TIP3    H237568   0.745   0.006   9.899  0.7034  0.5993  2.5177
 5385TIP3   OH237569   6.744   6.807  10.418 -0.4372  0.2031 -0.2443
 5385TIP3    H137570   6.719   6.867  10.347 -0.7541 -0.7648 -0.9665
 5385TIP3    H237571   6.797   6.740  10.375 -0.1397 -0.0855  0.5471
 5386TIP3   OH237572   0.578   3.315  10.230  0.5502 -0.3613  0.3376
 5386TIP3    H137573   0.555   3.352  10.145 -1.3618 -0.8114  0.6234
 5386TIP3    H237574   0.563   3.221  10.220 -1.1268 -0.2713  1.5544
 5387TIP3   OH237575   2.982   0.360  10.119 -0.4889  0.1257  0.2910
 5387TIP3    H137576   2.903   0.396  10.078  0.8692  1.9064 -0.9297
 5387TIP3    H237577   3.046   0.355  10.048  0.9185  0.0743  1.5108
 5388TIP3   OH237578   5.991   6.184  11.557 -0.9809  0.2091 -0.3959
 5388TIP3    H137579   5.905   6.147  11.575 -0.9653  0.4283  0.1413
 5388TIP3    H237580   6.044   6.163  11.635  0.1627 -1.9856 -1.6600
 5389TIP3   OH237581   6.811   1.165  11.114  0.4297 -0.2960 -0.1720
 5389TIP3    H137582   6.785   1.073  11.107 -0.6712 -0.1269  1.2825
 5389TIP3    H237583   6.733   1.210  11.146  1.2637  0.9730  0.1662
 5390TIP3   OH237584   6.366   5.744  10.227 -0.6656 -0.2679 -0.7506
 5390TIP3    H137585   6.316   5.793  10.291 -0.2065 -0.3247 -0.3394
 5390TIP3    H237586   6.406   5.811  10.171 -0.1902 -0.1747 -0.3043
 5391TIP3   OH237587   3.640   6.503  10.109 -0.3589  0.3331 -1.3358
 5391TIP3    H137588   3.566   6.560  10.089 -0.0976  0.7351 -1.1643
 5391TIP3    H237589   3.619   6.420  10.065 -1.6287 -0.0655 -0.0548
 5392TIP3   OH237590   5.553   3.207   4.828  0.0380  0.1342 -0.0163
 5392TIP3    H137591   5.566   3.124   4.783  3.1717  0.0633  0.7885
 5392TIP3    H237592   5.524   3.183   4.916 -0.1205 -0.0640 -0.1235
 5393TIP3   OH237593   0.634   3.014  10.377  0.1338  0.3293 -0.0165
 5393TIP3    H137594   0.650   3.025  10.283  0.9620 -0.1331  0.0548
 5393TIP3    H237595   0.540   3.029  10.388  0.1708  1.2438 -0.7869
 5394TIP3   OH237596   4.086   1.607   4.972 -0.2243 -1.0772 -0.2817
 5394TIP3    H137597   4.165   1.603   5.026 -0.1012 -4.2236 -0.5453
 5394TIP3    H237598   4.014   1.612   5.036  0.0638 -0.6404  0.0152
 5395TIP3   OH237599   3.404   3.300   0.542  0.2357  0.2393 -0.3046
 5395TIP3    H137600   3.469   3.326   0.477  0.8536  1.3313  0.7142
 5395TIP3    H237601   3.340   3.372   0.541 -1.6592 -1.3285 -2.1064
 5396TIP3   OH237602   3.674   6.055  12.209  0.1137  0.0170 -0.4034
 5396TIP3    H137603   3.719   6.066  12.293 -0.0210 -0.6764 -0.2329
 5396TIP3    H237604   3.644   5.964  12.210  0.4645 -0.1199 -1.3819
 5397TIP3   OH237605   6.420   4.674  14.019  0.7707 -0.3241 -0.1226
 5397TIP3    H137606   6.329   4.648  14.001  0.0438  1.5749  0.5662
 5397TIP3    H237607   6.447   4.720  13.940  0.8814 -0.2258 -0.0267
 5398TIP3   OH237608   5.792   3.101  10.753 -0.0674  0.2538 -0.2332
 5398TIP3    H137609   5.817   3.011  10.734  1.8090  0.5492  0.6067
 5398TIP3    H237610   5.846   3.154  10.693  1.5563  0.9259  1.7244
 5399TIP3   OH237611   3.334   0.420  10.539  0.5031  0.2986 -0.0356
 5399TIP3    H137612   3.307   0.330  10.554  1.3060  0.3652  2.2071
 5399TIP3    H237613   3.259   0.473  10.563 -0.1725  0.2774 -1.9018
 5400TIP3   OH237614   2.176   5.294  14.909 -0.5522  0.5635 -0.5088
 5400TIP3    H137615   2.166   5.330  14.997  1.2450 -0.5651  0.2107
 5400TIP3    H237616   2.094   5.247  14.894 -0.4261 -0.2468  1.0761
 5401TIP3   OH237617   6.674   4.810  13.478 -0.1790  0.0228  0.9114
 5401TIP3    H137618   6.758   4.838  13.443 -0.4327  0.8237  0.9172
 5401TIP3    H237619   6.673   4.841  13.568 -0.7795  0.6753  0.6866
 5402TIP3   OH237620   1.574   1.010   0.437 -0.7412  0.0275 -0.0536
 5402TIP3    H137621   1.559   1.057   0.518  0.2798  0.8923 -0.3387
 5402TIP3    H237622   1.628   0.935   0.462  1.9797  1.7868 -0.2441
 5403TIP3   OH237623   3.190   4.067   9.762  0.1104  0.2646 -0.1420
 5403TIP3    H137624   3.099   4.064   9.732  0.1397 -2.3039 -0.1809
 5403TIP3    H237625   3.241   4.047   9.684  0.8441  2.6176 -0.3404
 5404TIP3   OH237626   3.519   2.198  10.453 -0.2722 -0.0575  0.1275
 5404TIP3    H137627   3.568   2.209  10.371  1.7702 -0.5364  1.2203
 5404TIP3    H237628   3.506   2.103  10.461 -1.6128  0.0733 -0.2395
 5405TIP3   OH237629   1.388   2.257   1.435 -0.1315  0.1000 -0.0198
 5405TIP3    H137630   1.405   2.312   1.511 -0.2416 -0.5094  0.4494
 5405TIP3    H237631   1.393   2.168   1.468  2.2878 -0.2890 -1.2138
 5406TIP3   OH237632   5.559   4.861   0.060 -0.3029  0.2952 -0.1705
 5406TIP3    H137633   5.632   4.863   0.123  1.5951 -1.1636 -2.1996
 5406TIP3    H237634   5.555   4.771   0.030 -2.7603  0.4252 -0.4270
 5407TIP3   OH237635   6.946   7.063   9.509 -0.5087  0.0066 -0.4940
 5407TIP3    H137636   6.903   7.001   9.568 -0.8516  0.5114 -0.1950
 5407TIP3    H237637   6.936   7.025   9.422 -1.1773 -0.1058 -0.3757
 5408TIP3   OH237638   1.773   2.273   5.477  0.2222 -0.4398 -0.1328
 5408TIP3    H137639   1.836   2.204   5.499 -0.2924 -1.2837 -1.1837
 5408TIP3    H237640   1.817   2.355   5.500  0.9288 -1.1078  0.9569
 5409TIP3   OH237641   4.957   0.125  14.480  0.2547 -0.0247 -0.4434
 5409TIP3    H137642   4.895   0.152  14.547  0.3135 -0.1223 -0.3494
 5409TIP3    H237643   4.912   0.056  14.432  1.3109 -2.1675  1.4287
 5410TIP3   OH237644   3.141   0.092   0.022 -0.4877  0.0314  0.5110
 5410TIP3    H137645   3.204   0.027   0.054 -2.9969 -0.8789  4.1718
 5410TIP3    H237646   3.187   0.176   0.030  2.3113 -0.9059 -2.9341
 5411TIP3   OH237647   3.300   2.914  15.109 -0.4355 -0.0363  0.4123
 5411TIP3    H137648   3.233   2.877  15.167  1.0091 -0.6334  1.7717
 5411TIP3    H237649   3.378   2.923  15.164  0.3955  1.3882 -0.9145
 5412TIP3   OH237650   5.158   6.078  14.407  0.0811 -0.0601 -0.6988
 5412TIP3    H137651   5.130   6.170  14.412 -1.2648 -0.4864  0.3000
 5412TIP3    H237652   5.134   6.041  14.492  0.5550 -1.3539 -1.1068
 5413TIP3   OH237653   2.495   2.555  13.057 -0.1148  0.1114 -0.0754
 5413TIP3    H137654   2.573   2.499  13.053 -1.3353 -1.8368  1.3607
 5413TIP3    H237655   2.426   2.502  13.018 -1.1557  0.9731  0.5514
 5414TIP3   OH237656   2.207   1.737   2.687 -0.2732 -0.0581  0.2310
 5414TIP3    H137657   2.256   1.679   2.628  2.3531  0.4334  1.7819
 5414TIP3    H237658   2.168   1.678   2.751  0.2583 -0.3081  0.3318
 5415TIP3   OH237659   0.075   3.560  14.111  0.6950  0.3498 -0.0303
 5415TIP3    H137660   0.126   3.621  14.058  3.4001 -1.8580 -0.2125
 5415TIP3    H237661   0.035   3.501  14.047  0.3247  0.2985  0.2433
 5416TIP3   OH237662   4.175   0.923  14.048  0.5147 -0.4171 -0.2394
 5416TIP3    H137663   4.222   0.889  13.971 -0.1333 -0.3881 -0.6583
 5416TIP3    H237664   4.244   0.955  14.106  1.2865 -3.6847  0.8273
 5417TIP3   OH237665   6.657   1.707  11.633 -0.4606 -0.4039  0.1846
 5417TIP3    H137666   6.697   1.641  11.688 -1.1294 -1.0433 -0.0706
 5417TIP3    H237667   6.637   1.661  11.551  0.5999  0.5464 -0.6388
 5418TIP3   OH237668   2.667   1.080   9.578 -0.0442 -0.5600  0.3871
 5418TIP3    H137669   2.626   1.167   9.575 -1.7310 -1.3058  0.4349
 5418TIP3    H237670   2.740   1.090   9.639  1.7321  1.5642 -1.8634
 5419TIP3   OH237671   0.889   2.596  12.129  0.5391  0.0677  0.5173
 5419TIP3    H137672   0.829   2.559  12.064  1.1382  0.5151 -0.3104
 5419TIP3    H237673   0.966   2.540  12.124  0.6131  0.1471  0.7966
 5420TIP3   OH237674   4.982   1.554   1.514  0.1222  0.1217  0.5138
 5420TIP3    H137675   4.987   1.556   1.610 -1.5016 -1.1604  0.6797
 5420TIP3    H237676   4.928   1.477   1.495 -0.2905  0.8359 -1.4044
 5421TIP3   OH237677   3.766   0.100  11.266  0.3420  0.1206  0.0109
 5421TIP3    H137678   3.693   0.060  11.313  0.9975 -1.0849  0.0514
 5421TIP3    H237679   3.778   0.043  11.189 -0.6894  2.0163 -1.6347
 5422TIP3   OH237680   1.826   4.492  13.848  0.4962  0.1988  0.7761
 5422TIP3    H137681   1.828   4.426  13.778 -1.6203  0.8811  0.0181
 5422TIP3    H237682   1.884   4.561  13.817  0.2294  0.1167  0.0873
 5423TIP3   OH237683   3.461   2.804   3.551 -0.0492 -0.2151  0.2787
 5423TIP3    H137684   3.444   2.748   3.626  0.4210 -2.6720 -1.3223
 5423TIP3    H237685   3.382   2.797   3.497 -0.0353  0.8102  0.1047
 5424TIP3   OH237686   0.066   6.177  13.472 -0.4965 -0.1063 -0.2486
 5424TIP3    H137687   0.119   6.104  13.439 -1.6229  0.0612 -2.6248
 5424TIP3    H237688   0.127   6.251  13.474  0.2591 -0.7314  0.6694
 5425TIP3   OH237689   6.359   2.969   1.012  0.1841 -0.4200 -0.3715
 5425TIP3    H137690   6.265   2.951   1.011 -0.6757  2.9888  1.5806
 5425TIP3    H237691   6.379   2.998   0.923 -0.3909 -1.8553 -0.9999
 5426TIP3   OH237692   6.274   5.544  10.085  0.4145 -0.3899  0.4391
 5426TIP3    H137693   6.316   5.615  10.132 -1.6285  0.7603  0.6493
 5426TIP3    H237694   6.291   5.466  10.138  0.7109  0.3550  1.4692
 5427TIP3   OH237695   0.916   1.729  10.273  0.4278 -0.2159  0.1467
 5427TIP3    H137696   0.866   1.710  10.353  1.5495 -0.5115  0.8068
 5427TIP3    H237697   0.867   1.687  10.203 -0.2887 -0.4261  0.7617
 5428TIP3   OH237698   6.660   2.749  13.290  0.2064 -0.0830  0.2700
 5428TIP3    H137699   6.671   2.655  13.281 -1.2556 -0.0756 -2.8620
 5428TIP3    H237700   6.605   2.760  13.367 -1.1630 -1.9536 -0.3853
 5429TIP3   OH237701   4.216   2.280   1.963  0.2379  0.7237  0.2693
 5429TIP3    H137702   4.271   2.357   1.976  0.3328  0.7813 -0.4798
 5429TIP3    H237703   4.184   2.288   1.874  1.9052 -1.1685 -0.5590
 5430TIP3   OH237704   1.860   5.661  11.336 -0.3662 -0.3599  0.4371
 5430TIP3    H137705   1.813   5.650  11.419 -0.6497 -1.1924  0.1806
 5430TIP3    H237706   1.905   5.745  11.345 -0.3384 -0.4664  1.4608
 5431TIP3   OH237707   2.468   1.640  14.228  0.2514 -0.4595  0.5960
 5431TIP3    H137708   2.509   1.667  14.310 -0.3605  1.6937  0.2451
 5431TIP3    H237709   2.385   1.687  14.225 -0.4862 -1.7410 -0.5356
 5432TIP3   OH237710   3.203   2.385   0.025 -0.2296  0.0887  0.1329
 5432TIP3    H137711   3.190   2.362   0.118 -3.6525  0.7795 -0.0362
 5432TIP3    H237712   3.155   2.318  -0.023 -0.5866  1.1226 -1.0036
 5433TIP3   OH237713   5.701   3.915  13.182 -0.1090 -0.8081  0.3439
 5433TIP3    H137714   5.634   3.932  13.249 -0.1845  1.6893 -0.2490
 5433TIP3    H237715   5.765   3.986  13.194 -0.4035  0.0919 -2.4991
 5434TIP3   OH237716   3.742   4.999   0.110 -0.0197 -0.4832  0.2893
 5434TIP3    H137717   3.784   5.068   0.059  0.8924  0.0877  1.7455
 5434TIP3    H237718   3.815   4.944   0.139 -0.1126  0.7049  3.1377
 5435TIP3   OH237719   3.711   6.917   3.911  0.3928  0.0327 -0.6647
 5435TIP3    H137720   3.765   6.956   3.980  2.2122 -0.8947 -1.4890
 5435TIP3    H237721   3.631   6.891   3.956  0.9369  0.7290  0.8021
 5436TIP3   OH237722   3.243   2.342  14.527 -0.3410 -0.9846 -0.7009
 5436TIP3    H137723   3.174   2.293  14.572 -0.9312 -0.4435 -1.0052
 5436TIP3    H237724   3.197   2.391  14.458 -0.1697  1.8889  1.0527
 5437TIP3   OH237725   3.031   4.482   9.925  0.1131  0.0703 -0.5264
 5437TIP3    H137726   2.991   4.440   9.849 -1.0719 -0.4918  0.3646
 5437TIP3    H237727   2.963   4.480   9.992  0.8863  1.1861  0.3366
 5438TIP3   OH237728   2.695   0.396   4.302  0.0756 -0.3320 -0.0190
 5438TIP3    H137729   2.778   0.387   4.349  0.2662  1.2350 -0.0012
 5438TIP3    H237730   2.628   0.372   4.366  0.5314 -3.1616 -0.4926
 5439TIP3   OH237731   4.954   6.747  11.298  0.3091 -0.0803  0.0835
 5439TIP3    H137732   5.028   6.803  11.322  0.1810 -0.5095  1.5213
 5439TIP3    H237733   4.982   6.659  11.321 -0.6590 -0.2413  0.6541
 5440TIP3   OH237734   4.403   4.073  10.388 -0.4019  0.5522  0.7154
 5440TIP3    H137735   4.342   4.087  10.315 -1.6484  1.2936  1.8436
 5440TIP3    H237736   4.464   4.147  10.382  1.5921 -1.1314 -1.4754
 5441TIP3   OH237737   4.401   2.845  12.242 -0.4031  0.2105  0.3913
 5441TIP3    H137738   4.465   2.846  12.170 -0.8295 -2.0713 -0.0827
 5441TIP3    H237739   4.363   2.933  12.241  0.6552  0.6966 -1.2053
 5442TIP3   OH237740   4.355   4.419  12.581  0.2697  0.4457  0.2920
 5442TIP3    H137741   4.320   4.330  12.577 -0.1576  0.4785  2.2409
 5442TIP3    H237742   4.346   4.444  12.673  1.3100  2.1392 -0.0250
 5443TIP3   OH237743   1.710   5.420   9.725 -0.3195 -0.3552 -0.0038
 5443TIP3    H137744   1.622   5.430   9.761  0.1175 -0.8357  1.2750
 5443TIP3    H237745   1.734   5.329   9.744  0.5493 -0.1605 -0.0950
 5444TIP3   OH237746   4.733   0.835  11.710  0.4703  0.7950 -0.8684
 5444TIP3    H137747   4.688   0.893  11.650 -2.6276  0.2360  0.7192
 5444TIP3    H237748   4.757   0.759  11.657 -0.3123  1.1923 -1.8201
 5445TIP3   OH237749   1.084   2.690  14.877  0.0118  0.2518  0.1235
 5445TIP3    H137750   1.112   2.604  14.847 -1.6647 -0.7678  1.3380
 5445TIP3    H237751   1.164   2.742  14.877  1.2678 -1.5855  0.3218
 5446TIP3   OH237752   0.732   5.155  10.224  0.7256 -0.1910 -0.3934
 5446TIP3    H137753   0.665   5.091  10.198 -0.3510  0.5214  0.5454
 5446TIP3    H237754   0.803   5.102  10.261  1.1814 -1.0338 -2.3339
 5447TIP3   OH237755   2.921   4.456  11.385 -0.8905 -0.3386 -0.2995
 5447TIP3    H137756   2.959   4.413  11.462  0.7688 -2.5453 -2.2214
 5447TIP3    H237757   2.843   4.500  11.418 -0.8905 -2.1830  2.4137
 5448TIP3   OH237758   1.238   3.412  13.117 -0.1533  0.0687 -0.0804
 5448TIP3    H137759   1.326   3.449  13.113 -0.4119  0.9680  1.5284
 5448TIP3    H237760   1.240   3.354  13.193 -0.9359  0.0867 -0.0350
 5449TIP3   OH237761   6.842   2.405   0.947  0.4834  0.9459  1.0867
 5449TIP3    H137762   6.758   2.411   0.902  0.2397 -0.0384  1.4000
 5449TIP3    H237763   6.907   2.405   0.876  0.0293 -2.3857  0.5383
 5450TIP3   OH237764   3.082   2.034  11.484 -0.0922 -0.0314  0.0926
 5450TIP3    H137765   3.093   2.114  11.535 -0.7495 -0.7571  1.4262
 5450TIP3    H237766   3.040   2.063  11.403  0.8459  1.1266 -0.0112
 5451TIP3   OH237767   2.196   2.208   2.084 -0.3157 -0.5171  0.1402
 5451TIP3    H137768   2.237   2.123   2.070  1.5474  0.4707 -0.7583
 5451TIP3    H237769   2.254   2.253   2.146 -0.6261  0.5169 -0.2922
 5452TIP3   OH237770   0.303   6.632  12.482  0.6340 -0.2800 -0.6133
 5452TIP3    H137771   0.260   6.666  12.561  2.5372 -1.1404  0.8701
 5452TIP3    H237772   0.342   6.709  12.441  1.6585 -0.1068  0.6226
 5453TIP3   OH237773   2.260   1.612  12.270 -0.0953  0.4061  0.4141
 5453TIP3    H137774   2.175   1.656  12.269 -0.4502 -0.2054 -1.2478
 5453TIP3    H237775   2.324   1.683  12.277 -0.7025  1.0600 -0.4307
 5454TIP3   OH237776   5.400   5.621  12.815  0.2953 -0.5664  0.3040
 5454TIP3    H137777   5.313   5.633  12.777 -0.0024 -1.6508  0.6145
 5454TIP3    H237778   5.384   5.583  12.901  1.0644 -0.3890  0.5374
 5455TIP3   OH237779   2.747   0.776  13.742 -0.5068  0.1862 -0.7020
 5455TIP3    H137780   2.785   0.851  13.786 -1.9659 -0.1153  1.1807
 5455TIP3    H237781   2.661   0.806  13.712 -0.6649 -0.4294 -0.8897
 5456TIP3   OH237782   2.848   6.322   4.525  0.0077 -0.1320 -0.1598
 5456TIP3    H137783   2.788   6.324   4.450 -0.0115 -1.2059 -0.1965
 5456TIP3    H237784   2.928   6.284   4.490  0.2391  0.0220  0.2047
 5457TIP3   OH237785   2.846   3.248  10.357  0.3476  0.1136  0.0013
 5457TIP3    H137786   2.891   3.287  10.282  0.0280  0.0873 -0.2061
 5457TIP3    H237787   2.909   3.255  10.429 -0.0626  1.9348  0.2388
 5458TIP3   OH237788   1.075   0.320  15.042 -0.5379 -0.4087 -0.2467
 5458TIP3    H137789   1.128   0.343  14.965 -0.5157  1.6191  0.3139
 5458TIP3    H237790   1.058   0.226  15.032  0.4481 -0.4449 -2.1033
 5459TIP3   OH237791   1.258   0.645  12.711  0.3067  0.7553  0.4754
 5459TIP3    H137792   1.272   0.660  12.618  0.7473 -0.5927  0.3112
 5459TIP3    H237793   1.195   0.712  12.737 -1.5561 -0.2314 -1.2735
 5460TIP3   OH237794   5.171   0.551  11.240 -0.4415 -0.3362 -0.2844
 5460TIP3    H137795   5.188   0.560  11.146 -0.4321 -1.1471 -0.3639
 5460TIP3    H237796   5.086   0.508  11.245  0.4681 -2.1664  0.0488
 5461TIP3   OH237797   3.863   5.598  14.580 -0.0399 -0.4351  0.3927
 5461TIP3    H137798   3.827   5.581  14.666 -0.0969  0.2131  0.5020
 5461TIP3    H237799   3.861   5.514  14.536 -0.7540 -0.6117  0.7478
 5462TIP3   OH237800   3.146   4.374  13.622 -0.1432  0.6168 -0.2931
 5462TIP3    H137801   3.058   4.342  13.643 -0.4404  1.3292 -0.4228
 5462TIP3    H237802   3.131   4.460  13.583  0.6603  1.0471  0.3330
 5463TIP3   OH237803   3.949   2.266  10.756  0.0406  0.0619 -0.0184
 5463TIP3    H137804   3.965   2.176  10.725 -3.9939 -1.0966  0.7131
 5463TIP3    H237805   3.933   2.316  10.676 -0.6879 -0.6100 -0.3049
 5464TIP3   OH237806   4.231   4.224   1.911  0.3058  0.1017  0.2029
 5464TIP3    H137807   4.210   4.244   2.002  1.6419  0.2438  0.5134
 5464TIP3    H237808   4.316   4.267   1.897 -0.9239  2.0871 -1.8293
 5465TIP3   OH237809   0.492   3.819   1.048 -0.6095 -0.2324  0.0402
 5465TIP3    H137810   0.516   3.735   1.008 -0.4774 -0.5492  0.7622
 5465TIP3    H237811   0.570   3.845   1.097 -0.5921  0.4030 -0.3189
 5466TIP3   OH237812   0.905   3.137   3.671 -0.4414 -0.1817  0.3804
 5466TIP3    H137813   0.951   3.219   3.654 -0.2363 -0.6005 -1.2373
 5466TIP3    H237814   0.970   3.069   3.653 -0.6713 -0.7130  1.5052
 5467TIP3   OH237815   7.002   1.806  11.986 -0.1931  0.7474 -0.7330
 5467TIP3    H137816   7.054   1.771  11.914  0.1161 -3.3718  1.2194
 5467TIP3    H237817   6.915   1.821  11.947  0.4599  0.5930 -2.3499
 5468TIP3   OH237818   0.771   6.519   9.823 -0.8837  0.2861 -0.0319
 5468TIP3    H137819   0.804   6.464   9.752 -1.5676  0.7752 -0.7467
 5468TIP3    H237820   0.723   6.458   9.880  1.7374 -0.5754  1.4392
 5469TIP3   OH237821   2.475   5.610   1.263  0.8359  0.4333  0.2799
 5469TIP3    H137822   2.494   5.592   1.171  2.7979 -0.1561  0.7392
 5469TIP3    H237823   2.392   5.566   1.280  0.9934 -0.3772 -0.9605
 5470TIP3   OH237824   5.087   4.900  13.089  0.3082 -0.5063  0.4678
 5470TIP3    H137825   4.992   4.905  13.079  0.3165 -0.9134  0.0999
 5470TIP3    H237826   5.102   4.896  13.183 -0.0755 -0.9097  0.5172
 5471TIP3   OH237827   0.650   1.084  10.100 -0.2946  0.3454  0.2630
 5471TIP3    H137828   0.743   1.066  10.111 -0.3545  0.0306  0.2480
 5471TIP3    H237829   0.615   1.085  10.189 -0.2494  0.6229  0.2793
 5472TIP3   OH237830   5.958   5.952   4.809 -0.0625 -0.5962  0.3943
 5472TIP3    H137831   5.925   5.889   4.745 -0.5615 -1.0003  1.0312
 5472TIP3    H237832   5.952   6.037   4.765  1.5427 -1.0617 -0.8462
 5473TIP3   OH237833   3.865   4.432  10.142  0.0562  0.0550 -0.1617
 5473TIP3    H137834   3.951   4.453  10.179  0.0464 -0.1622 -0.0109
 5473TIP3    H237835   3.880   4.420  10.049  0.5554 -1.8966  0.1313
 5474TIP3   OH237836   6.076   6.364  11.377  0.1570  0.1343  0.5198
 5474TIP3    H137837   6.033   6.308  11.441  1.2338 -0.7062  0.5364
 5474TIP3    H237838   6.114   6.303  11.314 -1.9721  0.9243 -1.7208
 5475TIP3   OH237839   4.919   0.150  14.962 -0.1156 -0.2209  0.0871
 5475TIP3    H137840   4.904   0.104  15.045  0.9577  1.3389  1.1891
 5475TIP3    H237841   4.896   0.085  14.895 -3.5767 -0.6917  1.5223
 5476TIP3   OH237842   0.551   2.778   2.454  0.1970  0.3578 -0.3526
 5476TIP3    H137843   0.499   2.806   2.379 -0.8543 -2.6989 -0.9122
 5476TIP3    H237844   0.632   2.742   2.416 -0.3381 -1.2093 -0.0939
 5477TIP3   OH237845   6.233   2.462  12.087 -0.4165  0.0269 -0.3977
 5477TIP3    H137846   6.256   2.372  12.111 -0.8307 -0.2237 -0.9221
 5477TIP3    H237847   6.222   2.459  11.992  1.2804  1.0193 -0.6648
 5478TIP3   OH237848   5.697   1.832   0.913 -0.7975 -0.1434 -0.4494
 5478TIP3    H137849   5.679   1.897   0.980  0.4531 -0.9947  0.7924
 5478TIP3    H237850   5.755   1.877   0.851 -0.6609  0.1896 -0.0854
 5479TIP3   OH237851   0.772   2.815  13.281 -0.0819 -0.1239 -0.2704
 5479TIP3    H137852   0.791   2.844  13.191 -0.5354 -0.0997 -0.3576
 5479TIP3    H237853   0.737   2.727  13.271  0.9361 -0.5726 -0.0308
 5480TIP3   OH237854   1.648   1.724  11.823  0.0929  0.0102 -0.5977
 5480TIP3    H137855   1.726   1.690  11.779 -0.7096 -0.9030 -1.3424
 5480TIP3    H237856   1.632   1.809  11.782  0.5576  0.1044 -0.5897
 5481TIP3   OH237857   2.080   4.687   0.583  0.4055  0.2866  0.2152
 5481TIP3    H137858   1.998   4.718   0.621 -0.0384  0.2516 -0.6880
 5481TIP3    H237859   2.097   4.746   0.510  0.3159 -0.6824 -0.6207
 5482TIP3   OH237860   3.704   2.679  11.749  0.3667  0.4451  0.3216
 5482TIP3    H137861   3.618   2.645  11.724  0.8048  0.6541 -1.5716
 5482TIP3    H237862   3.738   2.613  11.810  0.4795 -1.7444 -1.9346
 5483TIP3   OH237863   1.385   1.803  10.998 -0.1565  0.2305  0.0803
 5483TIP3    H137864   1.334   1.757  10.931 -0.2340 -0.3321  0.5267
 5483TIP3    H237865   1.336   1.789  11.079  0.1410  0.5931  0.3228
 5484TIP3   OH237866   7.161   5.788  13.723 -0.4247 -0.1304  0.0319
 5484TIP3    H137867   7.076   5.752  13.695 -1.7035  1.6113  1.4547
 5484TIP3    H237868   7.144   5.881  13.737  1.1182 -0.1504  2.5564
 5485TIP3   OH237869   1.216   2.003   2.493 -0.3238 -0.0065 -0.1373
 5485TIP3    H137870   1.210   1.964   2.580 -0.0134  2.1157  0.8878
 5485TIP3    H237871   1.126   2.005   2.461 -0.3435 -1.6003 -0.2915
 5486TIP3   OH237872   1.152   5.873   3.340 -0.1455  0.1217 -0.2221
 5486TIP3    H137873   1.127   5.873   3.248  0.8603 -1.5901 -0.5260
 5486TIP3    H237874   1.070   5.858   3.388 -0.6881  1.1330 -0.8007
 5487TIP3   OH237875   6.020   1.149   3.267  0.3772 -0.1448  0.1814
 5487TIP3    H137876   5.999   1.089   3.338 -0.0066 -0.6850 -0.3724
 5487TIP3    H237877   5.941   1.202   3.256 -0.2417 -1.2604 -1.0012
 5488TIP3   OH237878   5.645   3.133   4.390 -0.0554  0.2718 -0.0329
 5488TIP3    H137879   5.709   3.165   4.453 -0.5168  1.4232 -0.1303
 5488TIP3    H237880   5.695   3.123   4.309 -0.1521  2.0277 -0.3454
 5489TIP3   OH237881   3.796   6.252  13.192  0.1861 -0.3283  0.1977
 5489TIP3    H137882   3.792   6.233  13.286  0.1052 -0.2182  0.2159
 5489TIP3    H237883   3.704   6.249  13.163  0.2614 -0.9281  0.0114
 5490TIP3   OH237884   1.745   6.397   1.125 -0.0276 -0.7463  0.4877
 5490TIP3    H137885   1.693   6.322   1.154 -0.8759 -0.4607 -0.2702
 5490TIP3    H237886   1.768   6.378   1.035 -1.5600  0.5708 -0.2290
 5491TIP3   OH237887   4.798   3.466  10.072 -0.5197 -0.3019  0.0767
 5491TIP3    H137888   4.889   3.441  10.055 -0.9067 -1.2673 -0.6563
 5491TIP3    H237889   4.801   3.561  10.087  0.3953 -0.0495 -1.5533
 5492TIP3   OH237890   4.553   6.754  14.309  0.1435 -0.5056  0.0407
 5492TIP3    H137891   4.648   6.743  14.317  0.0403 -1.0362  0.7385
 5492TIP3    H237892   4.530   6.813  14.380  0.1349  0.9008 -1.0923
 5493TIP3   OH237893   1.523   3.827   0.946 -0.3411  0.4515  0.2879
 5493TIP3    H137894   1.538   3.887   0.873 -0.9205  0.0596 -0.1672
 5493TIP3    H237895   1.610   3.807   0.980 -0.1985  2.8291  1.5210
 5494TIP3   OH237896   5.765   0.721  11.414  0.3814  0.1296 -0.1912
 5494TIP3    H137897   5.681   0.714  11.460  0.0967 -2.4132 -0.9388
 5494TIP3    H237898   5.825   0.668  11.466  0.8270 -0.2372 -1.0613
 5495TIP3   OH237899   4.495   5.094   5.163 -0.1524 -0.2905 -0.1883
 5495TIP3    H137900   4.487   5.074   5.070 -1.4433 -0.8048 -0.0011
 5495TIP3    H237901   4.588   5.109   5.177  0.0664 -0.2473 -1.5493
 5496TIP3   OH237902   3.294   4.196  12.511 -0.0457 -0.3429  0.2458
 5496TIP3    H137903   3.370   4.187  12.570  0.5899  0.1283 -0.4860
 5496TIP3    H237904   3.269   4.288  12.519  1.6597  0.4262 -2.1106
 5497TIP3   OH237905   1.856   6.092  12.554  0.3314  0.1503 -0.7889
 5497TIP3    H137906   1.765   6.066  12.573  0.5310  0.3354  0.5173
 5497TIP3    H237907   1.873   6.057  12.467 -0.9141 -0.1081 -0.9500
 5498TIP3   OH237908   5.188   1.621  13.008  0.3652 -0.4193 -0.3338
 5498TIP3    H137909   5.256   1.553  12.997  2.0674  1.0455  0.5555
 5498TIP3    H237910   5.142   1.623  12.924  1.5323 -1.3684 -1.0283
 5499TIP3   OH237911   2.075   2.250  10.705  0.7315  0.8088  0.0664
 5499TIP3    H137912   2.037   2.257  10.618 -0.7276 -1.0657  0.4785
 5499TIP3    H237913   2.168   2.267  10.692  0.2715  2.4697 -1.5047
 5500TIP3   OH237914   5.210   4.606   1.358  0.3825 -0.4297  0.2198
 5500TIP3    H137915   5.205   4.627   1.451 -2.0844  0.7411 -0.0998
 5500TIP3    H237916   5.234   4.688   1.316  0.4482 -0.6868 -0.2499
 5501TIP3   OH237917   1.794   5.808  13.315 -0.5984 -0.1501 -0.1855
 5501TIP3    H137918   1.854   5.878  13.289  1.2790 -2.0720 -1.3407
 5501TIP3    H237919   1.801   5.805  13.411  0.2943  0.3864 -0.2182
 5502TIP3   OH237920   5.964   5.496   0.704  0.0526 -0.1598 -0.0388
 5502TIP3    H137921   5.945   5.402   0.701  0.8197 -0.3210  0.0590
 5502TIP3    H237922   6.001   5.516   0.618  0.9736 -0.1880  0.3441
 5503TIP3   OH237923   3.228   2.122  10.154  0.7925  0.9960  0.1925
 5503TIP3    H137924   3.214   2.160  10.241 -2.3176 -0.0500  0.2781
 5503TIP3    H237925   3.181   2.180  10.094 -1.7805 -1.0752  0.0079
 5504TIP3   OH237926   0.836   0.234   0.726 -0.1014 -0.3159  0.1820
 5504TIP3    H137927   0.743   0.215   0.709 -0.5408  0.2582  1.7649
 5504TIP3    H237928   0.862   0.292   0.654 -0.8936 -0.6866 -0.4188
 5505TIP3   OH237929   6.466   2.388  14.459 -0.2200  0.5243 -0.5118
 5505TIP3    H137930   6.378   2.385  14.420 -1.2800 -0.6251  1.7237
 5505TIP3    H237931   6.525   2.371  14.387 -1.8319  1.2326 -2.0888
 5506TIP3   OH237932   0.336   0.956  15.162 -0.2319  0.2001  0.3836
 5506TIP3    H137933   0.362   1.044  15.187  2.4627  0.6265 -3.1007
 5506TIP3    H237934   0.419   0.910  15.147 -1.4512 -1.2433 -2.8105
 5507TIP3   OH237935   0.110   5.907  14.159 -0.5342  0.9201 -0.0293
 5507TIP3    H137936   0.110   5.987  14.108  0.7288  1.5584  0.9030
 5507TIP3    H237937   0.155   5.843  14.103  1.6291  1.8465  0.5540
 5508TIP3   OH237938   0.133   3.675   0.709  0.2292 -0.1607  0.2580
 5508TIP3    H137939   0.177   3.703   0.788 -1.3309 -0.3181  1.2287
 5508TIP3    H237940   0.191   3.609   0.670  1.3250  0.4155  0.8779
 5509TIP3   OH237941   1.827   6.015  10.935 -0.0143 -0.0642 -0.4437
 5509TIP3    H137942   1.903   5.999  10.880 -0.2475 -0.7285 -0.5891
 5509TIP3    H237943   1.754   6.021  10.873 -0.1495  0.0811 -0.2702
 5510TIP3   OH237944   6.267   0.195  12.499  0.1733 -0.0829 -0.1604
 5510TIP3    H137945   6.174   0.207  12.516  0.0500 -1.7975  0.6431
 5510TIP3    H237946   6.297   0.279  12.464 -1.5713  0.6287 -0.0283
 5511TIP3   OH237947   5.817   3.039   4.170 -0.1816  0.0529 -0.0463
 5511TIP3    H137948   5.850   3.115   4.122  0.1520 -0.5487 -0.7902
 5511TIP3    H237949   5.870   2.966   4.139  1.0644 -0.1524  2.3305
 5512TIP3   OH237950   2.210   4.323   1.607  0.3449  0.3536 -0.3217
 5512TIP3    H137951   2.167   4.296   1.526  1.6905 -1.0957 -0.5810
 5512TIP3    H237952   2.188   4.416   1.615 -1.2167  0.1247 -1.4356
 5513TIP3   OH237953   1.064   2.643  12.831 -0.1186  0.4567  0.0809
 5513TIP3    H137954   0.977   2.622  12.863 -0.6868  1.2983 -0.8728
 5513TIP3    H237955   1.116   2.657  12.911 -0.9510  0.3959  0.6486
 5514TIP3   OH237956   0.727   5.586  13.344  0.5795  0.1185  0.2429
 5514TIP3    H137957   0.723   5.672  13.301  0.0875  0.2750  0.5919
 5514TIP3    H237958   0.821   5.570  13.356  0.7760 -0.2842 -1.5747
 5515TIP3   OH237959   2.760   3.637  11.357  0.1162 -0.0254  0.5075
 5515TIP3    H137960   2.767   3.726  11.323  0.8665 -0.0279  0.6433
 5515TIP3    H237961   2.776   3.645  11.451 -2.1207  0.0031  0.9399
 5516TIP3   OH237962   2.413   4.724  13.901  0.3689 -0.0768 -0.4655
 5516TIP3    H137963   2.319   4.738  13.909  0.6501  1.5059  0.5200
 5516TIP3    H237964   2.432   4.656  13.966  0.0358  0.2616 -0.0052
 5517TIP3   OH237965   6.505   6.067   1.492 -0.3101  0.4212  0.2003
 5517TIP3    H137966   6.445   6.097   1.424 -2.2623 -0.2946  1.4900
 5517TIP3    H237967   6.566   6.008   1.447  0.0085  1.8669 -1.3126
 5518TIP3   OH237968   6.064   4.397  11.935  0.2821  0.3835  0.4905
 5518TIP3    H137969   5.978   4.364  11.960  0.0889  1.0742  0.7402
 5518TIP3    H237970   6.072   4.374  11.842  0.4584 -1.0103  0.8253
 5519TIP3   OH237971   3.889   2.988  15.379 -0.1963 -0.0904 -0.1366
 5519TIP3    H137972   3.930   3.060  15.428 -0.1519 -1.2574  1.6091
 5519TIP3    H237973   3.937   2.985  15.296 -0.3016  1.9689 -0.3392
 5520TIP3   OH237974   0.768   6.368  13.492 -0.2640 -0.3047  0.1473
 5520TIP3    H137975   0.811   6.328  13.568 -0.6415  0.2213  0.6465
 5520TIP3    H237976   0.787   6.462  13.501 -1.1172 -0.1262  0.1165
 5521TIP3   OH237977   0.463   2.463  13.149  0.8051 -0.2792 -0.9043
 5521TIP3    H137978   0.442   2.532  13.211  1.2171  0.2023 -1.2871
 5521TIP3    H237979   0.403   2.478  13.076 -0.0707 -1.1909 -0.3861
 5522TIP3   OH237980   0.584   0.389   5.132  0.3895 -0.2491 -0.3316
 5522TIP3    H137981   0.662   0.343   5.102  1.5556  1.3265  0.1381
 5522TIP3    H237982   0.563   0.349   5.216  0.8488 -0.5124 -0.3419
 5523TIP3   OH237983   1.849   0.612   0.359  0.0300  0.0904  0.3765
 5523TIP3    H137984   1.854   0.522   0.325 -0.0273  0.5060 -0.7789
 5523TIP3    H237985   1.879   0.666   0.286  3.4761  0.8359  2.1272
 5524TIP3   OH237986   3.456   4.548  10.584 -0.2800 -0.0391 -0.0063
 5524TIP3    H137987   3.379   4.603  10.589 -0.6420 -0.6224  3.1070
 5524TIP3    H237988   3.529   4.606  10.608 -0.0898 -0.0320 -0.5901
 5525TIP3   OH237989   0.190   4.363  12.028  0.2218 -0.3813  0.9022
 5525TIP3    H137990   0.124   4.294  12.031 -2.8946  2.0135 -2.5142
 5525TIP3    H237991   0.143   4.442  12.056  1.8752  1.3088 -0.7442
 5526TIP3   OH237992   5.470   5.816  10.563 -0.1280 -0.0425  0.9823
 5526TIP3    H137993   5.394   5.775  10.603 -0.6043  0.4893  0.6374
 5526TIP3    H237994   5.447   5.823  10.470  0.3833  0.0199  0.8579
 5527TIP3   OH237995   0.073   3.298  12.978  0.3499  0.0021  0.2568
 5527TIP3    H137996   0.008   3.324  12.913  2.2501  0.7410 -1.4865
 5527TIP3    H237997   0.125   3.377  12.992  0.4548 -0.3656  2.1436
 5528TIP3   OH237998   2.344   3.559   1.170  0.0828 -0.7314  0.3749
 5528TIP3    H137999   2.266   3.610   1.190  0.6743  0.3994 -0.1381
 5528TIP3    H238000   2.313   3.489   1.113 -0.5945 -0.4530  0.3925
 5529TIP3   OH238001   5.759   4.964  10.580  0.8821 -0.1497  0.1329
 5529TIP3    H138002   5.806   4.953  10.497  1.5223  0.7018  0.3713
 5529TIP3    H238003   5.785   5.050  10.611 -0.2387  0.0144  0.6666
 5530TIP3   OH238004   0.276   2.476   3.633  0.2254 -1.1154 -0.0786
 5530TIP3    H138005   0.258   2.514   3.547 -1.4066  0.2114  0.7734
 5530TIP3    H238006   0.227   2.394   3.634  0.2576 -1.1364 -0.4328
 5531TIP3   OH238007   4.205   4.677  12.413 -0.0763  0.6918  0.5322
 5531TIP3    H138008   4.214   4.732  12.335  0.9308  1.0915  0.9211
 5531TIP3    H238009   4.134   4.617  12.391  1.9919 -1.0990 -1.8535
 5532TIP3   OH238010   2.050   3.402   1.308  0.7429  0.1219  0.2361
 5532TIP3    H138011   1.993   3.335   1.344  1.9262  0.1980  2.4472
 5532TIP3    H238012   2.050   3.386   1.214 -3.2601  0.4754  0.0166
 5533TIP3   OH238013   1.646   5.914  11.623 -0.3237 -0.1603 -0.0292
 5533TIP3    H138014   1.739   5.926  11.603 -0.1779  0.4128  0.9027
 5533TIP3    H238015   1.645   5.885  11.715 -1.0551 -0.3100 -0.0772
 5534TIP3   OH238016   4.102   2.917   1.820 -0.1319 -0.3257  0.4266
 5534TIP3    H138017   4.131   3.007   1.830  2.8327 -1.0318 -0.7951
 5534TIP3    H238018   4.077   2.910   1.728  1.6577 -1.2071 -0.0288
 5535TIP3   OH238019   5.579   2.628  15.395  0.4828  0.5184 -0.0700
 5535TIP3    H138020   5.559   2.686  15.469 -1.5338 -0.5707  0.3277
 5535TIP3    H238021   5.615   2.549  15.436 -1.1174 -0.2914 -0.1616
 5536TIP3   OH238022   1.789   0.989   4.422 -0.1471  0.1626  0.3529
 5536TIP3    H138023   1.742   0.978   4.339  0.4102  0.4500 -0.0025
 5536TIP3    H238024   1.831   1.075   4.415  1.5190 -0.6348  0.1173
 5537TIP3   OH238025   4.210   5.872  12.698  0.0472 -0.0239  0.0302
 5537TIP3    H138026   4.157   5.819  12.758 -0.5531  1.7992  1.2033
 5537TIP3    H238027   4.155   5.947  12.677  0.7149 -0.0163 -1.9017
 5538TIP3   OH238028   3.631   5.880   9.759  0.5761 -0.4659 -0.1133
 5538TIP3    H138029   3.704   5.822   9.782  0.5676 -1.1154 -1.6366
 5538TIP3    H238030   3.556   5.842   9.805  0.1714 -2.8422 -2.4802
 5539TIP3   OH238031   0.379   5.261   2.305  0.3151  0.3202  0.3403
 5539TIP3    H138032   0.451   5.206   2.337  0.0808  0.0121  0.3399
 5539TIP3    H238033   0.372   5.239   2.213  0.1795  0.3078  0.3540
 5540TIP3   OH238034   5.579   2.663  13.416  0.0504  0.0361  0.4518
 5540TIP3    H138035   5.626   2.741  13.389 -0.4431 -0.6163 -2.6410
 5540TIP3    H238036   5.646   2.608  13.458  1.2925  0.5086 -0.8519
 5541TIP3   OH238037   1.860   2.560  14.822 -0.6889 -0.5999  0.1372
 5541TIP3    H138038   1.940   2.544  14.773 -1.0557  1.3824 -1.2126
 5541TIP3    H238039   1.890   2.574  14.912  0.1829 -2.3455  0.1639
 5542TIP3   OH238040   1.774   0.427  14.439  0.0994 -0.0255  0.1246
 5542TIP3    H138041   1.712   0.500  14.441  1.3043  1.0080  1.3264
 5542TIP3    H238042   1.759   0.382  14.522 -0.1569 -0.7569 -0.3113
 5543TIP3   OH238043   1.241   0.607  15.315 -0.5002  0.2551 -0.6802
 5543TIP3    H138044   1.197   0.667  15.374  0.3655 -1.3406  1.7262
 5543TIP3    H238045   1.186   0.528  15.314  1.0844 -0.9492  0.6770
 5544TIP3   OH238046   1.564   7.162  11.851 -0.0435  0.4207 -0.1005
 5544TIP3    H138047   1.499   7.120  11.794  1.9727 -0.5067 -1.8694
 5544TIP3    H238048   1.537   7.139  11.940  0.0291 -3.3867 -0.8904
 5545TIP3   OH238049   1.313   6.308   4.116  0.3278  0.1332 -0.3945
 5545TIP3    H138050   1.222   6.323   4.144  0.5923 -0.6293  0.9881
 5545TIP3    H238051   1.363   6.377   4.160  0.5573 -0.1806 -0.1507
 5546TIP3   OH238052   3.020   0.795  11.952 -0.1664 -0.2645 -0.4996
 5546TIP3    H138053   2.964   0.789  11.875  0.0676 -1.5161 -0.5892
 5546TIP3    H238054   3.103   0.829  11.919 -0.6571  1.0193 -0.4657
 5547TIP3   OH238055   1.880   1.756  14.883 -0.0163 -0.0888  0.0850
 5547TIP3    H138056   1.841   1.707  14.810  1.4155 -0.7546 -0.2727
 5547TIP3    H238057   1.925   1.689  14.935  0.7549  0.6701  0.4038
 5548TIP3   OH238058   1.508   6.272  13.544 -0.2015 -0.1722 -0.0244
 5548TIP3    H138059   1.585   6.327  13.557 -0.7562  0.3293  1.4404
 5548TIP3    H238060   1.444   6.330  13.501  0.2533 -0.6203 -1.3417
 5549TIP3   OH238061   4.233   0.763  11.854  0.3174  0.0420  0.1807
 5549TIP3    H138062   4.267   0.692  11.909 -0.2058 -0.0948  0.3289
 5549TIP3    H238063   4.151   0.729  11.818  0.5823  0.1813 -0.5794
 5550TIP3   OH238064   4.988   6.956  14.608 -0.7488  0.3467 -0.2699
 5550TIP3    H138065   4.949   7.039  14.637  0.4600  0.4729  1.1535
 5550TIP3    H238066   4.964   6.893  14.676 -0.4339 -0.1137 -0.5776
 5551TIP3   OH238067   5.097   0.614  10.210 -0.1301 -0.1040 -0.0646
 5551TIP3    H138068   5.087   0.571  10.295  1.3689 -2.0970 -0.8317
 5551TIP3    H238069   5.007   0.636  10.184 -0.8641 -1.8293  0.8549
 5552TIP3   OH238070   6.397   4.220  13.512 -0.4208  0.6939 -0.2208
 5552TIP3    H138071   6.316   4.233  13.463 -0.8608  2.4180  0.8812
 5552TIP3    H238072   6.379   4.146  13.570 -0.5307 -0.1527 -1.3124
 5553TIP3   OH238073   4.370   2.517  14.571 -0.0717  0.6629 -0.2993
 5553TIP3    H138074   4.314   2.592  14.551  0.0004  0.6682 -0.4845
 5553TIP3    H238075   4.330   2.443  14.525 -1.0060  0.2595  1.1112
 5554TIP3   OH238076   4.619   3.033   0.460  0.4380  0.1072  1.0364
 5554TIP3    H138077   4.675   3.090   0.512 -0.9235  1.3740  1.1646
 5554TIP3    H238078   4.629   2.947   0.500  0.3393  0.8219  2.6492
 5555TIP3   OH238079   6.660   6.999  13.793 -0.6444  0.2518  0.2124
 5555TIP3    H138080   6.666   7.050  13.874  2.5382  1.5360 -0.6605
 5555TIP3    H238081   6.612   7.055  13.733 -2.3211 -0.3688  0.9315
 5556TIP3   OH238082   5.180   3.372  12.750  0.1086 -0.1464  0.4782
 5556TIP3    H138083   5.228   3.417  12.681  0.2040 -0.2367  0.4870
 5556TIP3    H238084   5.204   3.280  12.740  2.0032  0.1035  2.1294
 5557TIP3   OH238085   7.024   0.297  10.474  0.4952 -0.0152 -0.1929
 5557TIP3    H138086   7.006   0.302  10.380 -0.1110 -0.3482 -0.1061
 5557TIP3    H238087   7.106   0.344  10.486  1.8564 -1.9602 -1.2456
 5558TIP3   OH238088   2.700   3.337  14.899 -0.4067  0.1068 -0.0749
 5558TIP3    H138089   2.704   3.378  14.813 -0.2942  2.0006  0.7875
 5558TIP3    H238090   2.641   3.393  14.949 -2.3881 -2.2687  0.4523
 5559TIP3   OH238091   6.986   5.645  12.981  0.5568  0.0244  0.1744
 5559TIP3    H138092   7.050   5.713  12.960  0.4653 -0.4236 -1.7043
 5559TIP3    H238093   6.905   5.692  12.999  0.9453  0.4984  0.7046
 5560TIP3   OH238094   2.073   4.211  10.855 -0.1854 -0.5986 -0.4087
 5560TIP3    H138095   2.120   4.188  10.935 -0.6869 -2.1797 -0.5249
 5560TIP3    H238096   2.113   4.155  10.788 -1.2214 -0.8902 -0.8028
 5561TIP3   OH238097   1.871   5.737   0.851  0.1131 -0.2731 -0.3804
 5561TIP3    H138098   1.931   5.811   0.861  0.8295 -0.7693 -0.8691
 5561TIP3    H238099   1.929   5.661   0.843 -0.6188 -0.9823  0.7804
 5562TIP3   OH238100   3.384   4.238  14.059 -0.4269  0.7020 -0.3679
 5562TIP3    H138101   3.449   4.294  14.099 -1.9268  2.1021  0.2148
 5562TIP3    H238102   3.431   4.193  13.988  1.6100  0.1770  1.2163
 5563TIP3   OH238103   6.444   5.640  14.307  0.0243  0.5057 -0.1031
 5563TIP3    H138104   6.422   5.607  14.394  1.1925 -0.9722 -0.3257
 5563TIP3    H238105   6.370   5.615  14.252 -0.0750  0.1533  0.1881
 5564TIP3   OH238106   2.225   2.679  14.460 -0.0135 -0.1220  0.1345
 5564TIP3    H138107   2.224   2.761  14.410 -0.7710 -1.0743 -1.4865
 5564TIP3    H238108   2.310   2.640  14.441  1.3475  1.2783  2.7392
 5565TIP3   OH238109   7.045   2.074  12.067 -0.1668  0.0537  0.0787
 5565TIP3    H138110   7.061   1.997  12.013 -1.0899 -0.6913  0.8255
 5565TIP3    H238111   7.122   2.082  12.123 -1.3137 -2.2208  2.1686
 5566TIP3   OH238112   6.286   4.494   4.430 -0.0948  0.0708 -0.0610
 5566TIP3    H138113   6.327   4.512   4.515 -0.1977  0.4926 -0.0950
 5566TIP3    H238114   6.359   4.472   4.372 -0.1283 -1.3650  0.4083
 5567TIP3   OH238115   6.040   2.735  10.500  0.6995 -0.3381  0.0848
 5567TIP3    H138116   6.030   2.825  10.531 -1.2979 -0.6470  0.4256
 5567TIP3    H238117   6.119   2.738  10.445  2.2856  0.9919  2.2702
 5568TIP3   OH238118   4.728   3.997  14.209 -0.8331 -0.1754 -0.3163
 5568TIP3    H138119   4.747   4.005  14.302 -1.0800  2.2003 -0.4045
 5568TIP3    H238120   4.809   3.962  14.171 -0.7114 -1.0999  0.7404
 5569TIP3   OH238121   6.102   4.740  10.782 -0.0761 -0.0874  0.1256
 5569TIP3    H138122   6.040   4.769  10.849 -0.4501 -0.4004 -0.0843
 5569TIP3    H238123   6.141   4.822  10.750 -1.3930  0.2417 -0.7141
 5570TIP3   OH238124   6.715   5.919   2.593 -0.3065 -0.1008  0.3172
 5570TIP3    H138125   6.664   5.979   2.537  1.4518  0.1210 -1.1595
 5570TIP3    H238126   6.706   5.834   2.551  1.1091  0.0839 -0.4234
 5571TIP3   OH238127   1.468   1.002  10.230 -0.2221 -0.0744 -0.0374
 5571TIP3    H138128   1.529   1.045  10.171  0.7625  0.6263  1.4346
 5571TIP3    H238129   1.449   0.918  10.189  0.3629  0.4232 -1.3655
 5572TIP3   OH238130   1.405   5.778  13.886 -0.1372 -0.6261 -0.2170
 5572TIP3    H138131   1.378   5.865  13.915  0.9054 -0.7078  1.0465
 5572TIP3    H238132   1.382   5.720  13.958  1.3690 -1.0169 -0.0143
 5573TIP3   OH238133   0.825   0.097  15.175  0.0504  0.3162 -0.0553
 5573TIP3    H138134   0.864   0.032  15.233  1.3591  1.9123  0.9497
 5573TIP3    H238135   0.888   0.169  15.173 -1.8380  2.0770 -0.1369
 5574TIP3   OH238136   3.910   2.629  12.566  0.1340 -0.2052  0.3468
 5574TIP3    H138137   3.937   2.714  12.601 -0.9869 -1.1627  3.8835
 5574TIP3    H238138   3.985   2.601  12.513  1.5222  1.9142  1.0337
 5575TIP3   OH238139   2.821   6.320  15.393  0.0919  0.4068  0.3787
 5575TIP3    H138140   2.808   6.270  15.312 -0.0897 -0.9393  1.2211
 5575TIP3    H238141   2.912   6.352  15.386 -0.2466  1.2025 -0.8125
 5576TIP3   OH238142   0.327   2.928  12.602  0.0977  0.1254 -0.3921
 5576TIP3    H138143   0.366   2.973  12.527 -1.0719  0.9654 -0.5081
 5576TIP3    H238144   0.339   2.989  12.675  0.1711 -0.1888 -0.1357
 5577TIP3   OH238145   1.533   0.145   2.249 -0.0869  0.1319 -0.7461
 5577TIP3    H138146   1.606   0.189   2.206 -0.1973 -0.3690 -1.4746
 5577TIP3    H238147   1.548   0.157   2.343 -0.0168  1.5266 -0.9284
 5578TIP3   OH238148   0.189   5.940  13.145 -0.2876 -0.5970 -0.1913
 5578TIP3    H138149   0.245   5.863  13.155 -1.2711 -1.2454  0.4729
 5578TIP3    H238150   0.224   6.003  13.208 -0.5049 -1.1219  0.4645
 5579TIP3   OH238151   5.313   6.588  10.805 -0.1044  0.4061 -0.5126
 5579TIP3    H138152   5.289   6.495  10.798  0.0093  0.4199 -1.1542
 5579TIP3    H238153   5.280   6.627  10.724 -0.6197  1.0320 -0.0101
 5580TIP3   OH238154   0.121   3.510  13.201  0.1279  0.2984 -0.1970
 5580TIP3    H138155   0.061   3.524  13.127  0.0878 -0.4567 -0.3160
 5580TIP3    H238156   0.101   3.582  13.262 -1.9602 -0.7488  0.4476
 5581TIP3   OH238157   3.987   5.293   9.881 -0.3456 -0.3829  0.3006
 5581TIP3    H138158   3.947   5.318   9.798 -0.0520 -0.2533  0.1951
 5581TIP3    H238159   3.973   5.369   9.938  2.7348  1.1934 -0.7615
 5582TIP3   OH238160   5.287   2.799  11.575  0.0899 -0.1560 -0.1666
 5582TIP3    H138161   5.251   2.795  11.664 -0.7860  0.5934 -0.4684
 5582TIP3    H238162   5.260   2.885  11.542  1.9648  0.3441 -0.5171
 5583TIP3   OH238163   5.976   6.766  10.773  0.0709  0.1444 -0.2721
 5583TIP3    H138164   6.071   6.766  10.786  0.0556  1.3341  0.0252
 5583TIP3    H238165   5.953   6.674  10.762  1.1046 -0.2851  0.8358
 5584TIP3   OH238166   4.005   3.665  14.225  0.6126 -0.2045 -0.1974
 5584TIP3    H138167   4.089   3.668  14.271  1.1101 -0.2949 -1.0963
 5584TIP3    H238168   4.027   3.672  14.133 -0.4730  1.3722 -0.3742
 5585TIP3   OH238169   6.656   5.366  11.010  0.0217 -0.9261  0.4601
 5585TIP3    H138170   6.593   5.297  10.989 -0.7449  0.2307 -1.2089
 5585TIP3    H238171   6.606   5.448  11.003  0.8196 -0.1655  2.7419
 5586TIP3   OH238172   1.919   1.871   4.347 -0.0772 -0.1072  0.1491
 5586TIP3    H138173   1.831   1.836   4.354 -0.0962 -0.0869  0.0254
 5586TIP3    H238174   1.958   1.857   4.433 -0.7266  1.3271  0.7005
 5587TIP3   OH238175   0.786   0.838  13.838  0.0767  0.2633 -0.2201
 5587TIP3    H138176   0.739   0.910  13.881 -2.2342 -0.9197 -0.6256
 5587TIP3    H238177   0.799   0.774  13.908  1.8014  0.8472  0.0502
 5588TIP3   OH238178   1.790   0.033  13.409 -0.7139 -0.5920 -1.0284
 5588TIP3    H138179   1.842   0.085  13.470 -0.4421 -2.9604  0.9409
 5588TIP3    H238180   1.722   0.092  13.378  0.2503  1.2286  0.1719
 5589TIP3   OH238181   2.560   4.688  10.008 -0.8326  0.4061  0.1280
 5589TIP3    H138182   2.598   4.607   9.973  0.6830  1.2496 -0.2284
 5589TIP3    H238183   2.504   4.720   9.938  1.5364  1.6449 -1.3190
 5590TIP3   OH238184   5.526   7.145   4.828 -0.3247 -0.4203  0.3270
 5590TIP3    H138185   5.475   7.085   4.774  0.0364 -0.8593  0.4640
 5590TIP3    H238186   5.463   7.207   4.862 -0.4111  0.6372 -1.6079
 5591TIP3   OH238187   2.818   1.506  14.975 -0.6355 -0.6253  0.4584
 5591TIP3    H138188   2.855   1.418  14.966 -1.0754 -0.9317  1.5202
 5591TIP3    H238189   2.786   1.509  15.065  1.2320  1.3453  1.1186
 5592TIP3   OH238190   5.956   3.776  10.390 -0.3145  0.5064  0.2935
 5592TIP3    H138191   5.919   3.861  10.367 -1.0846 -0.1050 -0.7755
 5592TIP3    H238192   6.018   3.796  10.461  1.0978  2.2647 -1.3188
 5593TIP3   OH238193   5.381   5.935   1.607 -0.6355  0.2734 -0.4528
 5593TIP3    H138194   5.360   6.023   1.636 -2.9811 -0.5946  0.7150
 5593TIP3    H238195   5.386   5.941   1.511 -0.4118  1.7241 -0.3601
 5594TIP3   OH238196   2.217   0.499   0.085 -0.2071  0.2018 -0.1964
 5594TIP3    H138197   2.187   0.482   0.174 -1.9227  0.2593 -0.7275
 5594TIP3    H238198   2.265   0.581   0.090 -1.2253  0.7681  0.4946
 5595TIP3   OH238199   4.505   3.900  14.499  0.7233  0.1843 -0.3216
 5595TIP3    H138200   4.424   3.901  14.446  0.0892 -0.3615  0.6161
 5595TIP3    H238201   4.573   3.876  14.436 -0.1584 -1.4116 -0.7376
 5596TIP3   OH238202   6.680   5.695  13.190 -0.0331  0.2574 -0.1943
 5596TIP3    H138203   6.587   5.679  13.173 -0.3223 -0.6181  1.9056
 5596TIP3    H238204   6.722   5.610  13.175  0.2324  0.3400  0.0733
 5597TIP3   OH238205   1.838   4.508  12.752  0.2608 -0.0166 -0.9949
 5597TIP3    H138206   1.790   4.430  12.725 -1.2425  0.9182 -1.1051
 5597TIP3    H238207   1.778   4.581  12.736  1.6540  1.1891 -0.9783
 5598TIP3   OH238208   6.357   5.773   0.663  0.3220 -0.3027 -0.1503
 5598TIP3    H138209   6.420   5.773   0.734  0.3076 -0.1869 -0.1380
 5598TIP3    H238210   6.407   5.747   0.586 -0.2294 -3.3562  0.4032
 5599TIP3   OH238211   2.602   5.420  12.041 -0.1117  0.0697 -0.6116
 5599TIP3    H138212   2.648   5.354  11.989  0.1877  0.4734 -0.8645
 5599TIP3    H238213   2.591   5.494  11.982 -0.0899  0.3970 -0.2084
 5600TIP3   OH238214   2.094   3.673   1.236 -0.7104 -0.6047 -0.3675
 5600TIP3    H138215   2.013   3.660   1.186 -0.6409 -1.2817 -0.3057
 5600TIP3    H238216   2.095   3.602   1.300 -0.2351 -0.4006 -0.1431
 5601TIP3   OH238217   2.804   2.387   2.168  0.1469  0.0625  0.0453
 5601TIP3    H138218   2.874   2.431   2.120  0.7104 -0.4664  0.3673
 5601TIP3    H238219   2.841   2.371   2.255  1.6975 -4.9012 -1.1884
 5602TIP3   OH238220   4.349   5.543  12.038  0.3489 -0.4724  0.5946
 5602TIP3    H138221   4.311   5.533  11.951 -0.8342 -1.6622  1.2107
 5602TIP3    H238222   4.436   5.505  12.031  0.6144  0.2675 -0.2838
 5603TIP3   OH238223   4.987   0.121   2.347 -0.0046 -0.1603 -0.7586
 5603TIP3    H138224   5.071   0.081   2.369 -0.6064 -0.4352  1.2928
 5603TIP3    H238225   4.986   0.125   2.252  1.3660 -2.2485 -0.9207
 5604TIP3   OH238226   0.442   3.325  10.582  0.0799 -0.5064 -0.3056
 5604TIP3    H138227   0.362   3.282  10.610 -1.0465  0.5433 -1.7406
 5604TIP3    H238228   0.438   3.324  10.486  1.4526  0.1661 -0.4014
 5605TIP3   OH238229   3.456   0.794  11.335 -0.6797  0.3889 -0.1592
 5605TIP3    H138230   3.378   0.802  11.391 -0.6626 -0.0078 -0.0791
 5605TIP3    H238231   3.424   0.813  11.247 -0.7891  0.6083 -0.0726
 5606TIP3   OH238232   5.222   0.513  13.329  0.4751  0.5099  0.1079
 5606TIP3    H138233   5.220   0.419  13.349  0.2203  0.1107 -1.7070
 5606TIP3    H238234   5.314   0.531  13.309  0.3971  0.5086 -0.2413
 5607TIP3   OH238235   5.693   5.121   9.435 -0.3354 -0.2270 -0.1290
 5607TIP3    H138236   5.786   5.097   9.429 -0.1616  0.4561 -0.2729
 5607TIP3    H238237   5.646   5.039   9.420  0.2428 -1.0156  1.9519
 5608TIP3   OH238238   2.912   1.071  11.151  0.1628  0.0400  1.0541
 5608TIP3    H138239   2.866   1.091  11.232  1.4116  1.5535  1.4344
 5608TIP3    H238240   2.974   1.143  11.140  0.9465 -0.8220 -0.5535
 5609TIP3   OH238241   4.608   0.418   1.950 -0.2024  0.3279 -0.0344
 5609TIP3    H138242   4.619   0.512   1.934 -1.0642  0.5174  0.4439
 5609TIP3    H238243   4.643   0.405   2.038  1.7338 -0.1771 -0.8122
 5610TIP3   OH238244   3.862   4.583  10.419  0.0856 -0.0370 -0.6440
 5610TIP3    H138245   3.865   4.658  10.479 -2.2249  0.3052 -0.8631
 5610TIP3    H238246   3.953   4.560  10.405  0.7871  1.5312  0.9410
 5611TIP3   OH238247   2.913   2.450  12.486  0.5211 -0.0675  0.0964
 5611TIP3    H138248   2.957   2.369  12.510  0.8570 -0.0879 -0.5579
 5611TIP3    H238249   2.829   2.446  12.531 -0.6888 -2.1171 -2.1061
 5612TIP3   OH238250   0.902   3.773   3.890 -0.1802  0.0778  0.4052
 5612TIP3    H138251   0.879   3.865   3.899  0.5227  0.2299  0.7069
 5612TIP3    H238252   0.897   3.738   3.979  0.5630  0.0765  0.4551
 5613TIP3   OH238253   6.649   2.018   5.225  0.4643  0.0662  0.4065
 5613TIP3    H138254   6.709   2.034   5.152  2.1084 -1.6405  1.3207
 5613TIP3    H238255   6.603   1.938   5.201  1.8904 -1.1993  1.7249
 5614TIP3   OH238256   0.045   7.080   3.309  0.4454 -0.1043  0.1104
 5614TIP3    H138257   0.088   7.020   3.371  0.6876 -0.3253 -0.2672
 5614TIP3    H238258  -0.046   7.084   3.339  0.5540 -0.2351  0.4631
 5615TIP3   OH238259   3.795   3.101   1.808 -0.4214 -0.3556  0.2633
 5615TIP3    H138260   3.861   3.155   1.851 -0.2872  0.1102 -0.5173
 5615TIP3    H238261   3.793   3.021   1.860  0.2496 -0.0959  0.7083
 5616TIP3   OH238262   4.346   3.846   1.657 -0.1784 -0.2246 -0.5043
 5616TIP3    H138263   4.252   3.837   1.641 -0.2029 -1.2009  0.1253
 5616TIP3    H238264   4.375   3.910   1.593 -1.3894  0.5621 -0.2997
 5617TIP3   OH238265   1.727   6.135   1.280 -0.1756  0.1979  0.5034
 5617TIP3    H138266   1.718   6.193   1.355  0.0152  1.0165 -0.0981
 5617TIP3    H238267   1.756   6.052   1.317  0.4938  0.7701  1.2686
 5618TIP3   OH238268   6.464   2.291   9.507  0.0378 -0.0424  0.3446
 5618TIP3    H138269   6.520   2.340   9.568 -1.2269  2.3616 -0.2931
 5618TIP3    H238270   6.378   2.291   9.549 -0.5824  0.6313 -0.8740
 5619TIP3   OH238271   3.681   1.386   9.913 -0.1610  0.2819 -0.4195
 5619TIP3    H138272   3.645   1.305   9.878 -1.2242 -0.2228  1.6783
 5619TIP3    H238273   3.739   1.358   9.984  0.4872  1.3045 -0.5245
 5620TIP3   OH238274   1.655   2.642   1.391  0.0479 -0.0137  0.1591
 5620TIP3    H138275   1.751   2.643   1.385  0.0971  3.3832 -1.0695
 5620TIP3    H238276   1.636   2.696   1.468 -0.9227 -1.0963  0.7024
 5621TIP3   OH238277   7.080   0.082   9.646  0.3602  0.1555 -0.0154
 5621TIP3    H138278   7.028   0.017   9.599  1.0688 -1.1116  0.9078
 5621TIP3    H238279   7.162   0.086   9.597  0.1654  0.6827 -0.3109
 5622TIP3   OH238280   5.890   4.321   0.275  0.0577  0.8682 -1.0400
 5622TIP3    H138281   5.858   4.389   0.215  1.4899  1.5923 -1.0045
 5622TIP3    H238282   5.956   4.273   0.224  2.2645  2.3226  0.3214
 5623TIP3   OH238283   0.566   2.524  10.853 -0.2672  0.1452 -0.3123
 5623TIP3    H138284   0.556   2.429  10.841  0.1023  0.1064 -0.3244
 5623TIP3    H238285   0.497   2.562  10.799 -1.0189 -0.1411  0.4172
 5624TIP3   OH238286   6.137   6.003   9.821  1.1575  0.5230  0.3263
 5624TIP3    H138287   6.225   6.040   9.816  0.9565  0.8511 -3.1832
 5624TIP3    H238288   6.131   5.946   9.744 -1.4921 -0.0338  0.8525
 5625TIP3   OH238289   1.860   6.120  11.793 -0.4701  0.1393 -0.4205
 5625TIP3    H138290   1.766   6.131  11.808 -0.0225  1.2837  2.1736
 5625TIP3    H238291   1.889   6.206  11.761 -0.1461  0.0969 -0.2422
 5626TIP3   OH238292   1.737   0.170   2.686  0.2043  0.0832 -0.0752
 5626TIP3    H138293   1.645   0.155   2.706  0.2729 -1.0502 -0.5204
 5626TIP3    H238294   1.784   0.136   2.762  0.2571  0.7868  0.2128
 5627TIP3   OH238295   1.875   5.966  15.134 -0.0615 -0.3474 -0.5827
 5627TIP3    H138296   1.883   5.909  15.211  0.0506 -1.2226 -1.2214
 5627TIP3    H238297   1.940   6.035  15.148 -3.6481  2.8133  2.7845
 5628TIP3   OH238298   2.738   3.824  13.115  0.1254 -0.1185  0.2731
 5628TIP3    H138299   2.727   3.826  13.210  0.2782 -1.3374  0.3384
 5628TIP3    H238300   2.671   3.883  13.081  0.0880  0.3413  1.1379
 5629TIP3   OH238301   5.184   5.974   0.492 -0.0786  0.7351 -0.0403
 5629TIP3    H138302   5.178   6.019   0.408  1.2580 -0.2931 -0.7207
 5629TIP3    H238303   5.274   5.988   0.521  0.2875 -1.1526 -0.1215
 5630TIP3   OH238304   0.691   1.543  13.892 -0.1816 -0.4623  0.1131
 5630TIP3    H138305   0.750   1.542  13.816 -0.4199 -0.8400 -0.0652
 5630TIP3    H238306   0.748   1.569  13.965 -0.1000  0.6445 -0.3128
 5631TIP3   OH238307   5.198   1.085  11.770 -0.5544 -0.2241  0.7968
 5631TIP3    H138308   5.108   1.080  11.802 -0.9844  1.0487 -0.1262
 5631TIP3    H238309   5.223   1.176  11.783  0.2735 -0.3517  0.1755
 5632TIP3   OH238310   1.248   0.483  12.111  0.5869  0.8275 -0.4092
 5632TIP3    H138311   1.273   0.458  12.200  0.0308 -0.1744 -0.5145
 5632TIP3    H238312   1.273   0.575  12.104  1.9227  0.5448  0.3111
 5633TIP3   OH238313   1.315   1.103  10.419  0.0472 -0.1003 -0.2562
 5633TIP3    H138314   1.254   1.031  10.434  0.0170 -0.0980 -0.3703
 5633TIP3    H238315   1.365   1.078  10.342 -2.2947  1.5121 -2.4561
 5634TIP3   OH238316   1.276   1.021  13.986 -0.0887  0.5932 -0.0755
 5634TIP3    H138317   1.220   0.984  13.918 -0.7832  1.8024 -0.1876
 5634TIP3    H238318   1.365   1.001  13.958 -0.4171 -1.9075  0.4070
 5635TIP3   OH238319   2.136   0.381  12.625  0.5085 -0.5587 -0.0717
 5635TIP3    H138320   2.066   0.415  12.680  2.0016 -1.1296  2.3189
 5635TIP3    H238321   2.150   0.292  12.657  1.1838 -1.0585 -1.6706
 5636TIP3   OH238322   6.960   0.631  14.762  0.2435 -0.4462  0.6768
 5636TIP3    H138323   6.899   0.626  14.836 -0.3156  3.2811  0.6380
 5636TIP3    H238324   7.045   0.645  14.803  0.2131 -0.2142  0.6634
 5637TIP3   OH238325   4.684   0.301  13.464  0.0516 -0.6345  1.0702
 5637TIP3    H138326   4.724   0.301  13.551  0.3950 -1.8111  0.9379
 5637TIP3    H238327   4.668   0.393  13.444  0.2472 -0.3322  2.2504
 5638TIP3   OH238328   5.398   0.180  11.861 -0.0742 -0.2429 -0.1218
 5638TIP3    H138329   5.344   0.135  11.926 -0.8227  0.0857 -0.5077
 5638TIP3    H238330   5.486   0.146  11.876 -0.4450 -1.0557  0.2817
 5639TIP3   OH238331   1.889   5.232   9.985 -0.2430  0.3803 -0.1640
 5639TIP3    H138332   1.969   5.223  10.038  0.0508  1.0623 -0.4926
 5639TIP3    H238333   1.919   5.268   9.902 -1.1562  2.7702  0.4812
 5640TIP3   OH238334   3.858   1.029  11.841 -0.3204 -0.3234 -0.5102
 5640TIP3    H138335   3.824   0.984  11.764 -0.0451  0.6145 -1.1932
 5640TIP3    H238336   3.887   1.114  11.809  0.4983 -0.2029  0.4916
 5641TIP3   OH238337   1.755   1.766  13.680 -0.1659  0.2593  0.0256
 5641TIP3    H138338   1.721   1.682  13.711  0.4552  0.0278  0.0834
 5641TIP3    H238339   1.850   1.755  13.679  0.0012  1.3683  1.2190
 5642TIP3   OH238340   6.774   0.598  12.116 -0.1693  0.2713 -0.3942
 5642TIP3    H138341   6.713   0.543  12.066  0.0032 -0.6254  0.3629
 5642TIP3    H238342   6.774   0.682  12.070 -1.3704  0.0271 -0.8666
 5643TIP3   OH238343   7.070   5.434  12.486  0.2977  0.6800 -0.0848
 5643TIP3    H138344   7.104   5.422  12.398 -0.5255  2.0021 -0.6177
 5643TIP3    H238345   7.131   5.386  12.542  2.4944  2.1392 -1.0805
 5644TIP3   OH238346   3.155   3.424   2.260  0.7875  0.5021  0.3361
 5644TIP3    H138347   3.134   3.434   2.353  0.6040  0.7414  0.2688
 5644TIP3    H238348   3.149   3.513   2.225  1.3765  0.4944  0.2067
 5645TIP3   OH238349   6.363   3.067   0.396  0.0591  0.0405 -0.2051
 5645TIP3    H138350   6.415   3.021   0.330 -0.5578  0.4972 -1.0255
 5645TIP3    H238351   6.316   3.134   0.347  0.4637  1.1509  0.8805
 5646TIP3   OH238352   0.839   0.576  11.417  0.0783 -0.3087 -0.3826
 5646TIP3    H138353   0.779   0.503  11.431 -0.1693 -0.3860 -1.7161
 5646TIP3    H238354   0.859   0.574  11.323  1.6604  0.1110 -0.0905
 5647TIP3   OH238355   2.138   0.007   0.002 -0.3885 -0.1925  0.4387
 5647TIP3    H138356   2.206  -0.050   0.038 -0.2286 -0.3460 -0.0941
 5647TIP3    H238357   2.097  -0.045  -0.067  0.3075  0.6095 -0.6166
 5648TIP3   OH238358   2.593   1.273   1.340  0.6111 -0.0442  0.3932
 5648TIP3    H138359   2.528   1.237   1.279  0.7801  1.2126 -0.5815
 5648TIP3    H238360   2.629   1.196   1.384  0.4176 -1.0064 -1.0412
 5649TIP3   OH238361   2.301   6.076  13.842 -0.7568  0.0214 -0.2054
 5649TIP3    H138362   2.291   6.166  13.812  1.9941  0.2989 -0.5269
 5649TIP3    H238363   2.370   6.039  13.786 -2.3155 -2.5627 -0.6005
 5650TIP3   OH238364   6.117   6.000   0.105  0.1664 -0.0778  0.4243
 5650TIP3    H138365   6.060   5.997   0.029  0.0590 -0.3608  0.5170
 5650TIP3    H238366   6.092   6.081   0.151  0.0588 -0.0400  0.2988
 5651TIP3   OH238367   3.853   4.907  11.130  0.2403 -0.2947 -0.5981
 5651TIP3    H138368   3.792   4.922  11.059 -1.0545 -2.5853 -0.0564
 5651TIP3    H238369   3.918   4.846  11.094 -0.3339 -1.3431  0.1049
 5652TIP3   OH238370   2.733   0.662  10.279 -0.2191 -0.1656 -0.2979
 5652TIP3    H138371   2.695   0.689  10.363 -1.3584 -0.3181 -0.7488
 5652TIP3    H238372   2.658   0.641  10.224  0.4570  0.8758 -1.6821
 5653TIP3   OH238373   5.291   2.850  12.668 -0.1480  0.1025  0.4246
 5653TIP3    H138374   5.274   2.781  12.603 -0.0811 -1.4947  2.0098
 5653TIP3    H238375   5.379   2.831  12.700  0.1701  1.4155  0.3512
 5654TIP3   OH238376   6.497   6.344   9.992 -0.3912  0.5691  0.4424
 5654TIP3    H138377   6.566   6.300   9.943  0.2253 -0.2065  1.9494
 5654TIP3    H238378   6.432   6.367   9.925  0.6562  0.0743 -0.8083
 5655TIP3   OH238379   1.737   0.362  12.371 -0.4277 -0.5747  0.5025
 5655TIP3    H138380   1.746   0.269  12.390 -0.9560 -0.9568 -0.9549
 5655TIP3    H238381   1.826   0.392  12.353 -0.3418 -0.9857  0.2287
 5656TIP3   OH238382   6.482   4.439  10.313  0.1522  0.5176  0.2026
 5656TIP3    H138383   6.431   4.401  10.242 -0.0327 -2.0254  1.6075
 5656TIP3    H238384   6.419   4.489  10.365 -0.0514  0.8999 -0.4056
 5657TIP3   OH238385   5.630   5.336  11.198 -0.1490 -0.3018  0.5208
 5657TIP3    H138386   5.538   5.361  11.189 -0.1485 -0.4490  0.0701
 5657TIP3    H238387   5.640   5.315  11.291  0.1713  2.6307  1.2373
 5658TIP3   OH238388   3.404   1.363  13.416  0.0868 -0.1974 -0.2350
 5658TIP3    H138389   3.495   1.357  13.446 -0.5443  2.7139  2.8583
 5658TIP3    H238390   3.409   1.409  13.333  1.4496 -0.1740 -0.1668
 5659TIP3   OH238391   0.249   3.561   2.933 -0.2741  0.3134  0.3502
 5659TIP3    H138392   0.156   3.542   2.933 -0.4878  1.2484  1.6387
 5659TIP3    H238393   0.272   3.572   3.025  1.6000 -2.0561  0.2576
 5660TIP3   OH238394   3.455   3.912   2.691  0.3834 -0.2818  0.7037
 5660TIP3    H138395   3.398   3.973   2.737  0.9558  0.2193  0.7586
 5660TIP3    H238396   3.399   3.837   2.670 -0.7411  0.8998 -0.7282
 5661TIP3   OH238397   6.189   3.889  12.492 -0.0686  0.3855 -0.2063
 5661TIP3    H138398   6.136   3.831  12.546 -0.0271  1.7574  1.3779
 5661TIP3    H238399   6.204   3.839  12.411 -2.0842 -0.8051  0.0894
 5662TIP3   OH238400   3.287   2.372  10.600 -0.1268  0.0625 -0.0126
 5662TIP3    H138401   3.236   2.317  10.541  0.5922 -0.2534 -0.3649
 5662TIP3    H238402   3.230   2.446  10.621 -0.2241  0.4494 -1.5296
 5663TIP3   OH238403   4.421   6.004  14.837  0.0441 -0.0970 -0.0425
 5663TIP3    H138404   4.449   5.924  14.792 -1.6604 -0.3624 -0.6941
 5663TIP3    H238405   4.439   6.074  14.775  1.2363  0.0315  0.4043
 5664TIP3   OH238406   0.588   3.600  15.257 -0.1530 -0.2425 -0.1960
 5664TIP3    H138407   0.519   3.534  15.245 -0.1495 -0.8073  2.3610
 5664TIP3    H238408   0.544   3.674  15.298  0.5316 -0.1307  0.3539
 5665TIP3   OH238409   0.407   3.701   0.043 -0.2013  0.1825 -0.4841
 5665TIP3    H138410   0.447   3.756  -0.024  0.0791 -0.2585 -0.6780
 5665TIP3    H238411   0.354   3.762   0.095  1.2008  0.8965  0.1627
 5666TIP3   OH238412   5.575   4.775   4.126 -0.1995  0.1553  0.0086
 5666TIP3    H138413   5.633   4.794   4.052 -0.5870 -1.1260 -0.6393
 5666TIP3    H238414   5.531   4.859   4.143  1.3458  0.9932  0.1161
 5667TIP3   OH238415   1.851   1.536  12.569  0.3585 -0.2017 -0.2276
 5667TIP3    H138416   1.920   1.472  12.554  1.4340  1.2737 -1.9426
 5667TIP3    H238417   1.812   1.550  12.483  0.4592  1.7647  0.0097
 5668TIP3   OH238418   2.427   4.897  11.552  0.8582  0.0082 -0.5600
 5668TIP3    H138419   2.352   4.899  11.611  0.7813 -1.8037 -0.5634
 5668TIP3    H238420   2.502   4.917  11.608  0.4999  0.9994 -0.4023
 5669TIP3   OH238421   6.793   5.025   2.789  0.0555 -0.1269 -0.2584
 5669TIP3    H138422   6.831   5.023   2.877 -4.1798  2.9288  2.0141
 5669TIP3    H238423   6.751   4.940   2.779  1.0147 -0.7043  0.4368
 5670TIP3   OH238424   0.606   1.889  13.859  0.1893  0.2057  0.2452
 5670TIP3    H138425   0.536   1.929  13.808 -1.0667 -0.5154  1.3502
 5670TIP3    H238426   0.666   1.961  13.878 -0.0067  0.7403 -1.1007
 5671TIP3   OH238427   1.705   1.550   2.301 -0.3599  0.0471  0.7124
 5671TIP3    H138428   1.691   1.645   2.299  1.9741  0.4305 -0.9606
 5671TIP3    H238429   1.772   1.537   2.368  0.3252 -0.2507 -0.0243
 5672TIP3   OH238430   4.499   1.033  10.431 -0.3170  0.0507 -0.0324
 5672TIP3    H138431   4.483   1.121  10.400  0.6114  0.2685  0.0647
 5672TIP3    H238432   4.454   1.028  10.516 -0.6047  0.3300 -0.1678
 5673TIP3   OH238433   5.198   5.432  12.468  0.2100 -0.4440  0.1372
 5673TIP3    H138434   5.115   5.426  12.420  0.5994  1.0926 -0.8197
 5673TIP3    H238435   5.253   5.364  12.429 -0.5567 -1.4340  0.7398
 5674TIP3   OH238436   4.596   0.737  13.985 -0.6255  0.3117  0.0555
 5674TIP3    H138437   4.507   0.745  13.949 -0.6270 -1.0010 -0.2941
 5674TIP3    H238438   4.645   0.691  13.917  0.4792  1.4699  0.0300
 5675TIP3   OH238439   2.201   1.063   2.349 -0.1468  0.3952  0.0514
 5675TIP3    H138440   2.240   1.138   2.305 -0.9286  0.0241 -1.3425
 5675TIP3    H238441   2.169   1.097   2.432 -0.2240  1.5206 -0.4289
 5676TIP3   OH238442   0.169   0.407  12.303 -0.1160 -0.2613  0.0393
 5676TIP3    H138443   0.209   0.320  12.302 -1.0378 -0.6924  0.2485
 5676TIP3    H238444   0.162   0.429  12.396  2.2221  1.0535 -0.0015
 5677TIP3   OH238445   5.137   5.152   1.351  0.6856  0.2141  0.2136
 5677TIP3    H138446   5.077   5.226   1.352 -0.2189  0.2839 -7.0546
 5677TIP3    H238447   5.223   5.189   1.372 -0.1168  2.8037 -0.7814
 5678TIP3   OH238448   2.018   4.082  13.341  0.2790  0.2644 -0.1228
 5678TIP3    H138449   2.068   4.030  13.277 -1.0044  0.8756 -1.6838
 5678TIP3    H238450   2.083   4.108  13.406  1.6896 -0.1928 -1.2915
 5679TIP3   OH238451   2.378   0.780   9.356 -0.1070  0.7750  0.1813
 5679TIP3    H138452   2.322   0.753   9.429  0.1865 -3.3362 -0.8900
 5679TIP3    H238453   2.465   0.789   9.395 -0.3213  0.6944  0.6941
 5680TIP3   OH238454   1.976   5.785  15.308 -0.3436  0.0177  0.2932
 5680TIP3    H138455   2.036   5.713  15.285 -0.5174 -0.2959  0.8043
 5680TIP3    H238456   1.957   5.771  15.401  0.6861  1.4986  0.7596
 5681TIP3   OH238457   0.094   0.452  10.852  0.0182 -0.7027 -1.1258
 5681TIP3    H138458   0.111   0.369  10.808 -1.5219 -2.6205  1.6387
 5681TIP3    H238459   0.178   0.477  10.889  0.6024 -0.7052 -2.3780
 5682TIP3   OH238460   3.153   3.839   9.932 -0.4709  0.4060 -0.4185
 5682TIP3    H138461   3.162   3.769   9.868  1.6745  0.6229 -0.4409
 5682TIP3    H238462   3.186   3.917   9.888  1.1687  0.5325  0.9417
 5683TIP3   OH238463   1.539   1.934  12.963 -0.0269  0.2112 -0.1698
 5683TIP3    H138464   1.520   2.002  12.899  2.4401 -0.1771 -1.4459
 5683TIP3    H238465   1.509   1.853  12.922  1.6276 -0.0479 -0.9465
 5684TIP3   OH238466   6.556   1.591   4.950  0.0109 -0.6875 -0.5829
 5684TIP3    H138467   6.543   1.672   4.902 -0.9493 -1.2225 -1.2568
 5684TIP3    H238468   6.624   1.612   5.015 -2.0084  1.4098  1.0230
 5685TIP3   OH238469   7.109   3.818   0.168  0.2785 -0.7973  0.0451
 5685TIP3    H138470   7.023   3.853   0.146  0.6059 -0.3363 -0.5226
 5685TIP3    H238471   7.090   3.736   0.214 -0.5016  0.1432  1.4824
 5686TIP3   OH238472   3.269   2.514  11.107  0.0013 -0.5159 -0.0121
 5686TIP3    H138473   3.271   2.432  11.156  1.0262  0.0419  0.9153
 5686TIP3    H238474   3.248   2.580  11.173  2.0183  0.3349 -0.1672
 5687TIP3   OH238475   2.806   3.211   4.207  0.7105 -0.0008  0.6138
 5687TIP3    H138476   2.778   3.294   4.168  1.4373 -0.3392 -0.7088
 5687TIP3    H238477   2.749   3.200   4.283  0.9520  1.9622  1.1415
 5688TIP3   OH238478   5.452   1.909  10.746 -0.0082 -0.7440  0.5324
 5688TIP3    H138479   5.532   1.929  10.795 -0.7838 -2.0653  2.4824
 5688TIP3    H238480   5.414   1.994  10.726  1.5918 -0.1097  0.0231
 5689TIP3   OH238481   6.318   1.333   0.048  1.0353  0.5347  0.0875
 5689TIP3    H138482   6.280   1.389  -0.020 -1.2688 -0.3312  0.5552
 5689TIP3    H238483   6.378   1.276   0.002 -3.0712 -2.5456 -2.1045
 5690TIP3   OH238484   0.596   1.329   2.482  0.2703  0.3744 -0.0202
 5690TIP3    H138485   0.591   1.234   2.494  0.4048  0.6653  2.8559
 5690TIP3    H238486   0.505   1.357   2.470  0.0880  0.0079  0.4767
 5691TIP3   OH238487   6.580   0.556   3.992 -0.2005 -0.0108  0.1618
 5691TIP3    H138488   6.509   0.521   4.045  0.0696 -1.3964 -0.3585
 5691TIP3    H238489   6.559   0.530   3.902  0.4122  0.4972 -0.1402
 5692TIP3   OH238490   2.747   4.326   0.792  0.1944 -0.0952 -0.0951
 5692TIP3    H138491   2.790   4.302   0.874  1.2072  0.2587 -0.5102
 5692TIP3    H238492   2.801   4.286   0.724  0.6533  1.4793 -0.6915
 5693TIP3   OH238493   6.021   5.050  15.262 -0.0564  0.2124 -0.6447
 5693TIP3    H138494   6.055   5.081  15.346 -0.8915  1.8081 -0.8492
 5693TIP3    H238495   6.099   5.038  15.207  0.4575 -0.4111  0.1999
 5694TIP3   OH238496   2.973   5.795   0.000  0.2327  0.5083 -0.0680
 5694TIP3    H138497   2.913   5.729   0.034 -0.5659 -0.1332 -2.5360
 5694TIP3    H238498   3.036   5.810   0.071 -1.3861 -0.6015  1.6757
 5695TIP3   OH238499   2.247   1.861   0.920 -0.2041  0.2836 -0.4815
 5695TIP3    H138500   2.222   1.846   0.829  3.2006  1.4275 -1.8000
 5695TIP3    H238501   2.261   1.774   0.956 -0.6042 -0.1762 -1.3972
 5696TIP3   OH238502   0.626   0.211  11.281  0.0850  0.4282 -0.4964
 5696TIP3    H138503   0.649   0.266  11.356  0.2140 -0.1367 -0.1162
 5696TIP3    H238504   0.557   0.153  11.314  1.1183 -0.7907 -0.3783
 5697TIP3   OH238505   3.058   2.836  13.795 -0.3486 -0.3600  0.5154
 5697TIP3    H138506   3.106   2.887  13.860 -0.8106  0.2227  0.4068
 5697TIP3    H238507   3.063   2.746  13.827  0.8511 -0.3230  0.4805
 5698TIP3   OH238508   0.503   6.967  11.811 -0.3490  0.4270 -0.6964
 5698TIP3    H138509   0.574   7.025  11.838  0.1775  0.2109 -1.5572
 5698TIP3    H238510   0.496   6.903  11.881  0.0606  0.6645 -0.4322
 5699TIP3   OH238511   5.498   1.672  11.550  0.3354  0.0894 -0.1071
 5699TIP3    H138512   5.432   1.701  11.488 -0.0530  0.1135  0.3111
 5699TIP3    H238513   5.578   1.718  11.523 -0.4412  2.2713  1.0342
 5700TIP3   OH238514   5.863   0.273  12.052 -0.2577 -0.0678  0.1133
 5700TIP3    H138515   5.832   0.252  11.964  0.7089 -1.9474  0.1832
 5700TIP3    H238516   5.784   0.271  12.107 -0.9054  1.3375 -0.6887
 5701TIP3   OH238517   5.895   3.354  12.778  0.2852  0.0288 -0.0864
 5701TIP3    H138518   5.959   3.375  12.846 -0.3146 -1.2003  0.8865
 5701TIP3    H238519   5.921   3.267  12.746 -1.0558 -0.6423  0.5572
 5702TIP3   OH238520   5.528   2.017  13.427 -0.5054  0.7312  0.1802
 5702TIP3    H138521   5.595   2.035  13.361  1.1096  0.7840  1.7560
 5702TIP3    H238522   5.525   1.922  13.434  0.1961  0.7462  0.8410
 5703TIP3   OH238523   1.866   7.045   0.042  0.0634 -0.0076  0.1736
 5703TIP3    H138524   1.889   7.010   0.128 -1.8332 -1.0392  0.3088
 5703TIP3    H238525   1.910   7.130   0.038  1.2819 -0.5325  1.5988
 5704TIP3   OH238526   5.906   5.794  15.011 -0.3345  0.2838 -0.0276
 5704TIP3    H138527   5.860   5.782  15.095 -2.0593 -0.6807 -1.0523
 5704TIP3    H238528   5.914   5.889  15.002  0.0157  0.4003  1.2857
 5705TIP3   OH238529   4.027   5.330  10.580  0.0139 -0.1490 -0.6682
 5705TIP3    H138530   4.030   5.236  10.598 -0.9266 -0.1235 -0.3281
 5705TIP3    H238531   3.934   5.353  10.584  0.1362  0.6259 -1.6492
 5706TIP3   OH238532   1.392   7.146  14.831  0.1678  0.2867  0.3049
 5706TIP3    H138533   1.484   7.166  14.845 -0.1431  1.2039  1.1183
 5706TIP3    H238534   1.354   7.143  14.919 -0.5845 -0.0723 -0.0211
 5707TIP3   OH238535   2.908   5.642  11.972  0.1663  0.3275 -0.2637
 5707TIP3    H138536   2.949   5.722  12.006 -0.7083  0.8431 -0.3747
 5707TIP3    H238537   2.948   5.571  12.023  1.7199  0.7206 -0.8824
 5708TIP3   OH238538   3.214   5.194  11.605 -0.7780 -0.5983  0.3914
 5708TIP3    H138539   3.209   5.138  11.527 -1.8884 -0.0633  0.0521
 5708TIP3    H238540   3.216   5.283  11.570  0.9000 -0.3944  0.9289
 5709TIP3   OH238541   2.441   4.218  13.237 -0.0749 -0.0465  0.3296
 5709TIP3    H138542   2.406   4.239  13.324  0.9208  0.8941  0.5126
 5709TIP3    H238543   2.382   4.262  13.176  1.6226  2.9807  0.6799
 5710TIP3   OH238544   1.567   1.782  12.508  0.2166 -0.5301 -0.1146
 5710TIP3    H138545   1.529   1.861  12.471  0.1588 -0.3319  0.3699
 5710TIP3    H238546   1.529   1.711  12.457 -1.7659 -0.4310  1.1410
 5711TIP3   OH238547   2.288   6.669  14.205 -0.0283 -0.0100  0.0146
 5711TIP3    H138548   2.350   6.647  14.135  1.9011  0.6826  1.4201
 5711TIP3    H238549   2.336   6.653  14.286 -0.1618  4.2387  1.2007
 5712TIP3   OH238550   1.587   5.183  14.837  0.2556  0.3196  0.2678
 5712TIP3    H138551   1.555   5.187  14.927 -1.5094  2.2883 -0.3539
 5712TIP3    H238552   1.532   5.117  14.795  0.3264  0.1982  0.3654
 5713TIP3   OH238553   1.238   4.827  10.555  0.0070  0.1659  0.0483
 5713TIP3    H138554   1.164   4.814  10.495 -0.3344  1.3400  0.1933
 5713TIP3    H238555   1.314   4.793  10.507 -0.4269  0.1154 -0.6160
 5714TIP3   OH238556   2.852   5.942  13.481 -0.0793 -0.0546  0.4415
 5714TIP3    H138557   2.835   5.848  13.483  0.0762 -0.2117 -1.9726
 5714TIP3    H238558   2.933   5.951  13.430  0.2583  1.3765  1.1517
 5715TIP3   OH238559   2.269   3.748  14.856  0.0035  0.1462 -0.0456
 5715TIP3    H138560   2.230   3.665  14.883 -1.3157  0.5417 -0.6342
 5715TIP3    H238561   2.282   3.796  14.938 -0.8029  0.0257  0.1581
 5716TIP3   OH238562   3.359   6.843   1.919 -0.1089 -0.4087  0.2654
 5716TIP3    H138563   3.308   6.923   1.929 -0.8383 -1.0457  1.9831
 5716TIP3    H238564   3.448   6.868   1.946 -0.6749 -0.5037  2.4625
 5717TIP3   OH238565   5.452   4.881   9.406 -0.1088  0.2229  0.6391
 5717TIP3    H138566   5.388   4.938   9.364  0.2848 -0.1335 -0.4833
 5717TIP3    H238567   5.450   4.907   9.498 -0.4877  1.5202  0.2906
 5718TIP3   OH238568   4.297   4.370  14.532  0.3276  0.1291  0.3681
 5718TIP3    H138569   4.298   4.414  14.617  3.2684 -0.5084  0.7774
 5718TIP3    H238570   4.269   4.438  14.471 -0.3003  1.0504  1.6265
 5719TIP3   OH238571   5.106   5.086  12.028  0.0733  0.5617  0.3040
 5719TIP3    H138572   5.188   5.136  12.030  0.4191  0.1237 -1.2914
 5719TIP3    H238573   5.068   5.098  12.115  1.7664  0.8817  1.0345
 5720TIP3   OH238574   4.860   2.898  12.151  0.2059 -0.1729 -0.2986
 5720TIP3    H138575   4.821   2.896  12.063 -2.4287 -2.1080  0.7842
 5720TIP3    H238576   4.894   2.987  12.160 -3.4014  1.5733 -1.7232
 5721TIP3   OH238577   6.622   6.032   0.549 -0.2692 -0.0994 -0.4877
 5721TIP3    H138578   6.660   6.079   0.623 -0.2399  0.6752 -0.9848
 5721TIP3    H238579   6.698   6.005   0.496 -0.2324 -1.4587  0.2234
 5722TIP3   OH238580   0.270   3.458  14.276 -0.1009  0.1353  0.9165
 5722TIP3    H138581   0.347   3.479  14.222  0.1786 -1.2140  0.7637
 5722TIP3    H238582   0.209   3.531  14.259 -0.9204 -1.2050 -2.9768
 5723TIP3   OH238583   3.749   1.770  10.830  0.0677  0.3771  0.5875
 5723TIP3    H138584   3.687   1.758  10.758 -0.1207  0.1811  0.7803
 5723TIP3    H238585   3.719   1.848  10.875  1.0047  1.3293 -0.3733
 5724TIP3   OH238586   0.902   4.445  10.496  0.8600 -0.4644  0.3942
 5724TIP3    H138587   0.897   4.508  10.568  0.1940  1.2257 -1.0585
 5724TIP3    H238588   0.996   4.429  10.485  1.1287  1.1554  0.0889
 5725TIP3   OH238589   2.023   2.316  10.180 -0.1027 -0.0411 -0.2090
 5725TIP3    H138590   2.034   2.221  10.192  0.3506 -0.1159 -1.0816
 5725TIP3    H238591   2.078   2.336  10.104 -1.0090  0.7372 -0.6843
 5726TIP3   OH238592   2.268   1.664  13.249  0.3617  0.3640 -0.3702
 5726TIP3    H138593   2.329   1.737  13.261  0.5440  0.0103  1.1285
 5726TIP3    H238594   2.249   1.663  13.155  1.9675  1.0342 -0.7324
 5727TIP3   OH238595   0.252   0.876  10.934  0.7639  0.2134 -0.2592
 5727TIP3    H138596   0.236   0.828  10.853  0.7967 -0.1091 -0.0732
 5727TIP3    H238597   0.165   0.889  10.972  0.7436  0.4094 -0.3685
 5728TIP3   OH238598   6.913   1.140  12.524 -0.2898 -0.7329  0.6187
 5728TIP3    H138599   6.943   1.067  12.579  1.3699  0.0680  0.8644
 5728TIP3    H238600   6.820   1.148  12.542  0.2180 -0.3290  3.6037
 5729TIP3   OH238601   5.105   4.990   0.198  0.1359 -0.0061 -0.3645
 5729TIP3    H138602   5.084   5.021   0.110  3.1044  1.0691 -0.7979
 5729TIP3    H238603   5.180   4.932   0.185 -1.1495 -2.1767  1.2203
 5730TIP3   OH238604   5.109   3.993   3.374  0.3623 -0.4198 -0.5766
 5730TIP3    H138605   5.133   4.011   3.465 -2.1644  2.1945 -0.2671
 5730TIP3    H238606   5.050   3.918   3.378 -0.7753  0.5043  0.1300
 5731TIP3   OH238607   4.964   6.191   5.207 -0.9699 -0.2900  0.0329
 5731TIP3    H138608   4.933   6.247   5.278  1.8195  0.0116  1.1506
 5731TIP3    H238609   4.990   6.252   5.138  2.3974 -0.0085  1.3856
 5732TIP3   OH238610   2.489   6.200  10.010  0.3007  0.1002 -0.1922
 5732TIP3    H138611   2.444   6.240  10.084 -2.4749 -1.1643 -1.0668
 5732TIP3    H238612   2.479   6.262   9.938 -0.6634 -0.4285 -0.5411
 5733TIP3   OH238613   3.159   2.219  12.855 -0.2810  0.0026  0.1475
 5733TIP3    H138614   3.212   2.240  12.932  1.5427 -2.6935 -0.2253
 5733TIP3    H238615   3.116   2.137  12.877  1.4253 -1.6341 -2.1192
 5734TIP3   OH238616   6.300   1.872   0.220 -0.2434 -0.1191 -0.4819
 5734TIP3    H138617   6.299   1.966   0.241  1.1091 -0.4600  1.3359
 5734TIP3    H238618   6.326   1.830   0.302 -1.0880 -2.1235 -1.1954
 5735TIP3   OH238619   1.653   6.437  11.633  0.2945 -0.1490  0.2967
 5735TIP3    H138620   1.736   6.447  11.680  0.9448 -0.8791 -0.6340
 5735TIP3    H238621   1.650   6.344  11.611 -1.2666 -0.3295  1.1581
 5736TIP3   OH238622   1.399   6.155   2.451  0.3260 -0.3508  0.2453
 5736TIP3    H138623   1.474   6.203   2.486  0.6114 -1.8449  1.7613
 5736TIP3    H238624   1.428   6.064   2.447 -0.4740 -0.5700 -1.8464
 5737TIP3   OH238625   3.388   3.526   3.817 -0.8645 -0.6315 -0.2541
 5737TIP3    H138626   3.368   3.555   3.728 -0.4210 -0.1481 -0.1990
 5737TIP3    H238627   3.397   3.607   3.867 -0.8810 -0.8967  0.1830
 5738TIP3   OH238628   3.617   6.419  14.404 -0.1183 -0.4532  0.5839
 5738TIP3    H138629   3.529   6.387  14.423 -0.1569 -0.5437  0.2748
 5738TIP3    H238630   3.604   6.489  14.340  0.0783 -1.0132 -0.0946
 5739TIP3   OH238631   2.237   5.213  10.053 -0.1090  0.5234 -0.5156
 5739TIP3    H138632   2.195   5.156  10.118  1.1529  0.9426  0.7214
 5739TIP3    H238633   2.218   5.171   9.969 -1.2875 -0.3645  0.1655
 5740TIP3   OH238634   5.250   2.458   0.376  0.5382  0.1957 -0.0961
 5740TIP3    H138635   5.249   2.415   0.462 -0.9799 -0.9474 -0.6375
 5740TIP3    H238636   5.334   2.432   0.337  0.3880 -0.8907  0.2722
 5741TIP3   OH238637   6.864   6.294  13.095 -0.0632 -0.4869 -0.1350
 5741TIP3    H138638   6.850   6.240  13.172 -1.1439 -1.5935 -1.0827
 5741TIP3    H238639   6.949   6.336  13.111 -0.9122  0.4835  2.3061
 5742TIP3   OH238640   3.745   3.172  12.145 -0.1825 -0.0138  0.5479
 5742TIP3    H138641   3.818   3.117  12.115 -0.1680 -0.3524  1.1857
 5742TIP3    H238642   3.786   3.237  12.201 -0.2413  0.4537  0.0484
 5743TIP3   OH238643   3.520   3.406  11.112  0.4637 -0.3819 -0.4713
 5743TIP3    H138644   3.494   3.320  11.145  0.5989 -0.9278 -1.7293
 5743TIP3    H238645   3.575   3.387  11.037  0.3278  0.8095 -0.8942
 5744TIP3   OH238646   5.385   3.214   1.810  0.4371 -0.3130  0.3583
 5744TIP3    H138647   5.360   3.171   1.728 -0.0425 -0.7351  0.7175
 5744TIP3    H238648   5.430   3.294   1.783 -3.6466  1.9721 -0.3721
 5745TIP3   OH238649   4.169   3.227  11.734 -0.0533  0.5275  0.1049
 5745TIP3    H138650   4.156   3.255  11.643  1.3955 -0.6670 -0.5168
 5745TIP3    H238651   4.262   3.242  11.751  0.1447 -1.1457  0.6857
 5746TIP3   OH238652   4.329   5.090  13.112  0.3141  0.2846  0.3770
 5746TIP3    H138653   4.376   5.127  13.037 -0.1482  1.5894  0.7052
 5746TIP3    H238654   4.387   5.107  13.187 -0.8020  2.2709  0.8480
 5747TIP3   OH238655   0.034   4.788  10.395  0.5429  0.6625  0.5829
 5747TIP3    H138656  -0.035   4.746  10.445 -0.6688  1.4554 -0.3527
 5747TIP3    H238657   0.111   4.732  10.407 -0.3822 -0.4982  1.2532
 5748TIP3   OH238658   5.550   6.518  12.894  0.2264  0.1587  0.2332
 5748TIP3    H138659   5.599   6.599  12.912 -0.2718  0.6812 -0.7025
 5748TIP3    H238660   5.573   6.496  12.804 -0.8178  0.1097 -0.0343
 5749TIP3   OH238661   6.467   6.544  10.188  0.6343  0.0676 -0.8188
 5749TIP3    H138662   6.518   6.522  10.265  0.6726 -0.6747 -1.0455
 5749TIP3    H238663   6.476   6.468  10.131 -1.6961 -0.6508 -0.3540
 5750TIP3   OH238664   5.459   1.633  11.824  0.6307  0.3656  0.0400
 5750TIP3    H138665   5.543   1.645  11.869  0.0434  1.5643  0.8913
 5750TIP3    H238666   5.481   1.628  11.731  1.6633  0.3427  0.2804
 5751TIP3   OH238667   5.834   3.789   4.436 -0.0135  0.2089  0.3523
 5751TIP3    H138668   5.831   3.795   4.341  0.1613  1.2806  0.4052
 5751TIP3    H238669   5.796   3.871   4.467 -0.5159 -0.3285  1.2144
 5752TIP3   OH238670   2.860   4.510  12.882 -0.5948 -0.0768 -0.0878
 5752TIP3    H138671   2.914   4.455  12.826 -0.2632  0.2047 -0.0493
 5752TIP3    H238672   2.914   4.525  12.960 -0.5524  0.5485 -0.2266
 5753TIP3   OH238673   6.444   3.347  11.581 -0.3180 -0.2560 -0.1531
 5753TIP3    H138674   6.466   3.258  11.608 -0.1360  0.0991  0.9280
 5753TIP3    H238675   6.406   3.388  11.660 -0.7621  0.5038 -0.7395
 5754TIP3   OH238676   6.852   2.944  13.267 -0.2101 -0.2271 -0.3271
 5754TIP3    H138677   6.781   2.881  13.259 -1.2936  0.8314  0.5992
 5754TIP3    H238678   6.903   2.914  13.343 -1.4682  0.6562  0.9237
 5755TIP3   OH238679   3.391   4.331   9.591  0.9002  0.0866 -0.2216
 5755TIP3    H138680   3.341   4.388   9.532 -0.3185 -0.8046 -0.0712
 5755TIP3    H238681   3.341   4.330   9.672  2.4674  1.1417  0.8121
 5756TIP3   OH238682   1.361   2.438  15.042 -0.6434 -0.3324  0.1291
 5756TIP3    H138683   1.432   2.495  15.073 -1.4317  1.0500 -0.5294
 5756TIP3    H238684   1.302   2.430  15.117  0.7806 -2.5674  1.1285
 5757TIP3   OH238685   1.427   1.096  12.318  0.3765  0.1911 -0.3783
 5757TIP3    H138686   1.365   1.168  12.303 -0.0824 -0.1828 -0.3153
 5757TIP3    H238687   1.513   1.137  12.315  0.0768  1.0562  1.3968
 5758TIP3   OH238688   3.036   7.043  12.050  0.1557  0.3246  0.1053
 5758TIP3    H138689   3.121   7.042  12.095 -0.1138  0.8555  0.6361
 5758TIP3    H238690   2.993   6.962  12.079  0.7621 -0.3341 -0.7494
 5759TIP3   OH238691   5.064   2.569   1.674  0.1176  0.6732  0.4677
 5759TIP3    H138692   5.109   2.506   1.731  1.2135  1.2049  0.2180
 5759TIP3    H238693   5.110   2.562   1.591 -1.4788 -0.1098 -0.3925
 5760TIP3   OH238694   0.799   0.204  13.549 -0.1422  0.1140 -0.0166
 5760TIP3    H138695   0.705   0.198  13.567  0.0357 -0.0059  0.9416
 5760TIP3    H238696   0.807   0.283  13.495 -0.6593  0.9206  1.0273
 5761TIP3   OH238697   4.604   4.325  10.400 -0.3180 -0.0376  0.2125
 5761TIP3    H138698   4.638   4.351  10.315  0.8989 -2.4320 -0.1113
 5761TIP3    H238699   4.610   4.405  10.453  1.6494  0.7853 -1.1255
 5762TIP3   OH238700   1.640   6.652   1.209  0.2060  0.1886 -0.7318
 5762TIP3    H138701   1.727   6.680   1.180  0.5050 -0.2891 -0.3042
 5762TIP3    H238702   1.649   6.559   1.229 -0.2490  0.2767 -0.0800
 5763TIP3   OH238703   2.487   4.729   9.751 -0.1110 -0.0435 -0.0050
 5763TIP3    H138704   2.454   4.639   9.744 -1.2316  0.0811  2.6565
 5763TIP3    H238705   2.516   4.750   9.663 -1.0859 -2.5299 -1.0213
 5764TIP3   OH238706   0.188   6.284  12.093  0.5638  0.4602 -0.0536
 5764TIP3    H138707   0.177   6.337  12.014  2.3774 -0.2863 -0.8653
 5764TIP3    H238708   0.100   6.277  12.130 -0.0959  1.9725 -1.2520
 5765TIP3   OH238709   6.113   3.663  14.188 -0.0438 -0.4871 -0.3793
 5765TIP3    H138710   6.134   3.754  14.210 -0.0704 -0.1555 -1.6482
 5765TIP3    H238711   6.192   3.614  14.211 -0.9435 -0.6340  2.8613
 5766TIP3   OH238712   3.118   2.333   1.135  0.3612 -0.4415 -0.2303
 5766TIP3    H138713   3.076   2.277   1.070 -0.9862  0.2181  0.0496
 5766TIP3    H238714   3.104   2.289   1.218 -0.6696  0.2789 -0.0137
 5767TIP3   OH238715   6.131   1.876  14.252 -0.1041  0.0247  0.1312
 5767TIP3    H138716   6.038   1.854  14.251 -0.1678  0.2207 -1.8884
 5767TIP3    H238717   6.141   1.934  14.327 -1.2877 -1.2267  1.3198
 5768TIP3   OH238718   1.300   1.317  11.307  0.8550 -0.0633 -0.2447
 5768TIP3    H138719   1.298   1.389  11.244  1.0762  0.4511  0.3272
 5768TIP3    H238720   1.382   1.329  11.355  1.6827 -1.6047 -1.1828
 5769TIP3   OH238721   6.036   0.398  11.742 -0.5321 -0.4188 -0.6537
 5769TIP3    H138722   5.992   0.334  11.687  0.4397 -0.2464 -1.6836
 5769TIP3    H238723   6.129   0.379  11.729 -0.2140  1.3293 -1.1792
 5770TIP3   OH238724   1.585   5.815  12.087  0.2447 -0.2070  0.2120
 5770TIP3    H138725   1.505   5.867  12.072  0.6808  0.3458 -0.2579
 5770TIP3    H238726   1.614   5.841  12.175  0.1820 -0.0355  0.1825
 5771TIP3   OH238727   0.579   0.756  14.721  0.5148  0.0267  0.6829
 5771TIP3    H138728   0.648   0.696  14.745  0.2842 -1.2909 -1.6099
 5771TIP3    H238729   0.625   0.835  14.691  1.1262 -0.9848 -1.2138
 5772TIP3   OH238730   2.933   5.888   3.584  0.4474  0.2070  0.2850
 5772TIP3    H138731   2.891   5.969   3.556 -0.5807 -0.0918  0.9010
 5772TIP3    H238732   3.026   5.901   3.565  0.3131  1.5589  0.4491
 5773TIP3   OH238733   0.658   3.078  10.102  0.3825 -0.0967 -0.0489
 5773TIP3    H138734   0.728   3.106  10.044 -1.4166  2.5575 -1.1556
 5773TIP3    H238735   0.589   3.047  10.044 -0.7589  0.8658  0.7309
 5774TIP3   OH238736   6.619   1.827  10.635  0.4091 -0.0863 -0.4508
 5774TIP3    H138737   6.563   1.763  10.679  2.3719 -1.3389  0.3262
 5774TIP3    H238738   6.675   1.861  10.704 -0.1926  2.1248 -0.9641
 5775TIP3   OH238739   2.532   6.890  10.695 -0.0547  0.4289  0.1741
 5775TIP3    H138740   2.450   6.918  10.737 -0.7243 -0.0082 -0.8036
 5775TIP3    H238741   2.546   6.801  10.728  0.4226  0.7457  0.8763
 5776TIP3   OH238742   1.576   2.586   0.628  0.0437 -0.0014  0.4381
 5776TIP3    H138743   1.500   2.528   0.630  0.0623 -0.0145  1.8959
 5776TIP3    H238744   1.651   2.526   0.623 -0.0041 -0.0240 -0.0359
 5777TIP3   OH238745   4.898   4.242  11.946 -0.5340  0.1494  0.5467
 5777TIP3    H138746   4.893   4.283  12.033  0.2392 -0.9206  1.1245
 5777TIP3    H238747   4.914   4.150  11.965  3.1089  0.3846 -0.7252
 5778TIP3   OH238748   5.449   4.801  10.781 -0.1946 -0.0875  0.0690
 5778TIP3    H138749   5.398   4.879  10.802 -0.9435  0.0512 -2.0242
 5778TIP3    H238750   5.387   4.743  10.738  0.5605 -1.4998  0.8221
 5779TIP3   OH238751   1.810   0.338  14.804  0.0230  0.6308 -1.0869
 5779TIP3    H138752   1.882   0.296  14.850  0.4253  0.1858 -2.0813
 5779TIP3    H238753   1.808   0.428  14.837 -0.7061 -0.0782  0.9102
 5780TIP3   OH238754   5.269   1.542  13.782 -0.6327  0.4114  0.3153
 5780TIP3    H138755   5.331   1.609  13.751 -1.1933  0.8579  0.1302
 5780TIP3    H238756   5.322   1.463  13.793  0.3283  1.2263  1.8840
 5781TIP3   OH238757   1.760   6.678  14.189 -0.0667 -0.1474 -0.0386
 5781TIP3    H138758   1.723   6.611  14.133 -0.0497  1.4973 -2.1128
 5781TIP3    H238759   1.849   6.647  14.208  0.0838 -0.5288 -1.3094
 5782TIP3   OH238760   6.868   2.063  15.105 -0.2731 -0.3558  0.2613
 5782TIP3    H138761   6.940   2.013  15.143  0.1762  0.4765  0.5532
 5782TIP3    H238762   6.855   2.026  15.018  2.0986  0.9330 -0.7531
 5783TIP3   OH238763   5.281   2.634   1.484  0.1470 -0.5579 -0.7353
 5783TIP3    H138764   5.348   2.656   1.549 -0.1882 -2.3704  0.2890
 5783TIP3    H238765   5.240   2.718   1.463  0.4203  0.1378  1.2266
 5784TIP3   OH238766   0.582   3.170   1.282  0.3984 -0.1999 -0.0898
 5784TIP3    H138767   0.663   3.124   1.302  1.8027  0.5037 -3.4067
 5784TIP3    H238768   0.557   3.138   1.195 -1.5590  1.3545 -0.1776
 5785TIP3   OH238769   1.891   1.776  14.540  0.1169  0.5041  0.5850
 5785TIP3    H138770   1.831   1.848  14.521 -0.2198  0.0355 -0.1682
 5785TIP3    H238771   1.840   1.715  14.593  0.1298  0.4070  0.4861
 5786TIP3   OH238772   6.228   3.639   0.441 -0.4706  0.2798  0.0265
 5786TIP3    H138773   6.157   3.700   0.461  0.6851  2.0264 -0.9014
 5786TIP3    H238774   6.257   3.663   0.353  1.0438 -0.6129  0.2361
 5787TIP3   OH238775   0.791   2.153  13.627  0.0268 -0.2192  0.3854
 5787TIP3    H138776   0.833   2.168  13.712 -3.4607 -0.7865  2.3866
 5787TIP3    H238777   0.773   2.240  13.593 -0.9586  0.0846  1.5999
 5788TIP3   OH238778   2.658   0.971  14.031 -0.5130  0.4125  0.5244
 5788TIP3    H138779   2.605   1.020  13.969  0.9923 -0.9779 -2.0464
 5788TIP3    H238780   2.735   1.026  14.046  0.8826 -0.7218 -1.8778
 5789TIP3   OH238781   3.246   3.987  10.150 -0.0041 -0.1708  0.5235
 5789TIP3    H138782   3.233   3.925  10.079 -0.4501  0.7767 -0.2513
 5789TIP3    H238783   3.188   4.061  10.129  1.3841  1.0396  0.7454
 5790TIP3   OH238784   0.115   6.047   1.900 -0.3033 -0.0798  0.3393
 5790TIP3    H138785   0.046   6.113   1.906  0.5619  0.9852 -1.0082
 5790TIP3    H238786   0.077   5.970   1.943 -1.0610  1.4610  2.6604
 5791TIP3   OH238787   0.112   5.469  12.990 -0.0934 -0.4446 -0.5877
 5791TIP3    H138788   0.109   5.526  12.913 -0.8763 -1.2083 -1.1516
 5791TIP3    H238789   0.030   5.420  12.985 -0.1276 -0.5432  0.7180
 5792TIP3   OH238790   0.540   2.416   1.969  0.1301  0.9557  0.4277
 5792TIP3    H138791   0.500   2.466   1.898  0.2326  1.1179  0.4837
 5792TIP3    H238792   0.484   2.339   1.979 -0.5629  1.5068  0.9453
 5793TIP3   OH238793   2.827   1.900  10.244  0.0474  0.4516 -0.0197
 5793TIP3    H138794   2.876   1.818  10.253 -1.7470 -0.7254 -0.4564
 5793TIP3    H238795   2.768   1.900  10.319 -0.7614  0.7617 -0.6508
 5794TIP3   OH238796   5.262   0.350  12.123 -0.2543 -0.1865 -0.4804
 5794TIP3    H138797   5.192   0.343  12.189 -0.3442  1.5722 -0.3483
 5794TIP3    H238798   5.327   0.407  12.163  1.2333 -1.6845 -0.6653
 5795TIP3   OH238799   4.029   1.618   9.628  0.5012 -0.0501 -0.0162
 5795TIP3    H138800   3.989   1.608   9.714  1.3332  0.5968  0.4508
 5795TIP3    H238801   4.011   1.534   9.584  0.3645 -0.5153  0.9019
 5796TIP3   OH238802   2.944   2.124  13.412  0.0939  0.4148  0.3231
 5796TIP3    H138803   3.021   2.162  13.455  0.5105 -1.4522  1.3268
 5796TIP3    H238804   2.888   2.094  13.484 -0.3080 -0.6619 -0.4087
 5797TIP3   OH238805   2.673   0.049   3.611  0.1394 -0.1656  0.2924
 5797TIP3    H138806   2.680  -0.009   3.687 -0.8331 -0.7227 -0.0259
 5797TIP3    H238807   2.657   0.136   3.649  0.6992 -0.2548  0.7477
 5798TIP3   OH238808   2.876   2.490   1.383  0.5039  0.4018 -0.3547
 5798TIP3    H138809   2.827   2.475   1.302  1.0879  0.0163 -0.6435
 5798TIP3    H238810   2.957   2.533   1.355  0.7048  0.2784  0.0223
 5799TIP3   OH238811   6.288   1.540   0.842  0.1882  0.8945  0.0294
 5799TIP3    H138812   6.362   1.562   0.785  1.3421  0.1312  1.1658
 5799TIP3    H238813   6.322   1.550   0.931  0.0159 -2.5546  0.6563
 5800TIP3   OH238814   1.469   3.332  15.231  0.3551  0.4037 -0.1263
 5800TIP3    H138815   1.399   3.299  15.174  1.4999  0.4616 -1.6233
 5800TIP3    H238816   1.433   3.324  15.320 -2.0739  1.7121 -0.8945
 5801TIP3   OH238817   3.724   4.556  10.946 -0.0621 -0.0907 -0.0735
 5801TIP3    H138818   3.739   4.467  10.915 -0.4105 -0.5575  1.0524
 5801TIP3    H238819   3.750   4.554  11.039 -0.4172  0.8848  0.0639
 5802TIP3   OH238820   0.710   3.905  11.414  0.0536 -0.0813 -0.2957
 5802TIP3    H138821   0.782   3.905  11.476 -0.6086 -0.1576  0.4937
 5802TIP3    H238822   0.742   3.955  11.339  0.2499  1.6119  0.8561
 5803TIP3   OH238823   4.898   6.174  11.789 -0.4543 -0.3943  0.3510
 5803TIP3    H138824   4.930   6.105  11.731 -0.9517 -1.1117  0.9118
 5803TIP3    H238825   4.866   6.128  11.866 -1.5816  0.3886  0.3779
 5804TIP3   OH238826   5.010   6.534  10.768 -0.1092  0.8608  0.2263
 5804TIP3    H138827   4.962   6.503  10.691  1.9460 -1.2926 -0.3215
 5804TIP3    H238828   4.982   6.624  10.780 -0.9374  1.0723 -2.7014
 5805TIP3   OH238829   3.962   4.006  14.545 -0.8539  0.3901 -0.0697
 5805TIP3    H138830   3.988   3.920  14.580  0.6198  1.3053  1.2133
 5805TIP3    H238831   3.987   4.002  14.453  1.4308  0.2122  0.4935
 5806TIP3   OH238832   0.242   5.645  12.054  0.3438  0.6372 -0.1826
 5806TIP3    H138833   0.313   5.709  12.045  0.0276  1.3852  2.1236
 5806TIP3    H238834   0.193   5.674  12.130 -0.2778 -1.9303  0.4828
 5807TIP3   OH238835   2.477   4.477   5.735  0.3852 -0.6634 -0.4436
 5807TIP3    H138836   2.441   4.500   5.649  0.4358  0.1088 -0.2634
 5807TIP3    H238837   2.406   4.428   5.777 -0.4628  0.7691 -0.1271
 5808TIP3   OH238838   2.283   2.011  14.972 -0.4818 -0.6082  0.6716
 5808TIP3    H138839   2.358   1.962  14.937 -0.4127 -1.2429  1.6572
 5808TIP3    H238840   2.258   1.963  15.051 -1.6424 -0.1312  0.6077
 5809TIP3   OH238841   3.307   2.576   0.665 -0.3752 -0.3175 -0.0774
 5809TIP3    H138842   3.321   2.487   0.633  0.7667 -0.1678 -0.0285
 5809TIP3    H238843   3.313   2.631   0.586  0.7436 -0.1193  0.1252
 5810TIP3   OH238844   4.682   2.334  14.555 -0.2519  0.2748  0.0699
 5810TIP3    H138845   4.692   2.424  14.522  0.5002  0.5391  0.9702
 5810TIP3    H238846   4.591   2.312  14.537 -0.1937  0.8651 -1.0252
 5811TIP3   OH238847   2.936   6.812  10.650 -0.3586 -0.0653  0.1136
 5811TIP3    H138848   2.956   6.863  10.572 -0.3665 -0.8535 -0.4153
 5811TIP3    H238849   2.968   6.724  10.630 -0.2552 -0.2505  1.0475
 5812TIP3   OH238850   2.788   0.732  14.061  1.2102  0.4619  0.7722
 5812TIP3    H138851   2.874   0.770  14.076  0.6829  1.7329  0.7083
 5812TIP3    H238852   2.728   0.807  14.060  0.1496 -0.3574  0.4607
 5813TIP3   OH238853   3.851   6.192   1.689  0.1117  0.0921 -0.3129
 5813TIP3    H138854   3.838   6.108   1.646  0.4064 -0.2202  0.1889
 5813TIP3    H238855   3.941   6.217   1.666  0.2919 -0.1047  0.1455
 5814TIP3   OH238856   1.135   5.772   0.289  0.1090 -0.1149  0.1712
 5814TIP3    H138857   1.123   5.820   0.207 -0.2987  0.8917  0.8085
 5814TIP3    H238858   1.117   5.681   0.266  1.5174 -0.0797 -1.2008
 5815TIP3   OH238859   0.266   3.013   2.238  0.6579 -0.1724  0.1631
 5815TIP3    H138860   0.171   3.000   2.232  0.6747 -0.2925  0.1535
 5815TIP3    H238861   0.276   3.095   2.286  0.5536 -0.3427  0.4823
 5816TIP3   OH238862   1.965   0.736  11.839 -0.1919  0.0756  0.2094
 5816TIP3    H138863   1.897   0.707  11.778 -1.8520  0.7080  1.6729
 5816TIP3    H238864   1.921   0.737  11.925  1.1268  2.2606  0.9357
 5817TIP3   OH238865   3.914   0.739  10.591  0.3205 -0.1867  0.4669
 5817TIP3    H138866   3.996   0.781  10.565  0.7647 -1.5330 -0.4266
 5817TIP3    H238867   3.939   0.650  10.617 -1.0661 -1.5358 -2.3097
 5818TIP3   OH238868   0.076   6.895  13.588 -0.1609 -1.0579  0.6696
 5818TIP3    H138869  -0.018   6.891  13.602 -0.2375 -0.0300  0.5019
 5818TIP3    H238870   0.090   6.853  13.503 -0.6858  0.3904 -0.1656
 5819TIP3   OH238871   3.037   5.445  11.056 -0.2966  0.1471  0.1175
 5819TIP3    H138872   3.049   5.397  11.138  0.3693  0.2357  0.0749
 5819TIP3    H238873   3.027   5.377  10.990 -2.1430  0.0630  0.4402
 5820TIP3   OH238874   2.791   3.859   9.760 -0.2586 -0.1973 -0.8265
 5820TIP3    H138875   2.767   3.844   9.851  0.6226 -0.9188 -0.7000
 5820TIP3    H238876   2.849   3.935   9.762 -1.1840  0.5349 -0.9438
 5821TIP3   OH238877   1.765   0.680  11.635  0.1496  0.8581  0.2191
 5821TIP3    H138878   1.747   0.742  11.563 -0.1699 -0.0587 -0.5088
 5821TIP3    H238879   1.809   0.606  11.593  1.1971  0.8955  1.2034
 5822TIP3   OH238880   2.634   3.374  14.364  0.4075  0.4874 -0.2782
 5822TIP3    H138881   2.714   3.427  14.369 -0.0398  1.3573 -1.7287
 5822TIP3    H238882   2.595   3.398  14.280 -0.9850 -0.5074  0.0537
 5823TIP3   OH238883   4.514   5.373   2.815 -0.5955 -0.3663 -0.4559
 5823TIP3    H138884   4.542   5.420   2.894 -0.4548  1.4094 -1.5098
 5823TIP3    H238885   4.534   5.281   2.834  0.5632  0.1515  1.0975
 5824TIP3   OH238886   2.419   0.375  11.703  0.4786  0.0454  0.0974
 5824TIP3    H138887   2.332   0.350  11.734  0.8652  0.5304  1.6607
 5824TIP3    H238888   2.433   0.464  11.737  0.5060  1.1017 -2.4576
 5825TIP3   OH238889   5.550   6.662  15.121  0.0460 -0.1842  0.3567
 5825TIP3    H138890   5.560   6.688  15.213 -1.9067 -1.0054  0.8451
 5825TIP3    H238891   5.465   6.618  15.117  0.5222 -1.0453 -1.6593
 5826TIP3   OH238892   6.553   3.713  14.735 -0.3843  0.4855 -0.5385
 5826TIP3    H138893   6.643   3.725  14.765 -0.4470  0.9240 -0.5234
 5826TIP3    H238894   6.542   3.618  14.731  0.3738  0.4210 -1.4136
 5827TIP3   OH238895   2.898   5.874  11.289  0.3569 -0.1706  0.3535
 5827TIP3    H138896   2.906   5.910  11.200  1.9849  0.5722  0.7667
 5827TIP3    H238897   2.888   5.951  11.344  0.0131 -0.5936  0.8858
 5828TIP3   OH238898   3.209   5.589   4.077  0.4284  0.2447 -0.2011
 5828TIP3    H138899   3.194   5.500   4.109 -0.2028  0.2184 -0.5435
 5828TIP3    H238900   3.147   5.599   4.004  0.9343  0.7479 -0.5728
 5829TIP3   OH238901   3.589   0.924  12.879 -0.3269  0.5620  0.7247
 5829TIP3    H138902   3.656   0.875  12.926 -0.3334  1.1911  1.3980
 5829TIP3    H238903   3.606   1.015  12.901 -1.2945  0.7430  0.7532
 5830TIP3   OH238904   6.594   0.786  11.295  0.1041  0.0531  0.3973
 5830TIP3    H138905   6.534   0.732  11.243  1.1249 -1.4367  0.7302
 5830TIP3    H238906   6.680   0.748  11.280  0.7887  1.2709  1.0780
 5831TIP3   OH238907   6.914   0.984  13.725  0.0846  0.7103 -0.5689
 5831TIP3    H138908   6.820   1.004  13.719 -0.1189  0.3029  0.9674
 5831TIP3    H238909   6.918   0.889  13.730  0.5785  0.7362 -0.4735
 5832TIP3   OH238910   1.387   6.782  12.403 -0.1264 -0.2532  0.5273
 5832TIP3    H138911   1.382   6.704  12.348 -0.1889 -0.2143  0.4775
 5832TIP3    H238912   1.475   6.780  12.440 -0.4049 -0.7904  1.1774
 5833TIP3   OH238913   2.543   6.529  10.204  0.3613  0.3983 -0.3869
 5833TIP3    H138914   2.614   6.506  10.145  1.1370  0.6328  0.4265
 5833TIP3    H238915   2.493   6.596  10.157 -0.7388 -1.4001 -1.9372
 5834TIP3   OH238916   5.017   2.304   4.265  0.1212  0.1611 -0.5387
 5834TIP3    H138917   4.934   2.256   4.263  1.2960 -1.9599 -1.3965
 5834TIP3    H238918   5.047   2.304   4.174  1.6167 -0.1697 -0.0682
 5835TIP3   OH238919   3.234   3.681   9.555 -0.4853 -0.2590 -1.0328
 5835TIP3    H138920   3.160   3.706   9.610  0.7795  1.8269 -0.1574
 5835TIP3    H238921   3.233   3.585   9.555 -1.5852 -0.2964  1.1595
 5836TIP3   OH238922   2.684   5.415  13.975 -0.5725 -0.0378  0.3549
 5836TIP3    H138923   2.611   5.358  14.000 -0.6040  0.3553  1.1580
 5836TIP3    H238924   2.688   5.482  14.043 -0.6958  1.0872 -0.7168
 5837TIP3   OH238925   1.742   3.289  10.732 -0.0123 -0.1222  0.4592
 5837TIP3    H138926   1.798   3.312  10.657 -0.0886 -1.6686 -0.1027
 5837TIP3    H238927   1.679   3.361  10.737 -0.5586 -0.3915 -1.5374
 5838TIP3   OH238928   4.588   1.073  12.757  0.2539 -0.1920 -0.0150
 5838TIP3    H138929   4.558   1.133  12.689  1.1491  0.0313 -0.2224
 5838TIP3    H238930   4.529   1.089  12.831 -0.3767 -0.0460 -0.5415
 5839TIP3   OH238931   6.174   1.462   3.282  0.0738  0.0211  0.2051
 5839TIP3    H138932   6.197   1.369   3.275  0.7111  0.1786  0.1467
 5839TIP3    H238933   6.211   1.489   3.366  1.4697  0.6554 -0.5831
 5840TIP3   OH238934   2.086   4.914  12.076  0.0711 -0.0330  0.1178
 5840TIP3    H138935   2.007   4.954  12.112  0.5073  0.9882 -0.0293
 5840TIP3    H238936   2.128   4.984  12.026  1.4619 -0.3335  0.8221
 5841TIP3   OH238937   6.367   6.899  13.522  0.0167 -0.0345  0.4546
 5841TIP3    H138938   6.435   6.832  13.517 -0.8119 -0.8447 -0.3411
 5841TIP3    H238939   6.356   6.929  13.432  1.4493  2.3126  0.9849
 5842TIP3   OH238940   6.115   2.775  11.002 -0.5469  0.3517 -0.0359
 5842TIP3    H138941   6.093   2.839  11.070  0.8253  0.8223 -0.0138
 5842TIP3    H238942   6.165   2.824  10.937 -1.7101 -0.1277 -1.3457
 5843TIP3   OH238943   0.276   7.009  10.189 -0.0495  0.2182  0.0070
 5843TIP3    H138944   0.292   7.090  10.141 -1.0599  1.1998  1.2734
 5843TIP3    H238945   0.344   7.006  10.256  0.1839 -0.1616 -0.2415
 5844TIP3   OH238946   2.513   4.796   1.201  0.1767 -0.3924 -0.0255
 5844TIP3    H138947   2.512   4.841   1.286  1.7974  0.9234 -0.6540
 5844TIP3    H238948   2.453   4.847   1.147 -0.4618 -0.9294  0.1610
 5845TIP3   OH238949   1.006   1.379  13.925  0.5323 -0.0773 -0.6254
 5845TIP3    H138950   0.949   1.312  13.887  0.9835 -0.6983 -0.2222
 5845TIP3    H238951   1.092   1.338  13.931  1.1496  0.9885 -1.6216
 5846TIP3   OH238952   2.343   3.290  14.762 -0.2279 -0.4177 -0.1254
 5846TIP3    H138953   2.395   3.329  14.693 -1.3730 -0.7340 -1.1992
 5846TIP3    H238954   2.279   3.235  14.717 -0.2885 -1.5309  1.2333
 5847TIP3   OH238955   0.680   6.392  12.173  0.2981  0.0109  0.6554
 5847TIP3    H138956   0.602   6.422  12.126  0.6272 -0.2735 -0.0814
 5847TIP3    H238957   0.659   6.406  12.266 -1.4944 -2.0487  0.6459
 5848TIP3   OH238958   4.449   0.473  12.469  0.3262  0.1662  0.3423
 5848TIP3    H138959   4.526   0.417  12.462 -0.1372 -0.8046  2.3816
 5848TIP3    H238960   4.485   0.560  12.487  0.9974  0.3149 -1.4817
 5849TIP3   OH238961   4.358   0.449   1.487 -0.3002 -0.7727  0.9862
 5849TIP3    H138962   4.340   0.542   1.502 -0.7844 -0.2522 -2.1720
 5849TIP3    H238963   4.454   0.443   1.486 -0.1172  0.5709 -2.5498
 5850TIP3   OH238964   1.936   5.920   4.073 -0.1557  0.3969 -0.0493
 5850TIP3    H138965   2.007   5.910   4.010  0.5174 -0.2407  0.7847
 5850TIP3    H238966   1.941   5.842   4.128 -1.2309  0.5529  0.3044
 5851TIP3   OH238967   1.962   7.095  12.770 -0.6345 -0.0226  0.0105
 5851TIP3    H138968   2.030   7.098  12.837 -0.9118 -2.2240  0.4646
 5851TIP3    H238969   1.880   7.108  12.818 -0.6754  1.2504 -0.3494
 5852TIP3   OH238970   1.351   3.742   2.665 -0.2890  0.8953 -0.1546
 5852TIP3    H138971   1.285   3.803   2.698 -1.1746 -0.1113 -0.0146
 5852TIP3    H238972   1.307   3.696   2.593  0.0359 -0.2558  0.3624
 5853TIP3   OH238973   0.354   3.490  11.164 -0.3667  0.0308  0.1923
 5853TIP3    H138974   0.400   3.569  11.136 -1.0870  0.9358  1.4388
 5853TIP3    H238975   0.423   3.425  11.175  0.2997  0.6293 -0.3575
 5854TIP3   OH238976   5.428   5.980  14.222 -0.0174 -0.1641 -0.2053
 5854TIP3    H138977   5.400   6.064  14.260 -2.1044 -0.8923 -0.0146
 5854TIP3    H238978   5.389   5.914  14.278  0.3297 -1.2616 -1.2244
 5855TIP3   OH238979   0.571   5.255  14.243  0.2780  0.1767 -0.0520
 5855TIP3    H138980   0.518   5.179  14.221  1.6318 -0.4272 -1.4367
 5855TIP3    H238981   0.523   5.329  14.208 -0.7740 -0.0816  0.7964
 5856TIP3   OH238982   2.706   3.733  11.634  0.5280 -0.0874 -0.3993
 5856TIP3    H138983   2.652   3.658  11.656  0.6280  0.4041  1.7834
 5856TIP3    H238984   2.796   3.705  11.654  0.5840  0.5416  0.2766
 5857TIP3   OH238985   1.320   4.688   0.358 -0.2105  0.0699  0.1890
 5857TIP3    H138986   1.341   4.721   0.445 -1.0277 -1.6243  1.0693
 5857TIP3    H238987   1.331   4.593   0.364 -1.7594 -0.2452 -1.1028
 5858TIP3   OH238988   5.171   5.484   5.354 -0.3416  0.5983  0.5030
 5858TIP3    H138989   5.086   5.444   5.372 -0.0276 -1.3237 -1.7732
 5858TIP3    H238990   5.168   5.569   5.397 -2.5550 -0.3239  2.3246
 5859TIP3   OH238991   6.225   3.760  13.052  1.5647  0.1285 -0.3766
 5859TIP3    H138992   6.276   3.760  12.972  0.4673 -0.8722 -1.1162
 5859TIP3    H238993   6.161   3.831  13.040 -0.5647 -1.8798 -1.7796
 5860TIP3   OH238994   0.103   2.944  10.816  0.5029 -0.2223 -0.4447
 5860TIP3    H138995   0.034   2.999  10.778 -0.8953 -1.0633  0.7615
 5860TIP3    H238996   0.139   2.996  10.887  0.8865  0.0926 -0.8686
 5861TIP3   OH238997   4.180   5.099   4.893  0.0361  0.4130  0.3320
 5861TIP3    H138998   4.257   5.111   4.837 -0.8337 -0.8028 -1.2142
 5861TIP3    H238999   4.116   5.162   4.859  0.1207  0.9791  1.2016
 5862TIP3   OH239000   0.389   5.448  13.862 -0.5545  0.2766 -0.3804
 5862TIP3    H139001   0.388   5.531  13.814  1.8215  0.6051 -0.0106
 5862TIP3    H239002   0.472   5.407  13.836 -0.8710 -1.1845  0.7695
 5863TIP3   OH239003   4.488   4.587   9.891 -0.0449  0.1795 -0.1404
 5863TIP3    H139004   4.462   4.640   9.816 -1.4323  0.9369  0.8195
 5863TIP3    H239005   4.580   4.566   9.875  0.5710  2.8250 -0.6091
 5864TIP3   OH239006   0.798   4.577  11.364  0.2977  0.6801 -0.3826
 5864TIP3    H139007   0.742   4.649  11.392  1.2904  1.6424 -0.8263
 5864TIP3    H239008   0.885   4.615  11.355  1.1646 -0.8810  0.7626
 5865TIP3   OH239009   1.325   4.526  13.785  0.2670  0.4808 -0.4901
 5865TIP3    H139010   1.257   4.477  13.740  1.9851 -2.2829 -0.2961
 5865TIP3    H239011   1.398   4.530  13.723  0.1471  3.1343 -0.5961
 5866TIP3   OH239012   0.943   0.153  14.395 -0.3406  0.5965 -0.1149
 5866TIP3    H139013   0.934   0.087  14.326  2.4458  0.2955 -0.2701
 5866TIP3    H239014   1.037   0.162  14.408 -0.7348  1.3903  2.9575
 5867TIP3   OH239015   5.271   1.159  13.502  0.4743  0.0095  0.3243
 5867TIP3    H139016   5.273   1.067  13.477  0.4101  0.1752 -0.2929
 5867TIP3    H239017   5.280   1.158  13.598 -1.5388 -0.7529  0.5669
 5868TIP3   OH239018   4.015   5.486  13.245 -0.0793  0.2453  0.3487
 5868TIP3    H139019   3.986   5.528  13.326 -0.2282 -0.4545  0.6635
 5868TIP3    H239020   3.993   5.394  13.256 -1.8985  0.4087 -1.2680
 5869TIP3   OH239021   0.913   1.202  13.637  0.0694  0.1415 -0.3024
 5869TIP3    H139022   0.879   1.290  13.620 -1.1994  0.0097  1.3874
 5869TIP3    H239023   0.838   1.144  13.627  0.8276 -0.7555 -1.1080
 5870TIP3   OH239024   0.111   2.285   1.425 -1.0585 -0.0141  0.1881
 5870TIP3    H139025   0.126   2.208   1.480 -3.2209 -1.1310 -0.6441
 5870TIP3    H239026   0.194   2.332   1.425  0.0135 -1.7911  1.5818
 5871TIP3   OH239027   3.780   3.562   3.875  0.8516 -0.4369  0.1899
 5871TIP3    H139028   3.776   3.501   3.801 -0.4134 -1.0704  0.7595
 5871TIP3    H239029   3.754   3.511   3.951 -0.3693  0.8081  0.6711
 5872TIP3   OH239030   4.189   4.107  13.498 -0.4693  0.7158 -0.9566
 5872TIP3    H139031   4.274   4.081  13.463 -0.7039 -0.7532 -0.5204
 5872TIP3    H239032   4.163   4.182  13.445  0.8155  0.8028 -1.4973
 5873TIP3   OH239033   2.961   1.649   1.153  0.3018 -0.2175 -0.1096
 5873TIP3    H139034   2.920   1.617   1.234 -0.6543 -0.0069 -0.4950
 5873TIP3    H239035   2.889   1.656   1.091  0.8014  0.8972 -0.5880
 5874TIP3   OH239036   4.122   1.644  14.122  0.0697  0.4672 -0.3142
 5874TIP3    H139037   4.072   1.622  14.201  0.5689  1.8394  0.4345
 5874TIP3    H239038   4.212   1.617  14.143  0.0185 -0.1565 -0.8608
 5875TIP3   OH239039   1.267   2.376  11.790  0.0403  0.1374 -0.3932
 5875TIP3    H139040   1.236   2.400  11.703  2.8171 -1.4630 -1.9675
 5875TIP3    H239041   1.363   2.377  11.783  0.3619 -1.1384  2.3137
 5876TIP3   OH239042   4.578   3.381   5.622  0.7110 -0.2297  0.6501
 5876TIP3    H139043   4.602   3.450   5.683  0.0845  0.8304 -0.2617
 5876TIP3    H239044   4.482   3.375   5.627  0.5533  0.5282 -0.8666
 5877TIP3   OH239045   1.002   6.081  12.347  0.0450 -0.2300 -0.5981
 5877TIP3    H139046   0.925   6.121  12.307 -0.2496  0.2557  0.4423
 5877TIP3    H239047   0.967   6.007  12.397 -0.1447  1.5117  2.0475
 5878TIP3   OH239048   6.462   6.660  11.282  0.1854 -0.5317 -0.2633
 5878TIP3    H139049   6.383   6.705  11.252  0.6031  0.6160  0.3033
 5878TIP3    H239050   6.435   6.568  11.291 -1.3085 -0.0446  0.6798
 5879TIP3   OH239051   6.258   1.190   0.283 -0.4856 -0.2330 -0.2424
 5879TIP3    H139052   6.297   1.264   0.236  0.1512 -1.6977 -2.1240
 5879TIP3    H239053   6.201   1.148   0.220 -2.1727 -0.4146  1.3236
 5880TIP3   OH239054   5.345   4.517   3.028 -0.0107  0.0739  0.6791
 5880TIP3    H139055   5.272   4.497   3.086 -0.8181  4.1946  1.4122
 5880TIP3    H239056   5.423   4.496   3.079 -0.7120  0.4679  1.9620
 5881TIP3   OH239057   7.057   6.923  13.150  0.2043 -0.3829  0.0172
 5881TIP3    H139058   6.988   6.866  13.116 -0.2803 -0.3067  0.8539
 5881TIP3    H239059   7.013   7.007  13.166  0.5180 -0.2911  0.4157
 5882TIP3   OH239060   1.950   4.646  12.080  0.1098  0.1730 -0.3847
 5882TIP3    H139061   1.929   4.721  12.135 -0.0171  0.3881 -0.7257
 5882TIP3    H239062   1.941   4.570  12.138 -1.7423  0.2377 -0.5219
 5883TIP3   OH239063   0.699   6.469  11.569 -0.5891 -0.0536 -0.4235
 5883TIP3    H139064   0.642   6.480  11.646 -0.5944 -4.0146  0.3437
 5883TIP3    H239065   0.641   6.434  11.501  0.2146 -0.4758 -0.8954
 5884TIP3   OH239066   6.061   6.398  15.020  0.5432  0.1686 -0.3425
 5884TIP3    H139067   5.967   6.419  15.018  0.1109 -1.4791  0.5782
 5884TIP3    H239068   6.064   6.302  15.018  2.2009  0.1867 -0.0958
 5885TIP3   OH239069   2.552   3.291  11.450 -0.0944 -0.3961 -0.3107
 5885TIP3    H139070   2.523   3.279  11.359 -1.5971 -0.5538  0.1561
 5885TIP3    H239071   2.647   3.294  11.445 -0.1508 -0.4636 -1.8866
 5886TIP3   OH239072   4.827   2.565  12.410 -0.5673  0.7923 -0.3177
 5886TIP3    H139073   4.800   2.482  12.448 -0.1401  1.0349  0.5437
 5886TIP3    H239074   4.753   2.624  12.425 -0.8527  0.5871 -0.8912
 5887TIP3   OH239075   5.535   5.856  12.789  0.1279  0.5237 -0.0030
 5887TIP3    H139076   5.607   5.851  12.852 -0.8265  1.5916  1.2160
 5887TIP3    H239077   5.495   5.769  12.791  0.8321  0.1930 -0.0282
 5888TIP3   OH239078   2.131   2.883   0.467 -0.0063  0.5097 -0.4168
 5888TIP3    H139079   2.157   2.961   0.516  0.1945  0.5428 -0.5701
 5888TIP3    H239080   2.057   2.911   0.413 -0.8111  0.2399  0.5192
 5889TIP3   OH239081   4.099   6.875  13.288 -0.1934  0.2882 -0.1164
 5889TIP3    H139082   4.003   6.870  13.285 -0.1989  0.3573 -3.1737
 5889TIP3    H239083   4.122   6.930  13.213  2.2323  1.2038  1.2137
 5890TIP3   OH239084   1.396   6.577  11.627 -0.9720  0.0834  0.1716
 5890TIP3    H139085   1.383   6.563  11.533 -0.1713 -0.6517  0.1483
 5890TIP3    H239086   1.490   6.563  11.640 -0.7856  1.7822  0.8255
 5891TIP3   OH239087   5.770   6.380  11.447  0.4953  0.2335  0.1636
 5891TIP3    H139088   5.865   6.368  11.453  0.3991  0.1370  2.0021
 5891TIP3    H239089   5.734   6.294  11.469 -0.0171  0.6867  1.1911
 5892TIP3   OH239090   4.703   0.979  10.241  0.0368  0.0777 -0.1196
 5892TIP3    H139091   4.649   0.981  10.320  0.1320  1.3497 -0.0650
 5892TIP3    H239092   4.654   1.031  10.178  0.5510  0.0965 -0.5098
 5893TIP3   OH239093   4.413   5.662  15.388 -0.7874  0.1366 -0.1194
 5893TIP3    H139094   4.471   5.731  15.422  1.9157 -1.0887 -1.8466
 5893TIP3    H239095   4.435   5.585  15.440 -1.7574 -0.1004 -0.0465
 5894TIP3   OH239096   0.068   6.334  14.751 -0.2366 -0.0693  0.4818
 5894TIP3    H139097  -0.007   6.317  14.808  1.1307  1.0786  2.7362
 5894TIP3    H239098   0.106   6.247  14.735 -0.5484 -0.4055  1.4855
 5895TIP3   OH239099   4.137   0.292  12.679  0.1690 -0.3695 -0.0973
 5895TIP3    H139100   4.172   0.375  12.712  0.1381  0.9391 -3.1016
 5895TIP3    H239101   4.043   0.297  12.697  0.3814 -0.5068  1.1479
 5896TIP3   OH239102   0.312   3.807  15.068 -0.2500  0.0979  0.1393
 5896TIP3    H139103   0.368   3.857  15.127 -0.7909  1.0785 -0.1415
 5896TIP3    H239104   0.348   3.825  14.981  0.5999 -1.4122  0.1449
 5897TIP3   OH239105   4.318   3.684   2.809 -0.0274 -0.0549  0.2709
 5897TIP3    H139106   4.289   3.640   2.729 -0.3386 -1.0336  0.8980
 5897TIP3    H239107   4.410   3.659   2.818 -0.1123 -0.3136  0.4457
 5898TIP3   OH239108   4.318   1.274  10.602  0.0721  0.1078 -0.3783
 5898TIP3    H139109   4.267   1.354  10.613  0.9667  0.5167  1.0737
 5898TIP3    H239110   4.254   1.203  10.604 -0.7329  0.7660 -1.7092
 5899TIP3   OH239111   5.424   1.748  12.908 -0.7880 -0.0966 -0.0065
 5899TIP3    H139112   5.368   1.783  12.838 -1.6987  1.5071  1.4511
 5899TIP3    H239113   5.362   1.715  12.974  0.0428 -0.9097  0.3817
 5900TIP3   OH239114   1.342   1.898   0.233 -0.2780  0.9434 -0.0955
 5900TIP3    H139115   1.247   1.889   0.224 -0.4469  2.1013  0.3438
 5900TIP3    H239116   1.378   1.831   0.175 -1.3590  0.5645 -0.3590
 5901TIP3   OH239117   5.754   4.052  12.407 -0.2995 -0.1102  0.1437
 5901TIP3    H139118   5.748   3.996  12.485 -1.1771 -1.4757 -0.8548
 5901TIP3    H239119   5.688   4.120  12.421 -0.9889 -0.7920  0.2770
 5902TIP3   OH239120   1.310   3.750   0.169 -0.2085  0.5167 -0.3182
 5902TIP3    H139121   1.277   3.696   0.098  1.2388  0.8473 -1.2933
 5902TIP3    H239122   1.406   3.744   0.162  0.0397 -0.6561  2.5299
 5903TIP3   OH239123   2.915   2.809   0.837 -0.1034 -0.0170  0.0203
 5903TIP3    H139124   2.993   2.814   0.782  1.0927  0.2316  1.6558
 5903TIP3    H239125   2.873   2.726   0.812  3.1694 -2.6019  2.1036
 5904TIP3   OH239126   2.213   0.727   9.109  0.3707 -0.3636  0.1786
 5904TIP3    H139127   2.271   0.678   9.051  0.5191 -1.4969  1.2478
 5904TIP3    H239128   2.266   0.746   9.186 -0.5383 -1.0568  0.9961
 5905TIP3   OH239129   2.640   5.609  14.158 -0.4071 -0.0267  0.1412
 5905TIP3    H139130   2.574   5.637  14.221 -0.2975  1.2391 -0.2674
 5905TIP3    H239131   2.722   5.644  14.193 -0.3718  0.8627 -0.7732
 5906TIP3   OH239132   0.564   6.115   9.852  0.9190 -0.4565  0.3631
 5906TIP3    H139133   0.469   6.121   9.867  1.0790  0.9598  0.8987
 5906TIP3    H239134   0.574   6.128   9.757  0.4666 -2.4855 -0.0203
 5907TIP3   OH239135   6.689   6.643  15.049  0.0219 -0.2038 -0.4673
 5907TIP3    H139136   6.641   6.607  14.974 -2.1778  1.5005  0.0129
 5907TIP3    H239137   6.670   6.583  15.120 -0.2162 -0.3093 -0.6176
 5908TIP3   OH239138   1.925   5.339   0.766  0.1118  0.3084  0.3389
 5908TIP3    H139139   1.972   5.408   0.813 -1.4258  0.9358  1.0279
 5908TIP3    H239140   1.880   5.384   0.695 -2.3745  0.4169  1.8552
 5909TIP3   OH239141   2.832   0.366  11.334  0.3215  0.2042 -0.4264
 5909TIP3    H139142   2.796   0.455  11.328 -0.3731 -0.1513 -2.1737
 5909TIP3    H239143   2.756   0.312  11.357  0.5351 -0.0684 -0.3615
 5910TIP3   OH239144   0.072   2.936  10.483  0.0466  0.1742 -0.1367
 5910TIP3    H139145  -0.015   2.976  10.485  0.4625  1.0898  1.2651
 5910TIP3    H239146   0.094   2.924  10.575  0.3419 -2.4773 -0.4760
 5911TIP3   OH239147   3.984   6.810  10.370  0.4472  0.4530 -0.4017
 5911TIP3    H139148   3.895   6.783  10.347  0.3452  0.3197  0.1285
 5911TIP3    H239149   3.972   6.895  10.413  0.3748 -0.3297  1.2320
 5912TIP3   OH239150   0.542   3.472   2.647 -0.3522  0.6838 -0.2939
 5912TIP3    H139151   0.496   3.555   2.635  2.2200  2.0330 -1.7386
 5912TIP3    H239152   0.516   3.418   2.573 -0.7825  0.8297 -0.2475
 5913TIP3   OH239153   4.450   3.684  12.046  1.0257 -0.1229  0.5525
 5913TIP3    H139154   4.459   3.602  12.095  0.9967 -0.4270  0.0583
 5913TIP3    H239155   4.358   3.709  12.057  0.4873 -1.2592 -0.9851
 5914TIP3   OH239156   6.589   5.022   0.558  0.4477  0.2176  0.1722
 5914TIP3    H139157   6.589   4.932   0.525 -0.9342  0.7508 -1.3856
 5914TIP3    H239158   6.644   5.070   0.496  1.3187  0.4559  1.0930
 5915TIP3   OH239159   5.297   4.238  11.918  0.1976  0.6739 -0.1082
 5915TIP3    H139160   5.231   4.179  11.883  0.9038 -0.6801  0.7409
 5915TIP3    H239161   5.377   4.186  11.919  1.1940  2.1234 -0.6844
 5916TIP3   OH239162   3.664   1.667  10.380  0.0386 -0.1380  0.4369
 5916TIP3    H139163   3.651   1.742  10.438  0.9388  0.3761 -0.0208
 5916TIP3    H239164   3.703   1.703  10.300 -2.6849 -0.5782 -1.2132
 5917TIP3   OH239165   0.071   4.955   1.144  0.1105 -0.3600 -0.1584
 5917TIP3    H139166   0.024   4.876   1.171 -0.1063  0.4023  1.9340
 5917TIP3    H239167   0.016   4.995   1.078 -2.0260  0.2248  1.8446
 5918TIP3   OH239168   5.094   5.788  12.179 -0.5724 -0.5376  0.6980
 5918TIP3    H139169   5.042   5.750  12.250  0.5801 -1.3920  1.1143
 5918TIP3    H239170   5.069   5.739  12.102 -0.3095 -1.0265  0.9204
 5919TIP3   OH239171   5.086   0.081  10.671  0.3394  0.3807 -0.3310
 5919TIP3    H139172   5.083   0.076  10.576  2.9378 -0.5387 -0.4628
 5919TIP3    H239173   5.112   0.171  10.690  1.2000  0.1972 -0.5963
 5920TIP3   OH239174   0.837   0.719  10.571  0.5322 -0.2346  0.2431
 5920TIP3    H139175   0.795   0.747  10.490  1.4342  0.4277 -0.0144
 5920TIP3    H239176   0.803   0.779  10.638 -1.8524 -2.0952  0.8255
 5921TIP3   OH239177   1.930   5.561  10.128  0.0462 -0.7776 -0.8896
 5921TIP3    H139178   2.024   5.541  10.132  0.3225  0.2119 -2.0197
 5921TIP3    H239179   1.911   5.570  10.035 -0.9901 -0.1219 -0.6303
 5922TIP3   OH239180   2.466   4.452  10.350  0.0060  0.0362 -0.2063
 5922TIP3    H139181   2.438   4.492  10.268 -1.8083  0.2151  0.4393
 5922TIP3    H239182   2.457   4.358  10.335 -0.8341  0.0853 -0.0740
 5923TIP3   OH239183   0.187   4.943  14.947  0.3122 -0.2485 -0.3425
 5923TIP3    H139184   0.179   4.872  14.884  0.5194 -0.6378  0.0673
 5923TIP3    H239185   0.129   5.011  14.914 -0.3836 -0.8597 -0.3936
 5924TIP3   OH239186   6.518   1.675  11.895  0.7979  0.0062 -0.0134
 5924TIP3    H139187   6.509   1.690  11.989  0.0051 -0.1470 -0.0517
 5924TIP3    H239188   6.526   1.580  11.887  0.4040 -0.0199 -0.1246
 5925TIP3   OH239189   2.771   2.188  12.907 -0.4376  0.0648 -0.1124
 5925TIP3    H139190   2.847   2.163  12.960  0.5499 -2.1420 -2.3611
 5925TIP3    H239191   2.720   2.108  12.900 -1.4298  0.7631 -1.0984
 5926TIP3   OH239192   4.917   1.377  12.609 -0.0063  0.0872  0.1170
 5926TIP3    H139193   4.853   1.309  12.587  0.3258 -0.0980 -0.3071
 5926TIP3    H239194   4.955   1.402  12.524 -1.6160  2.3515 -0.0272
 5927TIP3   OH239195   3.031   4.499  13.099 -0.1303 -0.3194 -0.5619
 5927TIP3    H139196   3.073   4.533  13.178 -2.3786  2.1630 -0.3009
 5927TIP3    H239197   3.040   4.404  13.106  3.0041 -0.0607  0.7329
 5928TIP3   OH239198   0.242   4.686  13.404 -0.0499  0.4870  0.2319
 5928TIP3    H139199   0.164   4.685  13.459  1.0473 -1.6814  1.9089
 5928TIP3    H239200   0.223   4.624  13.334 -0.5881  1.5838 -0.6398
 5929TIP3   OH239201   4.248   2.722   0.053 -0.0020  0.0330  0.2775
 5929TIP3    H139202   4.235   2.803   0.102 -0.3928 -1.0691  2.0754
 5929TIP3    H239203   4.305   2.669   0.108  2.2151 -0.0473 -1.9321
 5930TIP3   OH239204   0.472   1.860   9.810 -0.4246 -0.3184 -0.2396
 5930TIP3    H139205   0.490   1.931   9.872 -1.0330 -1.4320  1.2841
 5930TIP3    H239206   0.410   1.898   9.748 -0.8812  0.4504  0.6471
 5931TIP3   OH239207   5.510   0.476   1.898 -0.0670  0.0104  0.1074
 5931TIP3    H139208   5.563   0.419   1.842  0.4410 -0.7757  1.3642
 5931TIP3    H239209   5.571   0.539   1.935 -0.2627  0.0244  0.4122
 5932TIP3   OH239210   4.815   2.128  14.409 -0.4211 -0.2167 -0.1284
 5932TIP3    H139211   4.868   2.200  14.376  0.9451 -1.4444 -0.7305
 5932TIP3    H239212   4.773   2.162  14.488  1.3787  0.7684  0.4411
 5933TIP3   OH239213   2.810   4.487  14.777 -0.0596 -0.0821 -1.3286
 5933TIP3    H139214   2.790   4.497  14.684 -0.2514  0.4784 -1.2298
 5933TIP3    H239215   2.901   4.516  14.785 -0.6296  1.7251 -1.0336
 5934TIP3   OH239216   4.922   5.716   9.813  0.3283  0.0135  0.2024
 5934TIP3    H139217   4.840   5.687   9.773  0.8866 -2.8242  0.8400
 5934TIP3    H239218   4.945   5.796   9.766 -1.1862 -0.8428 -2.1927
 5935TIP3   OH239219   5.788   4.240  14.439 -0.4616 -0.3963  0.6000
 5935TIP3    H139220   5.757   4.321  14.480 -2.0950 -0.6295 -0.1041
 5935TIP3    H239221   5.821   4.187  14.512 -1.5513 -0.0338  1.3732
 5936TIP3   OH239222   6.013   5.874  13.819 -0.3052 -0.0220  0.3950
 5936TIP3    H139223   5.980   5.784  13.820  1.0163 -0.5249  1.0931
 5936TIP3    H239224   6.063   5.881  13.738 -1.3653  0.4685 -0.2346
 5937TIP3   OH239225   5.857   3.005  14.281  0.1565 -0.4509 -0.5131
 5937TIP3    H139226   5.880   3.006  14.374  1.2479 -1.1068 -0.7598
 5937TIP3    H239227   5.847   2.912  14.260 -2.5724 -0.2363 -0.4950
 5938TIP3   OH239228   4.302   2.195   2.210 -0.1733  0.0364  0.2167
 5938TIP3    H139229   4.264   2.107   2.212  1.9661 -0.9935 -1.0845
 5938TIP3    H239230   4.271   2.233   2.127 -1.9448  0.9705  1.2578
 5939TIP3   OH239231   7.143   2.833  15.340  0.0706 -0.2306 -0.1194
 5939TIP3    H139232   7.107   2.756  15.297  1.3488 -0.3764 -1.0105
 5939TIP3    H239233   7.120   2.906  15.283 -0.6167 -0.0299  0.4070
 5940TIP3   OH239234   3.101   0.358  13.174  0.0452  0.1436  0.0341
 5940TIP3    H139235   3.112   0.419  13.247  1.6984 -0.9663  0.7645
 5940TIP3    H239236   3.100   0.414  13.096 -1.8672  1.3593  0.8536
 5941TIP3   OH239237   6.443   2.418  12.888 -0.2798 -0.2153  0.1194
 5941TIP3    H139238   6.473   2.503  12.855  0.4859 -0.6692 -0.3852
 5941TIP3    H239239   6.360   2.402  12.842  0.0420 -0.1664 -0.4884
 5942TIP3   OH239240   0.676   5.296  15.430 -0.3404 -0.4324  0.3051
 5942TIP3    H139241   0.602   5.282  15.371 -0.6035  0.5543  0.3875
 5942TIP3    H239242   0.734   5.355  15.381  0.0202 -0.5762  0.5540
 5943TIP3   OH239243   1.197   1.530   1.851 -0.0978 -0.4248  0.0986
 5943TIP3    H139244   1.213   1.513   1.943  0.5161  0.1822  0.1147
 5943TIP3    H239245   1.231   1.618   1.836  1.9409 -1.3361 -1.1965
 5944TIP3   OH239246   0.032   2.603  13.422 -0.6843  0.4420  0.4661
 5944TIP3    H139247   0.078   2.529  13.461  0.6302  1.1903  0.4029
 5944TIP3    H239248   0.022   2.580  13.329 -0.2353  0.3607  0.4369
 5945TIP3   OH239249   1.599   5.729   0.794 -0.4863 -0.0451  0.0420
 5945TIP3    H139250   1.655   5.711   0.870 -0.7480 -0.6007  0.1076
 5945TIP3    H239251   1.555   5.646   0.776  0.1910 -0.1666 -1.2286
 5946TIP3   OH239252   4.923   5.066   9.737  0.1975 -0.1602  0.3329
 5946TIP3    H139253   4.885   5.132   9.678 -0.1044 -0.9177 -0.3375
 5946TIP3    H239254   4.966   5.118   9.806  0.4996  0.7450 -0.5049
 5947TIP3   OH239255   0.415   2.805  13.842 -0.5874  0.2660 -0.1390
 5947TIP3    H139256   0.375   2.827  13.926 -0.7621  0.8243 -0.3655
 5947TIP3    H239257   0.342   2.775  13.788 -0.0889 -3.0663  0.8316
 5948TIP3   OH239258   5.554   1.522   2.174 -0.0668 -0.3908  0.0846
 5948TIP3    H139259   5.579   1.606   2.136  0.3704 -0.8290 -0.6270
 5948TIP3    H239260   5.482   1.542   2.232  0.3628  0.5531  0.3083
 5949TIP3   OH239261   5.845   1.587  11.505 -0.5001  0.1615  0.4410
 5949TIP3    H139262   5.857   1.501  11.545 -1.5809 -0.8855 -1.3717
 5949TIP3    H239263   5.924   1.601  11.452  0.6725  1.3024  2.3676
 5950TIP3   OH239264   2.347   6.327  12.835  0.4988 -0.4756  0.4803
 5950TIP3    H139265   2.353   6.390  12.763  0.4474  1.7979  2.3423
 5950TIP3    H239266   2.415   6.356  12.896 -0.3272 -1.5327  1.9381
 5951TIP3   OH239267   2.812   6.911  12.581 -0.3721 -0.5590 -0.3393
 5951TIP3    H139268   2.860   6.936  12.660  1.0541 -1.0828 -0.9932
 5951TIP3    H239269   2.841   6.821  12.563 -0.4470 -0.3469 -1.6069
 5952TIP3   OH239270   3.638   3.488  12.363  0.4875 -0.0201  0.3503
 5952TIP3    H139271   3.546   3.466  12.346  0.1500  0.5146  1.3701
 5952TIP3    H239272   3.645   3.581  12.341  0.8920 -0.1534 -0.1015
 5953TIP3   OH239273   4.800   3.936  13.403 -0.3945 -0.9943 -0.1156
 5953TIP3    H139274   4.711   3.923  13.436 -1.3592 -0.5740 -2.3559
 5953TIP3    H239275   4.822   3.852  13.361  0.5814 -1.3323  1.0089
 5954TIP3   OH239276   0.734   5.355  10.990 -0.1796 -0.1998 -0.1866
 5954TIP3    H139277   0.643   5.327  10.978  0.0144  0.0736 -2.8269
 5954TIP3    H239278   0.783   5.273  10.999 -0.5905 -0.3580  0.8566
 5955TIP3   OH239279   4.085   1.481   0.674  0.2828  0.5974 -0.0141
 5955TIP3    H139280   4.036   1.544   0.727  0.4084 -0.6459  1.6770
 5955TIP3    H239281   4.150   1.533   0.628 -0.4829  1.8589  0.2869
 5956TIP3   OH239282   2.591   1.372   9.864 -0.2456 -0.3390  0.3337
 5956TIP3    H139283   2.679   1.410   9.874  0.4593 -1.8295 -0.0472
 5956TIP3    H239284   2.599   1.283   9.897 -1.6455 -0.4951  0.3198
 5957TIP3   OH239285   4.108   6.633  10.174  0.0880 -0.1124 -0.2948
 5957TIP3    H139286   4.173   6.565  10.191  0.1801  0.1207  0.3065
 5957TIP3    H239287   4.025   6.594  10.201 -0.2038 -0.7796 -1.9788
 5958TIP3   OH239288   4.563   6.142   5.281  0.3805  0.1140  0.4831
 5958TIP3    H139289   4.524   6.055   5.276 -1.3480  0.8860 -0.1024
 5958TIP3    H239290   4.511   6.188   5.346  1.2448  0.7460  0.7439
 5959TIP3   OH239291   5.903   3.591  11.892 -0.2334  0.0971 -0.1873
 5959TIP3    H139292   5.995   3.566  11.884 -0.2168  0.6642 -3.0807
 5959TIP3    H239293   5.905   3.686  11.908 -0.3077 -0.0044  0.4196
 5960TIP3   OH239294   6.877   3.981  12.356 -0.5292 -0.2988 -0.1635
 5960TIP3    H139295   6.952   4.016  12.403 -1.0895  1.7027 -0.6260
 5960TIP3    H239296   6.904   3.983  12.264 -0.1481 -2.3087 -0.1316
 5961TIP3   OH239297   6.752   2.888   0.562 -0.0963  0.5633 -0.4981
 5961TIP3    H139298   6.706   2.947   0.622 -0.0668 -0.8779  1.0350
 5961TIP3    H239299   6.837   2.873   0.604 -0.7503 -1.8822  0.1057
 5962TIP3   OH239300   4.449   3.524   2.119 -0.0019  0.7860  0.2760
 5962TIP3    H139301   4.400   3.443   2.105 -1.3766  1.8207 -1.3648
 5962TIP3    H239302   4.504   3.531   2.041 -0.2463  1.6459  0.1733
 5963TIP3   OH239303   0.358   6.487  14.945  0.1126  0.5350 -0.0432
 5963TIP3    H139304   0.438   6.446  14.911 -1.6074 -2.1334 -1.1680
 5963TIP3    H239305   0.323   6.536  14.870  0.8549  2.1298  0.5908
 5964TIP3   OH239306   1.629   2.860   0.704  0.5758 -0.3635 -0.2580
 5964TIP3    H139307   1.550   2.895   0.746  1.2908  2.5880 -1.1155
 5964TIP3    H239308   1.604   2.771   0.677 -2.3102  0.2769 -0.1074
 5965TIP3   OH239309   2.684   2.399   0.176  0.3375  0.5824 -0.3619
 5965TIP3    H139310   2.627   2.426   0.103 -0.0615  1.4670  0.2623
 5965TIP3    H239311   2.629   2.343   0.230 -0.4443  2.5608  0.9976
 5966TIP3   OH239312   4.549   0.260   9.749 -0.0628 -0.2016 -0.0433
 5966TIP3    H139313   4.472   0.236   9.698  0.0620  0.4334 -0.5482
 5966TIP3    H239314   4.521   0.335   9.802 -0.0935 -0.6438  0.5816
 5967TIP3   OH239315   0.408   0.499   3.009  0.2005  0.2335 -0.0273
 5967TIP3    H139316   0.366   0.418   3.035 -2.2806  0.7642 -2.0074
 5967TIP3    H239317   0.398   0.502   2.914 -0.0434  2.9815  0.0024
 5968TIP3   OH239318   4.630   3.625  12.776 -0.1140  0.0893 -0.2062
 5968TIP3    H139319   4.628   3.569  12.854 -1.5263 -0.6141 -0.7188
 5968TIP3    H239320   4.696   3.585  12.719 -0.0509 -0.1737  0.0504
 5969TIP3   OH239321   1.821   1.033  11.964  0.2678 -0.2294  0.5072
 5969TIP3    H139322   1.781   1.045  12.050 -0.7888  0.3461 -0.0471
 5969TIP3    H239323   1.884   1.105  11.957 -1.9548  1.7471 -0.4659
 5970TIP3   OH239324   3.879   1.856  10.470  0.4192  0.5177  0.3041
 5970TIP3    H139325   3.919   1.769  10.467  0.1629  0.3848  0.6622
 5970TIP3    H239326   3.883   1.888  10.380 -0.4083 -0.2811 -0.0286
 5971TIP3   OH239327   1.142   0.192   0.599 -0.3040 -0.0050  0.1110
 5971TIP3    H139328   1.084   0.127   0.558  1.1079 -0.8093 -0.7011
 5971TIP3    H239329   1.220   0.192   0.544  0.0527  1.8335  0.5687
 5972TIP3   OH239330   6.129   4.517   3.074 -0.5473 -0.3999 -0.0047
 5972TIP3    H139331   6.216   4.545   3.043 -0.8341  0.4654 -0.0596
 5972TIP3    H239332   6.102   4.587   3.134 -2.4511  0.8657 -2.1721
 5973TIP3   OH239333   1.581   1.863  11.272  0.6667  0.3784  0.0953
 5973TIP3    H139334   1.672   1.885  11.294  0.7776  0.7843 -0.7385
 5973TIP3    H239335   1.582   1.850  11.177 -0.1433  0.3557  0.0847
 5974TIP3   OH239336   3.907   1.911  10.191  0.5483  0.1449 -0.5232
 5974TIP3    H139337   3.898   1.819  10.165 -2.5252  0.2830 -0.2992
 5974TIP3    H239338   3.906   1.959  10.108  1.2104  0.0294 -0.5996
 5975TIP3   OH239339   1.025   7.079  13.853 -0.2344 -0.6900  0.0196
 5975TIP3    H139340   0.988   7.136  13.786  0.9293  0.4924  0.3433
 5975TIP3    H239341   1.005   6.991  13.823 -0.6554 -0.1614 -1.3255
 5976TIP3   OH239342   6.339   5.370   0.532  0.0729  0.3716 -0.2946
 5976TIP3    H139343   6.254   5.328   0.526  1.1270 -2.1933  1.1172
 5976TIP3    H239344   6.323   5.449   0.583 -1.3918 -0.3629  0.4544
 5977TIP3   OH239345   3.076   0.784   3.627 -0.3231  0.0387  0.4841
 5977TIP3    H139346   3.168   0.762   3.615 -0.4416 -0.0633 -0.2992
 5977TIP3    H239347   3.070   0.876   3.602 -0.6769 -0.3261 -0.8332
 5978TIP3   OH239348   3.641   5.332   2.562  0.1109  0.1792  0.4448
 5978TIP3    H139349   3.661   5.349   2.470  0.8465  0.2494  0.6098
 5978TIP3    H239350   3.706   5.384   2.610  1.0430 -1.4263  0.9772
 5979TIP3   OH239351   5.120   2.237   0.866 -0.0252 -0.0710 -0.3099
 5979TIP3    H139352   5.175   2.197   0.932 -0.6182 -0.9346 -0.3178
 5979TIP3    H239353   5.045   2.178   0.858 -1.6223  1.7224  0.6469
 5980TIP3   OH239354   5.422   2.275  11.326 -0.1479  0.1887  0.2228
 5980TIP3    H139355   5.438   2.357  11.279  0.3344  0.1855  0.3749
 5980TIP3    H239356   5.335   2.248  11.297 -0.4002  0.8544  0.3231
 5981TIP3   OH239357   2.665   5.279  10.339  0.5324 -0.3816 -0.0744
 5981TIP3    H139358   2.596   5.285  10.273 -0.3494 -0.3002  0.8325
 5981TIP3    H239359   2.694   5.188  10.335 -0.1232 -0.6006  0.0083
 5982TIP3   OH239360   4.910   6.243  14.584  0.0520 -0.4175 -0.0338
 5982TIP3    H139361   4.981   6.299  14.554 -0.8971  0.8797  0.0449
 5982TIP3    H239362   4.878   6.201  14.504  1.1162 -1.2919 -0.0186
 5983TIP3   OH239363   3.457   1.222   4.518 -0.0441  0.3095 -0.1146
 5983TIP3    H139364   3.503   1.271   4.587  0.6232 -0.7817  0.2341
 5983TIP3    H239365   3.469   1.275   4.439  0.0730  1.0500  0.3873
 5984TIP3   OH239366   4.043   5.537  10.051  0.4129  0.3821 -1.0070
 5984TIP3    H139367   4.039   5.615  10.105 -0.8337 -1.1165  1.2104
 5984TIP3    H239368   4.128   5.498  10.071  0.3221  0.2799 -0.8265
 5985TIP3   OH239369   0.662   6.245   2.368 -0.3831 -0.3425  0.1322
 5985TIP3    H139370   0.742   6.273   2.413 -1.5882 -0.6500  2.5960
 5985TIP3    H239371   0.658   6.151   2.382 -0.7032 -0.4738 -0.7928
 5986TIP3   OH239372   6.072   4.397  11.313 -0.4346  0.3275 -0.1683
 5986TIP3    H139373   6.119   4.407  11.230 -3.6011 -0.0809 -2.1585
 5986TIP3    H239374   6.100   4.473  11.365  0.8500  1.1822 -1.9845
 5987TIP3   OH239375   5.171   6.012  13.452 -0.0294  0.1154 -0.7643
 5987TIP3    H139376   5.095   5.976  13.499  0.9319 -0.2021  0.5931
 5987TIP3    H239377   5.133   6.079  13.395 -1.4336 -0.6185 -0.7407
 5988TIP3   OH239378   0.679   3.552  10.443  0.1154 -0.1178  0.2734
 5988TIP3    H139379   0.671   3.512  10.357  0.8440 -0.5469  0.4017
 5988TIP3    H239380   0.594   3.595  10.457  0.1101  0.2546 -0.7953
 5989TIP3   OH239381   0.606   4.594  10.953  0.1977  1.3555 -0.2926
 5989TIP3    H139382   0.556   4.653  11.010  0.0666  1.0456 -0.0909
 5989TIP3    H239383   0.697   4.605  10.981  0.1521  1.3239 -0.1343
 5990TIP3   OH239384   5.747   6.535  14.590  0.1501  0.5220 -1.1361
 5990TIP3    H139385   5.801   6.529  14.511  0.5401  1.1140 -0.9245
 5990TIP3    H239386   5.708   6.622  14.586  1.1849  1.0680 -0.0482
 5991TIP3   OH239387   0.933   2.491  15.209  0.0588  0.5117 -0.0347
 5991TIP3    H139388   0.955   2.409  15.165 -0.7397  1.5912 -2.6142
 5991TIP3    H239389   0.847   2.475  15.248  1.1613 -0.7458  2.1074
 5992TIP3   OH239390   3.673   4.489  11.650  0.2122 -0.4440  0.1777
 5992TIP3    H139391   3.746   4.432  11.675 -0.5491 -1.0137  1.1512
 5992TIP3    H239392   3.617   4.434  11.596  0.1512 -0.1958 -0.0180
 5993TIP3   OH239393   6.088   0.876  11.027 -0.0407  0.5967  0.5064
 5993TIP3    H139394   6.172   0.877  11.072 -0.1732  1.0176  0.7514
 5993TIP3    H239395   6.063   0.783  11.026  1.1867  0.2457 -1.0224
 5994TIP3   OH239396   4.886   6.758  12.497 -0.2883 -0.7531 -0.0004
 5994TIP3    H139397   4.951   6.780  12.431  0.7730 -0.9658  0.9330
 5994TIP3    H239398   4.918   6.800  12.577 -0.0029 -2.7928  1.0356
 5995TIP3   OH239399   5.191   2.785  15.368 -0.2279  0.6897  0.3285
 5995TIP3    H139400   5.118   2.765  15.308  1.9272 -0.7940 -1.9743
 5995TIP3    H239401   5.148   2.799  15.452 -3.1154 -1.1504 -0.6608
 5996TIP3   OH239402   4.807   2.331  13.348  0.5313  0.1259 -0.5961
 5996TIP3    H139403   4.843   2.283  13.423  0.0902 -0.1292 -0.5427
 5996TIP3    H239404   4.849   2.417  13.351 -0.5875  0.6401  0.8097
 5997TIP3   OH239405   2.207   6.034   2.085  0.2428  0.3677 -0.0807
 5997TIP3    H139406   2.190   6.044   2.178 -0.2885  1.1365 -0.2522
 5997TIP3    H239407   2.303   6.038   2.078  0.3833 -1.0978  0.5659
 5998TIP3   OH239408   0.548   1.801   4.416 -0.4051 -0.4214 -0.0089
 5998TIP3    H139409   0.604   1.728   4.389 -1.0327 -1.1057  0.4907
 5998TIP3    H239410   0.496   1.821   4.338  0.8483  0.5371 -0.6215
 5999TIP3   OH239411   4.864   4.824  14.138  0.2198  0.1028  0.1363
 5999TIP3    H139412   4.830   4.736  14.122  0.4097 -0.2003  1.2571
 5999TIP3    H239413   4.845   4.873  14.058  2.8708 -1.7500 -1.8162
 6000TIP3   OH239414   4.830   1.736  13.545 -0.4615 -0.3625  0.6753
 6000TIP3    H139415   4.790   1.808  13.594 -1.3008 -0.9123  0.8335
 6000TIP3    H239416   4.896   1.700  13.604 -0.7039 -0.3232  0.9724
 6001TIP3   OH239417   3.272   4.061  11.241 -0.4282  0.4732  0.1935
 6001TIP3    H139418   3.220   4.138  11.263  0.6427  1.3881 -0.3702
 6001TIP3    H239419   3.362   4.093  11.236  0.0890 -0.8881  0.2743
 6002TIP3   OH239420   5.552   3.209   9.889  0.3314  0.2449 -0.8436
 6002TIP3    H139421   5.610   3.176   9.821 -0.5386  0.4068 -1.6905
 6002TIP3    H239422   5.465   3.178   9.863 -0.0466  0.4966  0.0747
 6003TIP3   OH239423   0.027   5.256  14.464  0.0525  0.3060 -0.0758
 6003TIP3    H139424  -0.048   5.306  14.495  0.0622  1.2930 -1.5628
 6003TIP3    H239425   0.093   5.322  14.442  0.5881 -0.4297 -0.7417
 6004TIP3   OH239426   4.848   0.094  11.782 -0.3182  0.1352 -0.1942
 6004TIP3    H139427   4.926   0.057  11.822  0.7677  0.7371 -1.6494
 6004TIP3    H239428   4.854   0.188  11.800  0.3006  0.4471 -1.8596
 6005TIP3   OH239429   5.050   2.865  13.635 -0.2945  0.0699 -0.0344
 6005TIP3    H139430   5.138   2.902  13.642 -0.4404  0.3110  0.6078
 6005TIP3    H239431   4.994   2.930  13.676 -0.8537  0.1708 -0.9290
 6006TIP3   OH239432   3.399   0.780   1.145 -0.6830 -0.2948  0.2783
 6006TIP3    H139433   3.439   0.806   1.062  0.2964 -1.3814  0.3863
 6006TIP3    H239434   3.358   0.860   1.178 -0.1387  0.4129 -0.7249
 6007TIP3   OH239435   0.597   3.565  14.244 -0.2313 -0.4162 -0.1880
 6007TIP3    H139436   0.544   3.639  14.273 -0.6082 -0.2878 -1.1896
 6007TIP3    H239437   0.630   3.591  14.158  0.0213 -1.2169 -0.3373
 6008TIP3   OH239438   1.262   4.009   4.854 -0.5730  0.0840  0.1054
 6008TIP3    H139439   1.214   3.997   4.936  0.4910 -0.8205  0.6108
 6008TIP3    H239440   1.306   4.093   4.864  0.3954 -0.5103  0.9043
 6009TIP3   OH239441   3.025   3.864  15.235 -0.2691  0.2005  0.0999
 6009TIP3    H139442   3.096   3.879  15.173  0.8737  0.7611  1.4798
 6009TIP3    H239443   2.960   3.931  15.214 -1.0596 -1.1193 -2.0167
 6010TIP3   OH239444   1.136   5.353  13.119 -0.1404 -0.2404 -0.2515
 6010TIP3    H139445   1.208   5.405  13.155 -0.3328 -0.8441  1.0759
 6010TIP3    H239446   1.136   5.273  13.171 -2.0817 -0.0319  0.1566
 6011TIP3   OH239447   2.109   1.373  12.189  0.7063 -0.3536  0.4576
 6011TIP3    H139448   2.075   1.457  12.156  0.9626 -0.6111 -0.4969
 6011TIP3    H239449   2.191   1.396  12.233  2.1259 -0.3414 -1.9779
 6012TIP3   OH239450   4.230   1.713  10.210  0.3140 -0.5176 -0.3201
 6012TIP3    H139451   4.241   1.769  10.133 -1.8420 -0.5899 -0.7449
 6012TIP3    H239452   4.296   1.743  10.272  1.2867  0.3677 -1.7280
 6013TIP3   OH239453   3.868   3.294   1.021 -0.1459  0.1094 -0.3389
 6013TIP3    H139454   3.799   3.278   0.957 -1.5095  0.4206  1.0134
 6013TIP3    H239455   3.825   3.342   1.092  1.1891 -0.6791  1.0598
 6014TIP3   OH239456   4.051   0.029   0.231 -0.6104 -0.1629 -0.0393
 6014TIP3    H139457   4.068  -0.054   0.275 -0.7698 -0.2965 -0.2262
 6014TIP3    H239458   4.016   0.085   0.300 -1.2284 -0.4939 -0.0668
 6015TIP3   OH239459   3.543   6.138  10.350  0.6230 -0.0850 -0.8002
 6015TIP3    H139460   3.541   6.043  10.362 -0.0787 -0.1278 -1.2411
 6015TIP3    H239461   3.623   6.165  10.395 -0.0292 -0.6795  0.7885
 6016TIP3   OH239462   3.623   5.937  13.213  0.1426  0.6212 -0.4634
 6016TIP3    H139463   3.607   6.015  13.266 -2.6434  0.4936 -0.9716
 6016TIP3    H239464   3.626   5.970  13.123 -0.4387  0.2339 -0.6305
 6017TIP3   OH239465   4.839   2.276  14.798  0.2109  0.4670  0.0163
 6017TIP3    H139466   4.793   2.303  14.719  0.0090 -1.3646 -0.5226
 6017TIP3    H239467   4.873   2.358  14.835 -1.8654  1.6595 -0.5655
 6018TIP3   OH239468   1.086   1.624  13.805 -0.1999  0.0441 -0.1584
 6018TIP3    H139469   1.102   1.544  13.855  1.2787 -0.2722 -1.0632
 6018TIP3    H239470   1.009   1.605  13.753  1.6379 -1.8972 -2.4077
 6019TIP3   OH239471   1.597   6.543  12.914 -0.1097 -0.6347 -0.2433
 6019TIP3    H139472   1.625   6.592  12.991  0.4344 -0.0356 -0.8114
 6019TIP3    H239473   1.664   6.560  12.848 -1.2753  0.0432 -1.3276
 6020TIP3   OH239474   3.229   0.156  10.576  0.3588 -0.5310 -0.5460
 6020TIP3    H139475   3.193   0.102  10.505  0.1746 -0.5337 -0.4493
 6020TIP3    H239476   3.156   0.168  10.637  0.7209 -1.1485  0.0129
 6021TIP3   OH239477   5.212   4.399  10.095 -0.0813 -0.5433 -0.3077
 6021TIP3    H139478   5.293   4.360  10.064  1.2504 -0.4659  2.7159
 6021TIP3    H239479   5.239   4.482  10.133 -1.8289  0.1415 -0.4879
 6022TIP3   OH239480   3.739   3.562  11.892 -0.0623 -0.0623 -0.5080
 6022TIP3    H139481   3.723   3.643  11.843 -2.2967 -1.3621 -2.0857
 6022TIP3    H239482   3.705   3.580  11.980  1.2493  1.2968 -0.2312
 6023TIP3   OH239483   1.630   0.194   3.498 -0.1005 -0.2190  0.5472
 6023TIP3    H139484   1.615   0.172   3.406  1.8460  2.3166 -0.5056
 6023TIP3    H239485   1.550   0.240   3.525 -0.7242 -1.0625  0.2116
 6024TIP3   OH239486   3.412   0.014  12.935  0.0196 -0.1878 -0.0313
 6024TIP3    H139487   3.395   0.109  12.934  1.1965  0.0378 -0.4842
 6024TIP3    H239488   3.328  -0.025  12.910 -0.3440  0.7638 -0.3678
 6025TIP3   OH239489   0.988   2.394   2.270 -1.0712  1.0807 -0.3949
 6025TIP3    H139490   1.006   2.465   2.209 -1.3609  1.2510 -0.2842
 6025TIP3    H239491   0.894   2.400   2.286 -1.1897  0.3684 -0.7728
 6026TIP3   OH239492   2.978   6.008   1.357  0.2166  0.4477  0.2361
 6026TIP3    H139493   3.066   5.983   1.329 -0.1995 -0.5065 -0.2623
 6026TIP3    H239494   2.955   5.943   1.424  0.4509  1.5754  1.4643
 6027TIP3   OH239495   2.486   0.812   9.718  0.3027  0.1698 -1.2166
 6027TIP3    H139496   2.448   0.727   9.740  2.3288 -0.6708 -0.6971
 6027TIP3    H239497   2.432   0.875   9.766 -0.2246 -0.9669 -0.2292
 6028TIP3   OH239498   3.139   0.987  13.220  0.0226  0.3812  0.4674
 6028TIP3    H139499   3.055   0.997  13.176  0.1855 -0.7932 -0.1546
 6028TIP3    H239500   3.142   1.059  13.283 -1.4852  0.3816  0.5769
 6029TIP3   OH239501   3.378   4.785  12.009  0.3571  0.2621  0.3301
 6029TIP3    H139502   3.351   4.877  12.011  0.5711  0.5002 -2.6597
 6029TIP3    H239503   3.298   4.737  11.988  0.3796 -0.1777  1.2195
 6030TIP3   OH239504   3.932   4.106  12.995  0.7825  0.1503 -0.1802
 6030TIP3    H139505   4.004   4.136  12.940 -0.9495  2.2355 -1.4694
 6030TIP3    H239506   3.964   4.120  13.085  2.6903 -0.9240 -0.6248
 6031TIP3   OH239507   1.169   3.555   1.174 -0.7868  0.1075  0.1615
 6031TIP3    H139508   1.204   3.628   1.124  0.4265  0.1210  0.9892
 6031TIP3    H239509   1.122   3.595   1.246 -0.0209  0.0975  0.6829
 6032TIP3   OH239510   3.092   3.693   3.458  0.0242  0.2947 -0.0918
 6032TIP3    H139511   3.083   3.678   3.364  0.4411 -1.3836  0.0946
 6032TIP3    H239512   3.058   3.781   3.472 -3.1171 -0.5754 -1.3547
 6033TIP3   OH239513   3.082   4.855   5.796  0.6561  0.4736 -0.5837
 6033TIP3    H139514   3.095   4.911   5.873 -3.0889  0.5637  0.1722
 6033TIP3    H239515   3.112   4.769   5.824  1.2782  0.9342  0.2094
 6034TIP3   OH239516   5.963   3.326  10.607 -0.2957 -0.3179  0.1816
 6034TIP3    H139517   6.025   3.396  10.628 -1.1236  0.0497  1.5832
 6034TIP3    H239518   5.936   3.345  10.517  0.4141  0.4491  0.1093
 6035TIP3   OH239519   2.473   4.612  14.144 -0.1593 -0.2871 -0.0989
 6035TIP3    H139520   2.472   4.517  14.132 -2.9667 -0.5012  0.9829
 6035TIP3    H239521   2.458   4.624  14.238  0.2879  1.2413 -0.2053
 6036TIP3   OH239522   2.744   3.449  11.132 -0.3176 -0.1338 -0.2863
 6036TIP3    H139523   2.700   3.388  11.192 -2.3213  0.9114 -0.5962
 6036TIP3    H239524   2.742   3.533  11.178  0.6044  0.1265 -0.7044
 6037TIP3   OH239525   0.003   1.511  10.014 -0.0456 -0.0106  0.4547
 6037TIP3    H139526   0.070   1.562   9.968 -0.5460 -0.4800 -0.8395
 6037TIP3    H239527   0.030   1.420  10.002  0.0726 -0.1276  1.5263
 6038TIP3   OH239528   5.016   5.181  12.706  0.7979 -0.1362  0.0988
 6038TIP3    H139529   5.092   5.214  12.754 -0.4030  0.1633  1.8726
 6038TIP3    H239530   5.053   5.130  12.634  2.6685 -0.2476  1.0939
 6039TIP3   OH239531   1.242   6.047  10.935  0.4298  0.2718  0.5265
 6039TIP3    H139532   1.320   6.102  10.925 -0.6598  1.5671 -1.6918
 6039TIP3    H239533   1.276   5.960  10.954  2.3585  1.0025  0.6721
 6040TIP3   OH239534   2.650   4.202  11.322 -0.1552 -0.4209  0.2598
 6040TIP3    H139535   2.684   4.156  11.399 -0.7531 -0.3728  0.5542
 6040TIP3    H239536   2.666   4.294  11.341  0.4966 -0.4624 -0.0655
 6041TIP3   OH239537   5.446   1.016  11.503  0.2372  0.2846  0.0575
 6041TIP3    H139538   5.542   1.007  11.496  0.2022 -0.0791  0.0511
 6041TIP3    H239539   5.421   0.959  11.575  0.1197  1.0359  0.6211
 6042TIP3   OH239540   1.609   6.016  10.284 -0.0936  0.5517 -0.1082
 6042TIP3    H139541   1.662   6.076  10.233 -0.7672 -0.1539 -1.7260
 6042TIP3    H239542   1.641   5.929  10.260 -0.9910  0.1766 -0.0064
 6043TIP3   OH239543   1.358   4.939  14.439  0.4169 -0.3924 -0.0740
 6043TIP3    H139544   1.330   4.896  14.358 -1.1381 -0.0670  0.2514
 6043TIP3    H239545   1.443   4.979  14.417  0.5361 -1.2203 -1.2071
 6044TIP3   OH239546   4.364   3.176   1.237  0.1015  0.0987  0.0729
 6044TIP3    H139547   4.337   3.240   1.303  0.5304  0.9766 -0.5743
 6044TIP3    H239548   4.306   3.193   1.163 -1.1664 -1.6586  0.5948
 6045TIP3   OH239549   6.516   1.668  10.421 -0.1603  0.0663 -0.1323
 6045TIP3    H139550   6.546   1.582  10.451  1.6816  0.8331  0.3475
 6045TIP3    H239551   6.532   1.727  10.495 -2.3089  0.6997 -0.0842
 6046TIP3   OH239552   4.604   2.419   9.910 -0.8128 -0.4762  0.0362
 6046TIP3    H139553   4.608   2.402  10.005  0.7121 -0.1557  0.0523
 6046TIP3    H239554   4.593   2.332   9.872  1.0603 -0.9480  0.4256
 6047TIP3   OH239555   3.961   6.293   9.631  0.1418 -0.3129  0.0981
 6047TIP3    H139556   3.941   6.204   9.660  1.5384 -0.3199  1.1190
 6047TIP3    H239557   4.056   6.300   9.636  0.1263  0.9721 -0.8100
 6048TIP3   OH239558   4.489   1.926  12.290  0.2184 -0.5476  0.1957
 6048TIP3    H139559   4.579   1.900  12.308  0.0234 -1.9899 -0.7288
 6048TIP3    H239560   4.449   1.935  12.376  1.2129  0.0336  0.6181
 6049TIP3   OH239561   2.648   1.352  13.204 -0.1455 -0.5431  0.1508
 6049TIP3    H139562   2.649   1.284  13.271  0.3751 -0.4113  0.2809
 6049TIP3    H239563   2.573   1.407  13.227  0.9939  0.4644  1.6128
 6050TIP3   OH239564   6.063   5.578   0.444 -0.2684  0.3196  0.3897
 6050TIP3    H139565   6.005   5.610   0.375 -0.3321 -0.6545 -0.0283
 6050TIP3    H239566   6.091   5.657   0.490 -0.7798  0.9284 -0.3083
 6051TIP3   OH239567   5.647   6.407  14.313 -0.7922  0.9453 -0.0126
 6051TIP3    H139568   5.566   6.365  14.285 -1.3121  1.8063  0.1724
 6051TIP3    H239569   5.635   6.500  14.291 -0.1905  1.2188  0.7693
 6052TIP3   OH239570   1.666   2.386   2.750  0.3482 -0.6301 -0.0615
 6052TIP3    H139571   1.680   2.292   2.741 -0.1563 -0.5307 -2.3411
 6052TIP3    H239572   1.587   2.404   2.699  0.2876  1.0146  0.5461
 6053TIP3   OH239573   5.751   0.601  14.273 -0.1878 -0.7369 -0.5206
 6053TIP3    H139574   5.786   0.671  14.327 -1.9070  0.4769 -0.8783
 6053TIP3    H239575   5.656   0.612  14.278 -0.5328 -3.1429 -0.4961
 6054TIP3   OH239576   6.500   3.268  13.675 -0.5536  0.3680  0.2578
 6054TIP3    H139577   6.560   3.215  13.727  2.5348  2.1054 -1.2674
 6054TIP3    H239578   6.510   3.356  13.710 -2.9681  0.6081  0.5138
 6055TIP3   OH239579   5.782   6.080  11.259 -0.5414 -0.0572 -0.2789
 6055TIP3    H139580   5.804   6.099  11.350 -0.2854 -1.1850 -0.0909
 6055TIP3    H239581   5.824   6.150  11.209  1.1941 -0.6406  0.2990
 6056TIP3   OH239582   2.232   6.810   3.660  0.0299 -0.2086 -0.0353
 6056TIP3    H139583   2.277   6.771   3.585 -0.2711 -0.2825 -0.1789
 6056TIP3    H239584   2.222   6.738   3.722  0.5196 -0.0866  0.1941
 6057TIP3   OH239585   5.621   0.562  15.006 -0.4291 -0.4209  0.7532
 6057TIP3    H139586   5.638   0.656  15.000 -0.6077 -0.4469 -0.3898
 6057TIP3    H239587   5.705   0.521  14.985 -0.7166 -0.5098 -0.3082
 6058TIP3   OH239588   5.712   2.231   3.731 -0.1275 -0.2943 -0.0753
 6058TIP3    H139589   5.802   2.209   3.757 -0.2818 -2.7069 -1.3237
 6058TIP3    H239590   5.720   2.261   3.641 -0.2616  2.6949  0.8086
 6059TIP3   OH239591   6.426   6.355   3.857 -0.2535  0.2647 -0.2059
 6059TIP3    H139592   6.331   6.365   3.849 -0.3669 -0.9276 -0.5232
 6059TIP3    H239593   6.461   6.433   3.814 -1.0793  1.5669  1.3436
 6060TIP3   OH239594   5.709   0.161   0.624  0.5684  0.8389  0.6515
 6060TIP3    H139595   5.621   0.128   0.646  0.7309  0.9715  1.5529
 6060TIP3    H239596   5.695   0.255   0.610  0.1365  0.4721 -1.7432
 6061TIP3   OH239597   6.238   2.467   1.222 -0.0356  0.3834 -0.4154
 6061TIP3    H139598   6.212   2.479   1.313  1.0588  1.0691 -0.1637
 6061TIP3    H239599   6.271   2.553   1.195 -0.1002  0.1256 -1.3754
 6062TIP3   OH239600   1.387   0.426   0.486 -0.6041 -0.1123 -0.3368
 6062TIP3    H139601   1.342   0.447   0.568 -0.5656 -2.2764  0.2972
 6062TIP3    H239602   1.404   0.332   0.492  0.3461 -0.1076 -2.3792
 6063TIP3   OH239603   2.347   1.927   0.554  0.1082 -1.2911  0.2383
 6063TIP3    H139604   2.317   1.919   0.463  0.9306 -0.7318 -0.0961
 6063TIP3    H239605   2.420   1.866   0.561  1.6122  0.4029 -0.1937
 6064TIP3   OH239606   3.400   4.670   1.850 -0.2262 -0.0492  0.5726
 6064TIP3    H139607   3.441   4.717   1.778  0.2340 -0.5512  0.5001
 6064TIP3    H239608   3.307   4.685   1.839 -0.2408 -1.0035 -0.7562
 6065TIP3   OH239609   0.250   2.690   4.344 -0.0708  0.2215 -0.1637
 6065TIP3    H139610   0.186   2.759   4.359 -1.0404  0.6558 -4.9467
 6065TIP3    H239611   0.335   2.734   4.348 -0.5579  1.2843 -1.2313
 6066TIP3   OH239612   1.907   1.193  14.988 -0.3439 -0.0551  0.0173
 6066TIP3    H139613   1.981   1.167  14.933 -0.0621  1.1206 -0.1823
 6066TIP3    H239614   1.947   1.226  15.068 -0.4673  2.5819 -0.8941
 6067TIP3   OH239615   4.418   4.962  10.052  0.0309 -0.1931  0.4190
 6067TIP3    H139616   4.485   5.031  10.047 -0.0944  0.0435  1.5946
 6067TIP3    H239617   4.444   4.898   9.986  0.7090  0.5075 -0.0122
 6068TIP3   OH239618   5.767   4.012  12.064  0.2745  0.3276  0.6183
 6068TIP3    H139619   5.691   3.978  12.111  0.7767 -0.7308  0.7044
 6068TIP3    H239620   5.840   3.959  12.096  1.4779  2.8085  2.2519
 6069TIP3   OH239621   5.657   1.437  12.760 -0.0454  0.2429 -0.6874
 6069TIP3    H139622   5.602   1.390  12.822 -1.2339 -1.5786 -2.9895
 6069TIP3    H239623   5.736   1.458  12.810 -0.2140 -2.6238  1.0244
 6070TIP3   OH239624   0.243   3.592  12.857  0.1324 -0.0729  0.1668
 6070TIP3    H139625   0.162   3.629  12.821  0.0664 -0.3693  0.0065
 6070TIP3    H239626   0.278   3.538  12.787  0.7900  0.5235  0.0196
 6071TIP3   OH239627   4.507   4.082   1.589  0.0347  0.0788  0.5284
 6071TIP3    H139628   4.515   4.129   1.672 -0.8298 -0.2812  0.8270
 6071TIP3    H239629   4.583   4.023   1.588  0.2997  0.4056  0.8455
 6072TIP3   OH239630   3.314   5.874   2.335 -0.8130 -0.0463  0.5038
 6072TIP3    H139631   3.289   5.866   2.244 -1.7077 -2.1138  0.8950
 6072TIP3    H239632   3.364   5.956   2.339 -1.5594  0.5608 -1.6244
 6073TIP3   OH239633   0.980   3.343   0.737  0.0690  0.3044 -0.2301
 6073TIP3    H139634   1.054   3.288   0.711 -0.5616 -0.5398 -0.2661
 6073TIP3    H239635   1.018   3.405   0.799  1.0747  0.7475 -1.2579
 6074TIP3   OH239636   2.947   6.235   1.706 -0.3027  0.3868  0.2399
 6074TIP3    H139637   2.979   6.146   1.694 -1.0661 -0.1760  2.0179
 6074TIP3    H239638   3.023   6.285   1.737 -0.6160 -0.4963  2.6147
 6075TIP3   OH239639   1.072   3.910  12.790  0.3938 -0.0089  0.2818
 6075TIP3    H139640   1.015   3.964  12.734 -0.2722 -1.7583 -0.8084
 6075TIP3    H239641   1.018   3.887  12.865  0.8384  1.1873  1.0009
 6076TIP3   OH239642   1.112   0.565   2.271  0.0157 -0.3179 -0.0469
 6076TIP3    H139643   1.040   0.592   2.214  0.2461  1.5237  0.4522
 6076TIP3    H239644   1.086   0.593   2.359  0.9518 -0.4167  0.2806
 6077TIP3   OH239645   0.350   1.180  13.902 -0.4715 -0.0679 -0.3582
 6077TIP3    H139646   0.434   1.226  13.904  0.1790 -1.2543  0.3327
 6077TIP3    H239647   0.319   1.181  13.992 -2.4141  2.4374 -0.9280
 6078TIP3   OH239648   1.563   2.914   0.333  0.1076 -0.2830  0.8850
 6078TIP3    H139649   1.546   2.822   0.350 -2.1669  0.1219  1.0685
 6078TIP3    H239650   1.617   2.914   0.253 -2.2669 -1.7297 -0.8379
 6079TIP3   OH239651   4.321   3.705  11.681 -0.0829  0.0612  0.4675
 6079TIP3    H139652   4.230   3.684  11.701 -0.3526  2.5715  2.3554
 6079TIP3    H239653   4.317   3.767  11.609  0.3377 -1.4846 -0.9499
 6080TIP3   OH239654   0.802   6.776   2.224 -0.2590 -0.8293 -0.4596
 6080TIP3    H139655   0.796   6.686   2.256 -0.9365 -0.5572  0.2099
 6080TIP3    H239656   0.885   6.780   2.177  0.8792 -1.2000  1.4328
 6081TIP3   OH239657   1.081   0.025  11.172 -0.5376 -0.4370 -0.0783
 6081TIP3    H139658   1.039   0.110  11.185  2.4539  1.5679 -2.3280
 6081TIP3    H239659   1.067   0.006  11.079  1.3294 -0.8827 -0.3018
 6082TIP3   OH239660   3.287   3.565  14.043 -0.0313  0.6327 -0.1966
 6082TIP3    H139661   3.286   3.654  14.005 -0.4792  0.1619 -1.3431
 6082TIP3    H239662   3.286   3.507  13.967  0.5251 -0.3629  0.5456
 6083TIP3   OH239663   3.370   4.632  13.312  0.2594  0.0464  0.0373
 6083TIP3    H139664   3.404   4.660  13.227  0.1195  0.4585  0.1132
 6083TIP3    H239665   3.315   4.556  13.293 -0.6888  0.8202 -0.3916
 6084TIP3   OH239666   3.498   5.511   1.771  0.0351  0.1028  0.2160
 6084TIP3    H139667   3.592   5.505   1.789 -0.1519 -0.6476  1.0232
 6084TIP3    H239668   3.472   5.596   1.807  0.1927 -0.1903  1.0491
 6085TIP3   OH239669   0.733   0.523  14.636  0.0274 -0.0725 -0.3302
 6085TIP3    H139670   0.820   0.496  14.608  0.4763 -0.2313  1.1219
 6085TIP3    H239671   0.686   0.441  14.652  0.0775  0.0011  0.2209
 6086TIP3   OH239672   4.395   1.812  11.396 -0.3540  0.0402 -0.6417
 6086TIP3    H139673   4.366   1.829  11.307 -2.0738 -0.8858 -0.3067
 6086TIP3    H239674   4.384   1.717  11.408 -1.0076  0.2674  0.8092
 6087TIP3   OH239675   2.344   4.926  11.286 -0.5379 -0.1359 -0.1759
 6087TIP3    H139676   2.402   5.002  11.276  0.2490 -0.8471 -1.0983
 6087TIP3    H239677   2.356   4.899  11.377 -0.4690  0.5581  0.0264
 6088TIP3   OH239678   4.158   1.080   1.371  0.7202  0.5518  0.0608
 6088TIP3    H139679   4.064   1.085   1.386  0.2627 -1.2917 -1.8053
 6088TIP3    H239680   4.192   1.162   1.408 -1.4054  0.6987  1.9108
 6089TIP3   OH239681   1.606   4.825   4.565 -0.0212 -0.3586  0.5524
 6089TIP3    H139682   1.690   4.854   4.530  0.1479 -2.3628 -0.9256
 6089TIP3    H239683   1.628   4.786   4.650  0.7631 -1.7940 -0.2674
 6090TIP3   OH239684   0.322   0.920  12.952  0.2109  0.4945  0.1454
 6090TIP3    H139685   0.251   0.937  12.889  0.5573  1.0406 -0.1082
 6090TIP3    H239686   0.300   0.836  12.991  0.5234 -0.3455 -1.4325
 6091TIP3   OH239687   3.974   0.471   5.399 -0.2198 -0.3177 -0.3923
 6091TIP3    H139688   3.905   0.452   5.462  0.1030 -0.7062 -0.1506
 6091TIP3    H239689   4.042   0.406   5.417 -0.0180 -0.2808 -0.9784
 6092TIP3   OH239690   3.694   3.140  10.447  0.2768  0.4670  0.3532
 6092TIP3    H139691   3.634   3.215  10.449  1.6046  1.6075 -0.2303
 6092TIP3    H239692   3.684   3.105  10.358 -0.2464  0.0331  0.5822
 6093TIP3   OH239693   2.114   4.187   2.338 -0.0843  0.3453  0.2381
 6093TIP3    H139694   2.165   4.238   2.400  1.9707  0.5060 -1.4958
 6093TIP3    H239695   2.031   4.234   2.331  0.8494  2.0931  0.4733
 6094TIP3   OH239696   4.881   0.580  15.149 -0.1183  0.2677 -0.9535
 6094TIP3    H139697   4.813   0.529  15.193 -1.2188  2.5851  0.1835
 6094TIP3    H239698   4.950   0.589  15.214  0.2917 -0.1293 -1.3216
 6095TIP3   OH239699   2.366   1.917  13.326  0.2938  0.4237 -0.6471
 6095TIP3    H139700   2.442   1.950  13.374  0.8278  0.5451 -1.5693
 6095TIP3    H239701   2.297   1.911  13.393  1.7734 -2.1053  0.7990
 6096TIP3   OH239702   1.039   0.380   9.996  0.4514 -0.8285 -0.3973
 6096TIP3    H139703   0.960   0.424  10.024 -0.7065 -2.8178 -0.3436
 6096TIP3    H239704   1.017   0.341   9.912  0.1589 -4.1562  1.0520
 6097TIP3   OH239705   3.876   4.061   1.395  0.5112 -0.2738  0.3371
 6097TIP3    H139706   3.810   4.126   1.371  0.8804 -0.2881 -0.8201
 6097TIP3    H239707   3.825   3.984   1.422  0.0194 -0.4565 -1.0180
 6098TIP3   OH239708   5.794   3.050  12.363  0.1278 -0.4539 -0.1281
 6098TIP3    H139709   5.781   2.969  12.412  0.0052  0.3305  1.1640
 6098TIP3    H239710   5.720   3.105  12.387  1.4581  0.9455  0.9117
 6099TIP3   OH239711   0.011   0.044  13.624  0.1107  0.4271 -0.2902
 6099TIP3    H139712   0.060  -0.032  13.593  0.2870  0.7336 -0.7742
 6099TIP3    H239713  -0.036   0.012  13.702 -1.3086 -0.6996 -1.5431
 6100TIP3   OH239714   0.459   6.808   1.823 -0.0653  0.6076 -0.7587
 6100TIP3    H139715   0.384   6.828   1.767 -0.9398  1.8167  0.7488
 6100TIP3    H239716   0.475   6.889   1.872 -0.8501 -0.9697  2.3921
 6101TIP3   OH239717   0.740   1.570   2.123 -0.3854  0.4668  0.2981
 6101TIP3    H139718   0.805   1.636   2.099  1.2113 -1.4864 -1.1356
 6101TIP3    H239719   0.727   1.582   2.217  1.2980  1.5949  0.4340
 6102TIP3   OH239720   0.883   3.361  11.558  0.4103 -0.2160 -0.7097
 6102TIP3    H139721   0.829   3.297  11.604 -0.1310  0.4697 -0.3690
 6102TIP3    H239722   0.837   3.377  11.476 -0.8887  1.6325  0.2864
 6103TIP3   OH239723   0.559   5.768  15.339 -0.6531  0.4588 -0.5227
 6103TIP3    H139724   0.643   5.805  15.312 -1.1325  1.8090 -0.2538
 6103TIP3    H239725   0.508   5.763  15.259 -0.4222 -0.1287 -0.6428
 6104TIP3   OH239726   6.740   5.520   0.148  0.0887  0.7944  0.0481
 6104TIP3    H139727   6.672   5.578   0.114 -2.0374 -0.1175  2.3886
 6104TIP3    H239728   6.697   5.473   0.220  2.3607 -2.0589 -0.3041
 6105TIP3   OH239729   5.896   0.960  15.391 -0.2806  0.1151  0.0314
 6105TIP3    H139730   5.859   0.903  15.458  2.1698 -0.2748  1.1741
 6105TIP3    H239731   5.917   0.902  15.318 -1.2147  0.2219 -0.3328
 6106TIP3   OH239732   5.990   1.258  10.866  0.0454  0.0530 -0.4822
 6106TIP3    H139733   5.918   1.247  10.804  1.1986 -0.7407 -1.7379
 6106TIP3    H239734   5.985   1.181  10.922  0.2886 -0.3379 -0.9846
 6107TIP3   OH239735   3.965   1.434  11.527  0.8216  0.5093  0.0101
 6107TIP3    H139736   4.038   1.381  11.558 -0.1062 -0.5842  0.4240
 6107TIP3    H239737   3.972   1.432  11.432 -0.2186 -1.9904 -0.1048
 6108TIP3   OH239738   3.681   6.218  15.417  0.2175  0.9420  0.0765
 6108TIP3    H139739   3.773   6.222  15.393  0.6159  3.5832  1.6681
 6108TIP3    H239740   3.681   6.191  15.509 -0.7821 -1.0927 -0.4671
 6109TIP3   OH239741   0.034   4.169  12.868 -0.1001 -0.0248 -0.1231
 6109TIP3    H139742  -0.061   4.160  12.855  0.0700 -1.9403 -0.3232
 6109TIP3    H239743   0.054   4.108  12.940  1.0268  0.0630 -0.3472
 6110TIP3   OH239744   6.103   5.205  14.485 -0.5560 -0.3763 -0.1986
 6110TIP3    H139745   6.118   5.254  14.565 -2.8482 -2.5877  1.7571
 6110TIP3    H239746   6.166   5.133  14.487 -1.3199 -1.0497  0.2191
 6111TIP3   OH239747   3.647   2.627   3.065  0.6575  0.0297  0.2851
 6111TIP3    H139748   3.735   2.652   3.036  0.9284 -0.3017  0.8207
 6111TIP3    H239749   3.662   2.565   3.136  0.0151 -3.2102 -2.1969
 6112TIP3   OH239750   1.136   1.721  12.277 -0.9520  0.4537  0.6824
 6112TIP3    H139751   1.162   1.813  12.276 -1.1490  0.5050  0.3009
 6112TIP3    H239752   1.158   1.689  12.189 -2.4764  0.5822  0.2277
 6113TIP3   OH239753   5.068   2.234   9.386 -0.0682 -0.0335 -0.4935
 6113TIP3    H139754   5.072   2.156   9.331  1.7799 -1.2002  1.1695
 6113TIP3    H239755   5.082   2.202   9.475 -2.3134  1.8615  0.6565
 6114TIP3   OH239756   6.714   0.539  13.725  0.3492  0.2317 -0.5121
 6114TIP3    H139757   6.667   0.519  13.806  2.2017 -1.1687  0.2877
 6114TIP3    H239758   6.684   0.472  13.663 -0.0131  0.4244 -0.5458
 6115TIP3   OH239759   4.524   1.521  10.513 -0.3020  0.0339  0.5777
 6115TIP3    H139760   4.468   1.591  10.546  0.8485  0.9777  0.6264
 6115TIP3    H239761   4.536   1.543  10.420 -1.3252 -1.0847  0.1594
 6116TIP3   OH239762   4.534   3.337  10.161 -0.0285 -0.2683  0.2029
 6116TIP3    H139763   4.520   3.268  10.097  0.3608 -0.7494  0.6293
 6116TIP3    H239764   4.628   3.354  10.158 -0.0463 -0.1119  0.4651
 6117TIP3   OH239765   6.342   3.353  11.872 -0.8537 -0.1520 -0.6454
 6117TIP3    H139766   6.356   3.262  11.847 -0.2179  0.1083 -1.2995
 6117TIP3    H239767   6.277   3.350  11.941  1.1227 -1.3397  1.2934
 6118TIP3   OH239768   2.267   7.024  10.253 -0.0964 -0.8189 -0.7354
 6118TIP3    H139769   2.253   7.064  10.167 -1.3052 -2.0842 -1.1860
 6118TIP3    H239770   2.350   6.976  10.244  0.0416 -0.5263 -1.0285
 6119TIP3   OH239771   2.617   2.576  14.625  0.4808 -0.0815  0.4303
 6119TIP3    H139772   2.653   2.649  14.575  1.5154 -0.6455  0.3257
 6119TIP3    H239773   2.536   2.610  14.662  0.1636  0.6381 -0.8630
 6120TIP3   OH239774   7.070   0.763  10.148 -0.1920  0.3734  0.0830
 6120TIP3    H139775   7.113   0.781  10.064 -0.8046  0.6859 -0.1723
 6120TIP3    H239776   7.129   0.703  10.193  0.0157 -0.0069 -0.6832
 6121TIP3   OH239777   6.210   1.707  12.020  0.1726  0.1556 -0.3878
 6121TIP3    H139778   6.223   1.684  11.928  1.7429  2.0616 -0.7018
 6121TIP3    H239779   6.115   1.701  12.032  0.2032 -4.0308 -0.9612
 6122TIP3   OH239780   0.428   3.782  14.303 -0.0826 -0.6264  0.4218
 6122TIP3    H139781   0.347   3.819  14.266  1.0889  0.9269 -0.7066
 6122TIP3    H239782   0.476   3.858  14.336  0.3261 -1.6703  2.4089
 6123TIP3   OH239783   4.859   5.940   1.821 -0.4127  0.3513  0.4150
 6123TIP3    H139784   4.825   6.029   1.828 -0.0875  0.3429  2.6001
 6123TIP3    H239785   4.810   5.890   1.885  0.3942 -0.7313  0.2157
 6124TIP3   OH239786   6.713   4.035  11.867  0.3198  0.1207 -0.2893
 6124TIP3    H139787   6.778   4.093  11.908 -1.1239  0.2788  1.9522
 6124TIP3    H239788   6.660   4.094  11.813  0.7146  0.3397 -0.4491
 6125TIP3   OH239789   3.352   3.065  10.029  0.4744 -0.5030 -0.3706
 6125TIP3    H139790   3.304   3.048   9.949 -0.3546 -0.9101  0.1957
 6125TIP3    H239791   3.389   3.153  10.018 -1.5017  0.3844 -0.3097
 6126TIP3   OH239792   4.667   3.266   2.200  0.0611 -0.2111  0.1499
 6126TIP3    H139793   4.603   3.323   2.243  1.6029  1.0207  0.8949
 6126TIP3    H239794   4.696   3.207   2.270 -1.9658 -2.4358 -0.7465
 6127TIP3   OH239795   2.775   6.750   9.694  0.0186 -0.2285  0.6700
 6127TIP3    H139796   2.789   6.670   9.745 -0.0605 -1.2493 -0.8464
 6127TIP3    H239797   2.863   6.778   9.670  0.0199 -0.1704  0.7425
 6128TIP3   OH239798   7.159   5.607  15.297 -0.1176  0.0893 -0.0838
 6128TIP3    H139799   7.235   5.555  15.270  0.5389  0.8427  0.2881
 6128TIP3    H239800   7.096   5.542  15.328  0.6524 -0.4939  0.2924
 6129TIP3   OH239801   2.575   2.854  10.041 -0.3813 -1.2233  0.1528
 6129TIP3    H139802   2.528   2.865   9.959  0.4615  0.4151 -0.1308
 6129TIP3    H239803   2.667   2.848  10.016 -0.1203 -0.7294  0.9642
 6130TIP3   OH239804   4.820   5.876  11.775  0.0266  0.3727 -0.0104
 6130TIP3    H139805   4.791   5.922  11.854 -1.0937 -0.2708 -0.0365
 6130TIP3    H239806   4.749   5.815  11.755  2.1612 -2.7165  1.0592
 6131TIP3   OH239807   0.440   1.927  12.404  0.9624 -0.3489 -0.2392
 6131TIP3    H139808   0.429   1.851  12.461 -0.6679  1.2234  1.6759
 6131TIP3    H239809   0.351   1.950  12.378  1.5994 -0.4243 -2.7101
 6132TIP3   OH239810   3.724   1.116   2.175  0.3257  0.0562  0.1222
 6132TIP3    H139811   3.663   1.044   2.188  0.9118 -0.7288 -1.2236
 6132TIP3    H239812   3.754   1.138   2.263 -2.0407  0.6384  0.8310
 6133TIP3   OH239813   4.210   3.301  11.468 -0.3469  0.4582 -0.3476
 6133TIP3    H139814   4.227   3.213  11.436  1.1169 -0.3548  2.3337
 6133TIP3    H239815   4.287   3.352  11.443 -0.2486  0.4267 -0.1101
 6134TIP3   OH239816   3.716   6.129  12.848  0.4441  0.5210  0.1712
 6134TIP3    H139817   3.631   6.102  12.883  0.6347  0.1391  0.3384
 6134TIP3    H239818   3.700   6.142  12.754  0.9933 -3.0665 -0.5569
 6135TIP3   OH239819   2.320   5.371  14.051  0.5349 -0.2083 -0.0323
 6135TIP3    H139820   2.345   5.300  13.992 -2.1645 -0.2759 -1.2469
 6135TIP3    H239821   2.232   5.348  14.080  0.0518  2.0406  0.4633
 6136TIP3   OH239822   4.334   2.237  12.869  0.1066  0.0709  0.3395
 6136TIP3    H139823   4.295   2.163  12.916 -0.3324 -0.9584 -1.5478
 6136TIP3    H239824   4.407   2.265  12.925  0.3825 -1.8969  1.0421
 6137TIP3   OH239825   0.651   6.306   1.080 -0.2548 -0.3983 -0.8610
 6137TIP3    H139826   0.717   6.239   1.062  0.5604  0.6669 -2.0729
 6137TIP3    H239827   0.600   6.271   1.153  2.0802 -0.9866  0.6238
 6138TIP3   OH239828   6.104   0.135  13.511  0.2337  0.7735  0.3967
 6138TIP3    H139829   6.143   0.200  13.452 -1.1087  0.7882 -0.5132
 6138TIP3    H239830   6.053   0.079  13.454 -1.2150  0.8635  1.5585
 6139TIP3   OH239831   0.473   2.576  11.137 -0.8905 -0.0007 -0.2702
 6139TIP3    H139832   0.401   2.634  11.112 -0.6503  0.2071 -0.4817
 6139TIP3    H239833   0.517   2.556  11.055 -0.5608  0.0668 -0.1101
 6140TIP3   OH239834   2.594   6.049  11.653 -0.3987 -0.2442  0.0478
 6140TIP3    H139835   2.659   6.088  11.712  0.3166  1.9032 -2.0002
 6140TIP3    H239836   2.625   5.960  11.638  0.2014 -0.3455  1.6989
 6141TIP3   OH239837   2.419   1.222   4.471 -0.1273 -0.7963  0.3014
 6141TIP3    H139838   2.404   1.247   4.380  0.0445 -2.1477 -0.1065
 6141TIP3    H239839   2.453   1.302   4.512  0.6392 -0.4183 -1.0303
 6142TIP3   OH239840   4.021   2.210  12.588 -0.2608 -0.1161 -0.8031
 6142TIP3    H139841   3.992   2.253  12.508 -0.5027  2.4852  0.5713
 6142TIP3    H239842   3.944   2.165  12.620 -1.7541  3.0261  0.4784
 6143TIP3   OH239843   6.692   1.268  14.487  0.3405 -0.0445 -0.0547
 6143TIP3    H139844   6.619   1.285  14.546  1.0559  1.2429  0.4995
 6143TIP3    H239845   6.682   1.332  14.416  0.3523 -0.5687 -0.5464
 6144TIP3   OH239846   2.987   0.253  14.465  0.1190 -0.2961 -0.2683
 6144TIP3    H139847   3.066   0.205  14.491 -0.2855 -0.6319  0.3700
 6144TIP3    H239848   2.915   0.198  14.496 -0.3617  0.1648 -0.5633
 6145TIP3   OH239849   2.100   7.030  12.214  0.3139 -0.6814 -0.2275
 6145TIP3    H139850   2.025   7.006  12.160  0.2409  0.8722 -0.8752
 6145TIP3    H239851   2.092   6.974  12.291 -0.2902 -2.0546 -1.2393
 6146TIP3   OH239852   2.280   6.124  14.809 -0.3360 -0.1441 -0.1034
 6146TIP3    H139853   2.315   6.211  14.789 -0.5493  0.0141  0.2003
 6146TIP3    H239854   2.344   6.063  14.771 -0.0403  0.1444 -0.0756
 6147TIP3   OH239855   3.930   3.736  10.461  0.1388 -0.2389 -0.3460
 6147TIP3    H139856   3.834   3.738  10.464  0.1445 -0.6315  0.3425
 6147TIP3    H239857   3.953   3.799  10.394 -0.5756  0.5393  0.1159
 6148TIP3   OH239858   5.792   6.751  12.502 -0.0321 -0.1179  0.6536
 6148TIP3    H139859   5.787   6.830  12.449 -2.2221 -1.8940 -2.0968
 6148TIP3    H239860   5.709   6.705  12.485  0.8954 -2.7497  2.5257
 6149TIP3   OH239861   3.009   2.465  11.341 -0.9240 -0.4611 -0.2761
 6149TIP3    H139862   3.041   2.377  11.363 -0.7720 -0.6287 -1.1427
 6149TIP3    H239863   2.918   2.466  11.372 -1.4537 -1.4950 -1.6848
 6150TIP3   OH239864   0.427   4.442   1.301  0.1360 -0.4915  0.2330
 6150TIP3    H139865   0.434   4.420   1.208  0.5932 -0.2166  0.2022
 6150TIP3    H239866   0.369   4.519   1.303  1.9788  0.9910 -0.0544
 6151TIP3   OH239867   5.399   7.114  11.380  0.1332  0.0784  0.7175
 6151TIP3    H139868   5.397   7.205  11.349  0.6922 -0.0420  0.3087
 6151TIP3    H239869   5.393   7.061  11.300  0.9485 -0.2362  0.8596
 6152TIP3   OH239870   2.989   4.734  14.552 -0.3797  0.0339  0.2494
 6152TIP3    H139871   2.908   4.766  14.592 -0.6139  0.6024 -0.6519
 6152TIP3    H239872   3.001   4.646  14.589 -0.1577  0.8231  2.1395
 6153TIP3   OH239873   4.401   2.928   9.958  0.5622  0.2943  0.3958
 6153TIP3    H139874   4.478   2.909   9.905  0.5200  0.4380  0.2809
 6153TIP3    H239875   4.392   2.852  10.015 -0.1645 -0.4976 -0.7180
 6154TIP3   OH239876   0.938   4.580  12.362  0.3355 -0.3349 -0.2252
 6154TIP3    H139877   0.903   4.617  12.442 -0.3425  1.4284 -1.2851
 6154TIP3    H239878   1.023   4.624  12.350 -0.1115  0.3444 -1.0705
 6155TIP3   OH239879   1.303   6.121  10.589  0.5978 -0.8420  0.1672
 6155TIP3    H139880   1.372   6.112  10.655  0.7344  0.8991  0.3051
 6155TIP3    H239881   1.327   6.200  10.540 -2.4371  1.2097  1.6778
 6156TIP3   OH239882   0.368   3.365  13.511  0.3554  0.2114 -0.3418
 6156TIP3    H139883   0.274   3.374  13.493  0.2597  0.4522  0.2583
 6156TIP3    H239884   0.404   3.328  13.430 -0.4058 -0.8576 -0.2132
 6157TIP3   OH239885   1.905   5.220  14.899 -0.4422  0.0033 -0.2658
 6157TIP3    H139886   1.811   5.223  14.880 -0.9411 -0.7396  1.8405
 6157TIP3    H239887   1.920   5.294  14.957  0.5111  0.6990 -1.3500
 6158TIP3   OH239888   2.866   5.414  14.426 -0.0143 -0.6121 -0.2809
 6158TIP3    H139889   2.803   5.382  14.491  0.5131  0.0114  0.5513
 6158TIP3    H239890   2.941   5.354  14.435  0.7923  0.5237  0.9690
 6159TIP3   OH239891   6.498   0.700  10.835  0.0851  0.0620 -0.0327
 6159TIP3    H139892   6.451   0.711  10.753  0.4591  2.9219  0.0201
 6159TIP3    H239893   6.587   0.731  10.816  0.3709  0.0880  1.2650
 6160TIP3   OH239894   0.743   2.543  13.193  0.0003 -0.5581 -0.0661
 6160TIP3    H139895   0.741   2.528  13.099  1.3902  0.7733 -0.3279
 6160TIP3    H239896   0.660   2.506  13.224 -0.5360 -0.9160 -1.8105
 6161TIP3   OH239897   6.881   5.950   2.982  0.3200 -0.0222 -0.1381
 6161TIP3    H139898   6.907   5.884   2.917 -0.6076 -0.1101 -0.4348
 6161TIP3    H239899   6.924   5.922   3.063  0.9099 -0.3104 -0.5415
 6162TIP3   OH239900   4.235   4.922   1.037 -0.0076  0.1450 -0.6719
 6162TIP3    H139901   4.305   4.914   1.101 -0.2791 -1.0810 -0.4960
 6162TIP3    H239902   4.254   4.854   0.972  0.4362  1.5610 -2.0737
 6163TIP3   OH239903   5.180   2.409  12.643  0.2279  0.6846  0.4955
 6163TIP3    H139904   5.158   2.476  12.578 -0.1987  0.9709  0.9392
 6163TIP3    H239905   5.200   2.457  12.723 -0.4308  0.2735  0.9209
 6164TIP3   OH239906   2.881   2.218  14.622 -0.0672  0.2962  0.1442
 6164TIP3    H139907   2.901   2.283  14.555  0.6508 -1.3176 -1.2861
 6164TIP3    H239908   2.961   2.166  14.630 -1.3535 -1.9020 -0.5221
 6165TIP3   OH239909   1.985   6.410  13.683 -0.2808 -0.2727  0.2442
 6165TIP3    H139910   2.073   6.449  13.690  0.0126 -0.6632 -1.0461
 6165TIP3    H239911   1.968   6.375  13.770 -0.2014  1.9769  1.2320
 6166TIP3   OH239912   1.243   2.271  14.646  0.1326 -0.0151 -0.0621
 6166TIP3    H139913   1.290   2.325  14.582  2.7039 -0.4635  1.3326
 6166TIP3    H239914   1.210   2.197  14.594 -2.3614  2.0846 -1.7582
 6167TIP3   OH239915   6.134   0.266  13.141 -0.1337  0.4382  0.2250
 6167TIP3    H139916   6.135   0.349  13.189 -0.2426  0.6399 -0.1160
 6167TIP3    H239917   6.223   0.258  13.106  0.0622  0.0916  0.7950
 6168TIP3   OH239918   1.030   4.479  12.772 -0.2373 -0.0789 -0.1117
 6168TIP3    H139919   0.985   4.556  12.737 -1.0394  0.4491  1.9162
 6168TIP3    H239920   1.070   4.509  12.853  0.5335 -1.5063  0.0756
 6169TIP3   OH239921   4.437   2.941   9.589  0.0831  0.1973  0.0282
 6169TIP3    H139922   4.497   2.921   9.661  0.8020  2.2412  0.0624
 6169TIP3    H239923   4.423   3.035   9.596 -2.6455 -0.0999 -0.3977
 6170TIP3   OH239924   3.945   7.139   1.112 -0.3588  0.0984  0.3397
 6170TIP3    H139925   3.857   7.112   1.084 -0.4627 -0.2427  0.9638
 6170TIP3    H239926   3.990   7.057   1.131 -0.4140  0.3244  1.5089
 6171TIP3   OH239927   5.885   0.979  13.533 -0.1170 -0.6447  0.0494
 6171TIP3    H139928   5.822   1.040  13.572 -1.5094 -1.3565 -1.0055
 6171TIP3    H239929   5.939   1.033  13.476 -0.2440 -0.1415  0.3973
 6172TIP3   OH239930   2.503   3.569   9.729 -0.1448 -0.0383  0.2198
 6172TIP3    H139931   2.459   3.591   9.810  0.7789 -0.0995  0.7506
 6172TIP3    H239932   2.459   3.489   9.698  1.0647 -1.4410  1.9402
 6173TIP3   OH239933   1.684   6.743  11.737  0.2696 -0.7240 -0.4000
 6173TIP3    H139934   1.661   6.652  11.750  1.3899 -1.3913 -2.6257
 6173TIP3    H239935   1.749   6.761  11.805  0.3348 -1.6992 -0.1973
 6174TIP3   OH239936   0.230   5.666  13.576 -0.4378 -0.2670  0.4358
 6174TIP3    H139937   0.206   5.693  13.665 -2.6985  0.0642 -0.2161
 6174TIP3    H239938   0.182   5.726  13.519  0.0061 -1.2417 -1.0172
 6175TIP3   OH239939   0.196   1.692   9.885  0.1955  0.3568  0.2571
 6175TIP3    H139940   0.200   1.754   9.958  0.5061  0.9141 -0.2350
 6175TIP3    H239941   0.286   1.686   9.854 -0.0080  0.4335 -0.3477
 6176TIP3   OH239942   0.366   1.874  12.812 -0.4765 -0.0909  0.5698
 6176TIP3    H139943   0.301   1.934  12.776  0.3050  0.4044 -0.0360
 6176TIP3    H239944   0.409   1.835  12.736 -0.3193 -0.7113  0.9610
 6177TIP3   OH239945   5.149   7.007   9.816 -0.9657  0.2833 -0.5373
 6177TIP3    H139946   5.160   7.014   9.721 -0.4468  0.3108 -0.4770
 6177TIP3    H239947   5.227   6.959   9.845 -0.4800  1.4033  0.0370
 6178TIP3   OH239948   3.320   2.754  12.390  0.0008 -0.0085  0.3136
 6178TIP3    H139949   3.389   2.691  12.371  0.7229  1.1963 -1.2986
 6178TIP3    H239950   3.362   2.821  12.444 -0.1972  0.1972  0.2159
 6179TIP3   OH239951   6.641   3.170  12.320 -0.1188 -0.2105  0.1133
 6179TIP3    H139952   6.593   3.088  12.334 -1.7487  0.7766  0.6245
 6179TIP3    H239953   6.733   3.145  12.324 -0.4659 -2.4998 -2.4868
 6180TIP3   OH239954   5.121   1.533  10.887 -1.1693  0.0836 -0.0338
 6180TIP3    H139955   5.178   1.534  10.963  2.4922 -2.0674 -2.4516
 6180TIP3    H239956   5.122   1.623  10.854  2.0036 -0.0470 -0.6188
 6181TIP3   OH239957   5.503   3.606  12.941 -0.4578  0.6908  0.3958
 6181TIP3    H139958   5.575   3.668  12.932 -1.3095  1.6076 -0.4269
 6181TIP3    H239959   5.540   3.532  12.989  1.2698  0.7365 -0.7779
 6182TIP3   OH239960   5.136   4.833  11.928  0.1338  0.1834 -0.1248
 6182TIP3    H139961   5.154   4.855  11.837  0.7414 -1.2737 -0.3834
 6182TIP3    H239962   5.150   4.915  11.976 -0.5766  1.0658 -1.3713
 6183TIP3   OH239963   0.047   5.611   0.705  0.3414  0.0697 -0.2823
 6183TIP3    H139964  -0.013   5.541   0.731 -0.0767  0.7375  0.6047
 6183TIP3    H239965   0.014   5.639   0.620  1.2723 -1.6386 -1.2677
 6184TIP3   OH239966   0.553   2.750  12.906  0.7204  0.2259 -0.2891
 6184TIP3    H139967   0.594   2.773  12.822  1.7706 -0.9834 -0.1302
 6184TIP3    H239968   0.626   2.725  12.963 -0.2089 -3.1258 -0.3432
 6185TIP3   OH239969   4.199   5.882   1.039 -0.1641  0.1296  0.7700
 6185TIP3    H139970   4.191   5.798   0.994  1.3937 -0.1160  0.8987
 6185TIP3    H239971   4.203   5.860   1.132 -2.6641  0.5883  1.0514
 6186TIP3   OH239972   7.007   4.143  10.494  0.2995  0.4231  0.8343
 6186TIP3    H139973   7.053   4.096  10.563  0.5655  0.0891  0.4363
 6186TIP3    H239974   6.964   4.074  10.443  0.3064  0.6465  0.5232
 6187TIP3   OH239975   5.371   4.274  14.147 -0.4660 -0.3208  0.0198
 6187TIP3    H139976   5.463   4.266  14.122  0.0700 -0.1763  1.8448
 6187TIP3    H239977   5.367   4.353  14.200 -1.3353 -1.1951  1.3069
 6188TIP3   OH239978   3.654   4.739  10.654 -0.1634  0.2373 -0.2167
 6188TIP3    H139979   3.663   4.790  10.573 -1.3679  1.1927  0.2206
 6188TIP3    H239980   3.744   4.720  10.680  0.3456  2.0309 -0.4830
 6189TIP3   OH239981   3.124   4.311  10.943  0.4644  0.0349  0.8401
 6189TIP3    H139982   3.105   4.265  11.025 -3.2844  0.7549  0.5359
 6189TIP3    H239983   3.087   4.255  10.875  1.2858  0.6452 -0.1332
 6190TIP3   OH239984   5.296   0.041  12.079  0.4934  0.2579  0.4247
 6190TIP3    H139985   5.297  -0.051  12.106  0.6126 -0.8924 -3.0372
 6190TIP3    H239986   5.335   0.088  12.153  0.3684 -2.4209  2.3383
 6191TIP3   OH239987   3.031   6.589  15.169 -0.1948  0.1430  0.5162
 6191TIP3    H139988   3.113   6.635  15.187 -0.2422  0.1738  0.6604
 6191TIP3    H239989   3.058   6.501  15.143 -0.0977  0.3087  0.0579
 6192TIP3   OH239990   1.035   1.903  13.212 -0.3005  0.4101  0.1647
 6192TIP3    H139991   0.998   1.826  13.169  0.1985 -1.6754  3.1416
 6192TIP3    H239992   0.970   1.928  13.277  1.3812 -0.4183  2.3029
 6193TIP3   OH239993   1.088   1.719  13.488 -0.3009  0.3726 -0.7009
 6193TIP3    H139994   1.007   1.668  13.492 -0.3349  0.3313 -1.6637
 6193TIP3    H239995   1.151   1.669  13.540 -0.3205 -0.6975 -1.6751
 6194TIP3   OH239996   2.058   5.310  10.397 -0.2397  0.0339  0.4437
 6194TIP3    H139997   1.977   5.266  10.423  0.6816 -2.2385 -0.2873
 6194TIP3    H239998   2.046   5.401  10.426 -1.4141 -1.0714  3.8716
 6195TIP3   OH239999   5.069   2.073  13.875 -0.1400  0.0011 -0.5537
 6195TIP3    H140000   5.118   2.130  13.934  0.8755 -0.7611 -0.6463
 6195TIP3    H240001   4.981   2.112  13.871 -0.8221 -0.9130  2.8502
 6196TIP3   OH240002   2.838   1.484  14.155 -0.5796  0.0020 -0.5163
 6196TIP3    H140003   2.925   1.469  14.192 -0.7238 -0.2870 -0.2944
 6196TIP3    H240004   2.804   1.559  14.204 -0.3793  0.2351 -0.7343
 6197TIP3   OH240005   2.046   4.496  10.674  0.3759 -0.0492 -0.2629
 6197TIP3    H140006   2.137   4.503  10.644  0.4447 -1.3243 -0.4380
 6197TIP3    H240007   2.053   4.458  10.762  0.0271  0.1014 -0.1705
 6198TIP3   OH240008   5.235   3.760  13.492 -0.2006  0.2377 -0.4104
 6198TIP3    H140009   5.322   3.740  13.458  0.9439  1.6481  1.5391
 6198TIP3    H240010   5.204   3.677  13.529  1.5083  0.3453  1.3602
 6199TIP3   OH240011   3.472   5.537  11.695 -0.5312 -0.1386 -0.4219
 6199TIP3    H140012   3.449   5.476  11.625 -1.4817 -0.4771  0.1593
 6199TIP3    H240013   3.451   5.623  11.659  0.8849 -0.1143 -1.2733
 6200TIP3   OH240014   4.759   5.170   5.165  0.4747 -0.4823  0.3661
 6200TIP3    H140015   4.757   5.245   5.225  3.9416  0.1689 -0.1325
 6200TIP3    H240016   4.849   5.137   5.171  0.0037 -2.4910 -2.0033
 6201TIP3   OH240017   5.839   6.613   9.986  0.0580 -0.5257 -0.2430
 6201TIP3    H140018   5.757   6.624  10.036 -0.6477 -0.4237 -1.3925
 6201TIP3    H240019   5.811   6.585   9.899  0.9899  2.3554 -1.6201
 6202TIP3   OH240020   5.591   5.707  12.198 -0.7007  0.4423 -0.1766
 6202TIP3    H140021   5.667   5.702  12.140 -0.5077  0.3347  0.0861
 6202TIP3    H240022   5.545   5.624  12.185 -0.2274  0.0809  0.4121
 6203TIP3   OH240023   4.481   3.258  14.298  0.0657 -0.0807 -0.0819
 6203TIP3    H140024   4.400   3.241  14.250 -0.2082  2.8472 -0.9001
 6203TIP3    H240025   4.504   3.175  14.338 -2.9943 -1.1654 -0.3464
 6204TIP3   OH240026   1.844   3.687  12.410  0.4397  0.3691 -0.1621
 6204TIP3    H140027   1.757   3.683  12.371  0.1578  1.0338  0.3660
 6204TIP3    H240028   1.881   3.769  12.377  0.6743  0.3222 -0.0173
 6205TIP3   OH240029   1.133   6.826  12.526 -0.1202 -0.0193  0.1253
 6205TIP3    H140030   1.218   6.805  12.489  0.3888  1.2421  0.5315
 6205TIP3    H240031   1.070   6.790  12.464  0.7105  0.2387 -0.8894
 6206TIP3   OH240032   1.093   5.671  14.585 -0.1075 -0.1606  0.3291
 6206TIP3    H140033   1.188   5.664  14.576 -0.3546 -1.5487 -1.6380
 6206TIP3    H240034   1.058   5.592  14.544 -2.2661  2.2964 -3.1553
 6207TIP3   OH240035   5.052   2.252  10.974  0.8280 -0.0129 -0.1207
 6207TIP3    H140036   5.058   2.221  10.884 -1.2933  0.5810 -0.5288
 6207TIP3    H240037   5.025   2.344  10.967 -2.4603 -0.7472  1.0299
 6208TIP3   OH240038   4.114   1.116  10.326 -0.7647 -0.1925 -0.0380
 6208TIP3    H140039   4.135   1.022  10.325  0.7477  0.0823  1.0995
 6208TIP3    H240040   4.055   1.126  10.400 -1.2233 -0.2959 -0.3883
 6209TIP3   OH240041   2.728   5.953  12.535  0.2028  0.1134 -0.4457
 6209TIP3    H140042   2.725   5.892  12.461 -0.3371 -0.4309  0.0034
 6209TIP3    H240043   2.820   5.975  12.545  0.2537  0.3495 -1.4015
 6210TIP3   OH240044   0.742   2.469  10.239  0.1609  0.0856 -0.7275
 6210TIP3    H140045   0.787   2.444  10.319 -0.6778  1.6453  0.3081
 6210TIP3    H240046   0.720   2.562  10.252 -0.4072  0.2607 -2.5713
 6211TIP3   OH240047   5.740   5.524   9.252 -0.0776  0.0504  0.2469
 6211TIP3    H140048   5.826   5.522   9.294  0.2323  2.3011 -0.1654
 6211TIP3    H240049   5.758   5.519   9.158 -0.2654  1.8301  0.0868
 6212TIP3   OH240050   1.606   3.486  14.551  0.1932 -0.6161 -0.5458
 6212TIP3    H140051   1.531   3.522  14.599  1.0544  1.2687 -0.5096
 6212TIP3    H240052   1.566   3.435  14.480 -1.1319  0.2036 -0.4313
 6213TIP3   OH240053   3.889   1.813   2.260 -0.1049 -0.2980 -0.1044
 6213TIP3    H140054   3.859   1.789   2.348 -1.2156  1.0775 -0.0728
 6213TIP3    H240055   3.811   1.804   2.205  0.1115  0.6135 -0.5787
 6214TIP3   OH240056   3.967   5.872  14.488 -0.1248  0.1731 -0.1363
 6214TIP3    H140057   4.062   5.862  14.479  0.2073 -0.4847  2.8861
 6214TIP3    H240058   3.933   5.782  14.482 -0.2434  0.1197  1.0816
 6215TIP3   OH240059   2.525   0.006  10.040  0.4245  0.0843  0.3173
 6215TIP3    H140060   2.580   0.010   9.961 -0.5315 -3.3894 -0.7386
 6215TIP3    H240061   2.567  -0.061  10.094 -1.3695 -0.8979  0.5784
 6216TIP3   OH240062   2.449   1.209  12.853  0.5105  0.1412  0.1495
 6216TIP3    H140063   2.361   1.176  12.872 -0.0867  1.9404  0.7052
 6216TIP3    H240064   2.504   1.172  12.923 -0.0368 -0.0575  0.4847
 6217TIP3   OH240065   3.142   4.175   3.337 -0.2014 -0.5214  0.7656
 6217TIP3    H140066   3.165   4.212   3.251 -0.0695 -0.6033  0.7649
 6217TIP3    H240067   3.046   4.173   3.337 -0.2137 -0.0868  0.8047
 6218TIP3   OH240068   2.242   5.986   5.330  0.2754  0.2794  0.2649
 6218TIP3    H140069   2.266   5.926   5.258 -0.5780 -1.0553  1.0504
 6218TIP3    H240070   2.287   6.068   5.308  1.1962 -0.5224 -1.0448
 6219TIP3   OH240071   1.889   1.737   1.876  0.1550  0.1356 -0.0973
 6219TIP3    H140072   1.953   1.678   1.916  1.5742  1.5287 -0.2306
 6219TIP3    H240073   1.807   1.687   1.877  1.3125 -1.8825 -0.3574
 6220TIP3   OH240074   6.553   5.734   0.469 -0.2127 -0.3688 -0.4228
 6220TIP3    H140075   6.564   5.645   0.435  4.7260  0.1240 -0.9989
 6220TIP3    H240076   6.633   5.750   0.519 -1.6200  3.2418  0.9950
 6221TIP3   OH240077   3.263   1.702   0.142 -0.6704 -0.3165 -0.1267
 6221TIP3    H140078   3.194   1.768   0.144  0.3689  0.7946  0.8007
 6221TIP3    H240079   3.341   1.748   0.174  0.6020 -1.4168 -1.4927
 6222TIP3   OH240080   1.513   4.115  12.531  0.1195 -0.8332 -0.1939
 6222TIP3    H140081   1.544   4.141  12.444 -1.2903 -0.8528 -0.7300
 6222TIP3    H240082   1.551   4.029  12.545  1.4465 -0.2764 -0.1948
 6223TIP3   OH240083   1.624   0.741  11.882 -0.4020  0.3168  0.0714
 6223TIP3    H140084   1.673   0.732  11.800 -0.8889  2.8160 -0.5706
 6223TIP3    H240085   1.569   0.818  11.869 -0.8902  0.4816  2.5894
 6224TIP3   OH240086   3.262   2.533  10.048  0.7503 -0.3071  0.1075
 6224TIP3    H140087   3.294   2.472  10.115  1.8301  0.4663  0.3210
 6224TIP3    H240088   3.327   2.604  10.048 -0.0592  0.4460 -0.6940
 6225TIP3   OH240089   3.929   3.602  10.064  0.0685  0.3320  0.5520
 6225TIP3    H140090   3.894   3.526  10.111  1.1789 -1.7646 -1.7867
 6225TIP3    H240091   3.852   3.647  10.030 -0.5662 -0.9782  0.2134
 6226TIP3   OH240092   3.193   0.796  10.237  0.1448 -0.2196  0.1141
 6226TIP3    H140093   3.111   0.747  10.242  0.7686 -1.4997 -1.4638
 6226TIP3    H240094   3.172   0.882  10.273 -1.8644 -0.5467 -0.1892
 6227TIP3   OH240095   3.369   3.287  10.769  0.0648  0.3962  0.2906
 6227TIP3    H140096   3.353   3.367  10.820  3.0259  0.6785  0.9173
 6227TIP3    H240097   3.438   3.241  10.816 -1.0710 -2.2528 -0.4383
 6228TIP3   OH240098   6.191   1.687  12.624 -0.1525  0.4588 -0.2010
 6228TIP3    H140099   6.170   1.755  12.561 -1.8108  0.2827  0.0956
 6228TIP3    H240100   6.180   1.729  12.710 -2.1555 -0.3667  0.0064
 6229TIP3   OH240101   6.715   5.694  10.350  0.3845 -0.2366  0.0115
 6229TIP3    H140102   6.620   5.687  10.359  0.5987 -1.3039  2.2070
 6229TIP3    H240103   6.740   5.615  10.303  0.3890 -1.5486  2.0723
 6230TIP3   OH240104   4.956   4.637   2.328  0.4703 -0.3062 -0.2202
 6230TIP3    H140105   5.044   4.606   2.305  0.3916 -0.6982 -0.0148
 6230TIP3    H240106   4.901   4.559   2.320  0.3996 -0.4222  1.0709
 6231TIP3   OH240107   5.761   7.023  13.000 -0.7387  0.1834  0.3623
 6231TIP3    H140108   5.817   7.018  12.923  0.0665 -0.2523  0.9693
 6231TIP3    H240109   5.767   7.114  13.029 -2.5131  0.8417 -1.1483
 6232TIP3   OH240110   0.610   5.592  11.199  0.1039 -0.3138 -0.0825
 6232TIP3    H140111   0.582   5.523  11.139  1.0787  0.3045 -1.2871
 6232TIP3    H240112   0.581   5.561  11.285 -1.4765 -1.1487 -0.8507
 6233TIP3   OH240113   6.262   5.913  11.417 -0.0532 -0.4685 -0.1062
 6233TIP3    H140114   6.321   5.849  11.378  1.5750  0.6597  0.3691
 6233TIP3    H240115   6.176   5.894  11.380  0.8686 -1.3009 -1.9147
 6234TIP3   OH240116   3.564   0.383   0.185  0.6155  0.2659  0.7981
 6234TIP3    H140117   3.650   0.360   0.151  0.4905  0.0098  0.6571
 6234TIP3    H240118   3.583   0.445   0.256  0.8869  0.6642  0.3893
 6235TIP3   OH240119   1.613   2.696  10.783 -0.2199  0.1304 -0.4234
 6235TIP3    H140120   1.617   2.610  10.825 -2.9125  0.3619  0.5255
 6235TIP3    H240121   1.683   2.747  10.824  2.2204 -1.8463 -1.8367
 6236TIP3   OH240122   2.428   1.205  12.575  0.8594 -0.1920 -0.0181
 6236TIP3    H140123   2.360   1.271  12.558  3.1910  2.1872 -0.6734
 6236TIP3    H240124   2.443   1.210  12.669 -0.2585 -1.1884  0.2357
 6237TIP3   OH240125   0.762   3.302   2.084  0.3290 -0.4799 -0.7101
 6237TIP3    H140126   0.731   3.216   2.112 -0.4783 -0.3461 -1.1404
 6237TIP3    H240127   0.740   3.306   1.991  1.0475 -0.1002 -0.8666
 6238TIP3   OH240128   1.880   5.848   3.762  0.4082  0.2272 -0.3658
 6238TIP3    H140129   1.881   5.856   3.858  0.3638 -1.7727 -0.1419
 6238TIP3    H240130   1.788   5.860   3.738  0.5502  1.5840 -0.2656
 6239TIP3   OH240131   2.409   2.445  10.866  0.6562 -0.3598  0.7015
 6239TIP3    H140132   2.450   2.504  10.930 -0.2849  1.8376 -0.5763
 6239TIP3    H240133   2.316   2.447  10.889  0.6788 -1.9046  1.0031
 6240TIP3   OH240134   6.895   0.230  11.697  0.1008 -0.4261 -0.1568
 6240TIP3    H140135   6.844   0.267  11.625 -0.8720 -0.6645  0.3890
 6240TIP3    H240136   6.982   0.267  11.687 -0.4349  0.7604 -0.5389
 6241TIP3   OH240137   3.694   5.939  11.574  0.1576 -0.2339  0.0268
 6241TIP3    H140138   3.761   5.878  11.541 -0.0707 -1.3328  1.4948
 6241TIP3    H240139   3.716   5.952  11.666 -0.8258  0.5217  0.1740
 6242TIP3   OH240140   0.554   2.190   0.586 -0.3901 -0.0756  0.7786
 6242TIP3    H140141   0.497   2.116   0.606  2.1219 -2.5131 -0.2893
 6242TIP3    H240142   0.531   2.215   0.496  0.1486 -1.0896  0.3296
 6243TIP3   OH240143   4.907   1.322  10.462  0.3219 -0.0888 -0.6125
 6243TIP3    H140144   4.828   1.268  10.459 -0.2395  0.5681  1.2407
 6243TIP3    H240145   4.961   1.281  10.530  0.9147  0.3301 -0.8236
 6244TIP3   OH240146   1.271   2.671  14.027  0.2025 -0.3090  0.3565
 6244TIP3    H140147   1.261   2.596  13.970 -0.6813 -0.3094  0.4985
 6244TIP3    H240148   1.318   2.736  13.974 -1.5321  0.0986 -0.7633
 6245TIP3   OH240149   4.820   4.147  10.479 -0.5646 -0.2061 -0.2399
 6245TIP3    H140150   4.752   4.208  10.450  0.4919  0.1842 -2.0076
 6245TIP3    H240151   4.898   4.202  10.491 -0.3717 -0.7468  1.1251
 6246TIP3   OH240152   0.741   2.923  14.544 -0.4070 -0.5470  0.0554
 6246TIP3    H140153   0.789   2.894  14.621 -0.7608 -0.0716  0.4674
 6246TIP3    H240154   0.807   2.965  14.488 -0.3961  0.5094  0.8245
 6247TIP3   OH240155   0.318   2.308  15.177 -0.0685 -0.3568 -0.0007
 6247TIP3    H140156   0.369   2.333  15.253 -2.7567 -0.8673  2.1368
 6247TIP3    H240157   0.299   2.390  15.132 -0.7101  0.3132  1.4471
 6248TIP3   OH240158   2.573   6.471  15.230  0.6896 -0.4691 -0.2841
 6248TIP3    H140159   2.637   6.428  15.286  0.0962  0.0524  0.8186
 6248TIP3    H240160   2.489   6.445  15.265  0.1864 -2.2413 -2.5255
 6249TIP3   OH240161   6.058   2.127  13.156 -0.0811  0.1260 -0.0091
 6249TIP3    H140162   6.145   2.091  13.176  0.4033  1.0720 -0.3425
 6249TIP3    H240163   6.005   2.103  13.232  0.6069 -0.0325  0.4399
 6250TIP3   OH240164   5.752   4.848   1.297  0.9264 -0.0621 -0.4374
 6250TIP3    H140165   5.760   4.844   1.393 -0.7823  3.1261 -0.0001
 6250TIP3    H240166   5.835   4.884   1.267  0.3666  1.9811  0.2983
 6251TIP3   OH240167   1.428   4.711   9.513  0.4316 -0.6749  0.5009
 6251TIP3    H140168   1.486   4.753   9.576  0.8275  0.9755 -0.8878
 6251TIP3    H240169   1.431   4.618   9.536  2.8808 -0.5241  1.0740
 6252TIP3   OH240170   4.190   6.589  12.185  0.2031 -0.4668 -0.5246
 6252TIP3    H140171   4.164   6.524  12.250  0.3069 -0.7424 -0.7572
 6252TIP3    H240172   4.131   6.573  12.111  0.1401 -0.2084 -0.5318
 6253TIP3   OH240173   0.507   5.950  13.075  0.2604  0.2012  0.4589
 6253TIP3    H140174   0.491   6.037  13.039  0.2425  0.6025  1.3955
 6253TIP3    H240175   0.534   5.966  13.165 -1.3961 -0.8224  1.2065
 6254TIP3   OH240176   2.637   4.725  11.315 -0.0518 -0.6364 -0.0575
 6254TIP3    H140177   2.704   4.788  11.341  1.1385 -1.3149 -1.4011
 6254TIP3    H240178   2.583   4.773  11.252  0.8881 -0.9369 -1.1239
 6255TIP3   OH240179   6.541   6.604  11.972 -0.2865 -0.0439 -0.2744
 6255TIP3    H140180   6.469   6.545  11.950 -0.0991  0.0318 -1.1295
 6255TIP3    H240181   6.537   6.613  12.067 -2.1129  0.8818 -0.4070
 6256TIP3   OH240182   2.861   0.671   9.487  0.3169  0.2976 -0.7372
 6256TIP3    H140183   2.769   0.693   9.472  0.1243  0.6666  0.8029
 6256TIP3    H240184   2.905   0.756   9.496  0.6650  0.1169 -0.7035
 6257TIP3   OH240185   4.807   3.284   3.474 -0.4152 -0.2017 -0.2517
 6257TIP3    H140186   4.735   3.274   3.536 -0.4861 -0.5789 -0.3953
 6257TIP3    H240187   4.875   3.226   3.506  0.5820  1.5522  0.9722
 6258TIP3   OH240188   2.237   2.625  12.899  0.0654 -0.0560 -0.1231
 6258TIP3    H140189   2.281   2.541  12.887  0.4190  0.1234 -0.0973
 6258TIP3    H240190   2.304   2.682  12.936 -0.2080  0.2044 -0.0250
 6259TIP3   OH240191   6.994   0.455  13.457  0.2806 -0.7358 -0.5970
 6259TIP3    H140192   7.056   0.521  13.487 -1.0654 -0.2792  1.4679
 6259TIP3    H240193   7.048   0.382  13.427  1.8172  0.0048  0.2583
 6260TIP3   OH240194   3.505   5.961  12.939 -0.5867  0.3232  0.1853
 6260TIP3    H140195   3.424   6.010  12.954 -1.8309 -1.6329  0.2366
 6260TIP3    H240196   3.475   5.875  12.909  1.4324 -0.8457  1.3642
 6261TIP3   OH240197   6.719   0.905  11.041  0.1126  0.1188  0.1158
 6261TIP3    H140198   6.714   0.848  10.965 -2.9114 -0.2130  0.4490
 6261TIP3    H240199   6.670   0.860  11.109  0.1928  1.7524  1.3326
 6262TIP3   OH240200   2.904   0.122  10.233  0.9978 -0.3168 -0.1676
 6262TIP3    H140201   2.874   0.083  10.151  0.1690  0.0320 -0.0376
 6262TIP3    H240202   2.942   0.206  10.207 -0.1413  0.2348 -0.1036
 6263TIP3   OH240203   5.771   4.442  14.609  0.3737 -0.1354 -0.3413
 6263TIP3    H140204   5.684   4.408  14.632  0.0678  0.2217 -0.9644
 6263TIP3    H240205   5.773   4.531  14.646 -0.0326  0.3546 -1.4757
 6264TIP3   OH240206   1.989   3.638   2.509  0.2588 -0.0121  0.2302
 6264TIP3    H140207   1.995   3.733   2.516 -0.4442 -0.0464  1.4921
 6264TIP3    H240208   2.073   3.606   2.543  0.1506  0.1227  0.6209
 6265TIP3   OH240209   2.938   5.871  11.657  0.1682  0.1684  0.1276
 6265TIP3    H140210   2.985   5.907  11.581  0.8657 -1.1737 -0.1033
 6265TIP3    H240211   2.995   5.802  11.690  2.5166  3.9086  5.1420
 6266TIP3   OH240212   4.474   4.545   9.504 -0.4301  0.0550 -0.0171
 6266TIP3    H140213   4.428   4.613   9.554  0.5728 -0.0175  1.0750
 6266TIP3    H240214   4.492   4.585   9.419 -1.8095  0.3391 -0.2017
 6267TIP3   OH240215   1.439   1.510  14.099 -0.5611  0.2460  0.4087
 6267TIP3    H140216   1.380   1.541  14.030 -0.0059  0.9656  0.2472
 6267TIP3    H240217   1.526   1.533  14.069 -0.3948  2.0906  2.0605
 6268TIP3   OH240218   3.204   2.184  13.503  0.6051 -0.0061 -0.5531
 6268TIP3    H140219   3.175   2.266  13.543 -2.3772 -0.9431 -0.4823
 6268TIP3    H240220   3.248   2.137  13.574  1.6129  1.1642 -0.3769
 6269TIP3   OH240221   3.029   6.655  11.948 -0.3245  0.7703 -0.0915
 6269TIP3    H140222   3.073   6.572  11.935 -0.0927  0.7661  0.6976
 6269TIP3    H240223   3.099   6.721  11.942 -0.4948  0.9109 -0.6379
 6270TIP3   OH240224   0.984   6.614  10.069 -0.2679  0.8386  0.4999
 6270TIP3    H140225   1.066   6.565  10.078 -1.0592 -0.7297 -0.4798
 6270TIP3    H240226   0.920   6.564  10.120 -1.1368  0.7577 -0.6460
 6271TIP3   OH240227   3.411   1.962   1.406 -0.9850 -0.2572 -0.1032
 6271TIP3    H140228   3.432   1.948   1.499  0.2637  0.2992 -0.2853
 6271TIP3    H240229   3.396   2.056   1.398 -0.3545 -0.1977 -0.6078
 6272TIP3   OH240230   7.100   0.787   2.039 -0.3526 -0.4257 -0.0895
 6272TIP3    H140231   7.026   0.845   2.022  2.2614  2.6091 -2.6022
 6272TIP3    H240232   7.171   0.846   2.063  1.9638 -2.8297 -0.5772
 6273TIP3   OH240233   1.167   4.409  10.522  0.0910 -0.4545 -0.0642
 6273TIP3    H140234   1.243   4.366  10.482 -0.3959 -2.4815  1.0434
 6273TIP3    H240235   1.190   4.418  10.614  0.4306  2.4072 -0.3264
 6274TIP3   OH240236   2.576   5.764   0.149  0.1013  0.1328 -0.1018
 6274TIP3    H140237   2.555   5.838   0.092  2.3409 -0.4825 -1.8516
 6274TIP3    H240238   2.557   5.687   0.096  0.0740 -0.5020  0.8211
 6275TIP3   OH240239   4.640   4.139  11.153  0.0356  0.2232 -0.2197
 6275TIP3    H140240   4.691   4.105  11.079  0.5344 -0.8195  0.5797
 6275TIP3    H240241   4.693   4.211  11.187  0.1524  0.2360 -0.4231
 6276TIP3   OH240242   3.026   6.666  10.353  0.2876  0.0841 -0.1422
 6276TIP3    H140243   3.004   6.759  10.358 -0.9965 -0.1817 -0.4351
 6276TIP3    H240244   3.049   6.652  10.261  2.5106  0.5106  0.3062
 6277TIP3   OH240245   0.596   6.294  11.374 -0.1667 -0.5233 -0.0159
 6277TIP3    H140246   0.667   6.322  11.317 -1.2632 -1.7675 -2.1252
 6277TIP3    H240247   0.555   6.221  11.327 -2.9099  0.2108  1.0358
 6278TIP3   OH240248   3.485   6.142  11.450  0.4616 -0.5678 -0.0821
 6278TIP3    H140249   3.461   6.054  11.419 -0.0413 -0.6471  0.5240
 6278TIP3    H240250   3.402   6.189  11.456  0.6843 -0.1909  0.0278
 6279TIP3   OH240251   5.325   5.207  11.912  0.7198  0.0437  0.3315
 6279TIP3    H140252   5.275   5.208  11.831 -0.2185 -1.9804  0.8012
 6279TIP3    H240253   5.416   5.215  11.885  0.5070 -1.6155 -1.0708
 6280TIP3   OH240254   1.333   2.719  10.701 -0.2522 -0.0009 -0.1405
 6280TIP3    H140255   1.340   2.716  10.606  0.1589 -1.2564 -0.0994
 6280TIP3    H240256   1.423   2.703  10.732 -0.3388  0.6445  0.4589
 6281TIP3   OH240257   1.352   0.430  11.009 -0.6415  0.4338  0.4572
 6281TIP3    H140258   1.357   0.335  11.017  0.9119  0.6298  2.5169
 6281TIP3    H240259   1.314   0.459  11.091 -0.8931  1.6299 -0.0588
 6282TIP3   OH240260   0.577   5.317  12.173  0.0767  0.3324  0.0649
 6282TIP3    H140261   0.575   5.408  12.144  0.0084  0.8660  1.6670
 6282TIP3    H240262   0.640   5.275  12.115  0.1562  1.4163 -0.6583
 6283TIP3   OH240263   3.145   7.078  11.293 -0.8718  0.1078  0.7841
 6283TIP3    H140264   3.050   7.086  11.283 -0.6878  1.8617  0.2040
 6283TIP3    H240265   3.180   7.107  11.209  0.1840 -1.0088  0.8075
 6284TIP3   OH240266   1.506   3.185   0.153 -0.4397  0.7146  0.6282
 6284TIP3    H140267   1.580   3.139   0.112 -0.9094  0.2424  0.3036
 6284TIP3    H240268   1.527   3.184   0.246  0.4429  1.4473  0.4493
 6285TIP3   OH240269   3.564   1.891   1.625 -0.0530 -0.8629  0.0730
 6285TIP3    H140270   3.592   1.810   1.582 -1.1721 -0.2328 -1.9937
 6285TIP3    H240271   3.555   1.867   1.717  1.0716 -2.6792 -0.2279
 6286TIP3   OH240272   1.164   5.222  11.560 -0.0590  0.5965 -0.1062
 6286TIP3    H140273   1.094   5.178  11.512  0.9163  0.4039 -1.4311
 6286TIP3    H240274   1.120   5.286  11.615 -1.2129  1.7479 -2.2278
 6287TIP3   OH240275   1.727   0.257  11.893  0.1181 -0.2080 -0.1339
 6287TIP3    H140276   1.716   0.275  11.799 -0.5748 -2.1027 -0.4688
 6287TIP3    H240277   1.676   0.177  11.908  1.1729 -0.6058  1.6147
 6288TIP3   OH240278   2.138   5.774  15.030  0.3050  0.1088  0.4433
 6288TIP3    H140279   2.043   5.771  15.013 -0.4502 -0.4842  3.9611
 6288TIP3    H240280   2.155   5.866  15.050  0.1937  0.0112  1.0035
 6289TIP3   OH240281   7.025   2.294  12.308  0.4138 -0.0790  0.3818
 6289TIP3    H140282   7.115   2.322  12.291  0.2739  0.1299 -0.0349
 6289TIP3    H240283   6.971   2.361  12.266  0.0654 -0.3351  0.4182
 6290TIP3   OH240284   2.579   5.301  14.618 -0.2571  0.0043 -0.2893
 6290TIP3    H140285   2.532   5.365  14.563 -0.3345  0.3028  0.1168
 6290TIP3    H240286   2.519   5.285  14.691 -0.4772 -0.9603 -0.6648
 6291TIP3   OH240287   6.363   0.553   3.438 -0.1677  0.3669  0.1249
 6291TIP3    H140288   6.432   0.547   3.372 -1.5966  1.2318 -1.4962
 6291TIP3    H240289   6.283   0.527   3.392 -1.3076  1.6026  1.3299
 6292TIP3   OH240290   6.580   2.395  12.175 -0.3908 -0.5975  0.2990
 6292TIP3    H140291   6.664   2.357  12.150 -0.6358 -0.0829 -1.5036
 6292TIP3    H240292   6.599   2.446  12.254  0.6108 -1.8197  0.8749
 6293TIP3   OH240293   0.452   1.729  12.595  0.1218  0.1243 -0.0491
 6293TIP3    H140294   0.540   1.691  12.588  0.8041  1.6353 -0.1849
 6293TIP3    H240295   0.393   1.654  12.599  1.5546 -1.0033  2.0720
 6294TIP3   OH240296   1.926   6.142   5.187  0.4869  0.3170 -0.2587
 6294TIP3    H140297   1.861   6.084   5.226  1.0400 -1.5938 -1.9911
 6294TIP3    H240298   1.969   6.184   5.262 -0.4173 -0.9772  1.0473
 6295TIP3   OH240299   2.228   0.134  13.890 -0.0092  0.2349 -0.3564
 6295TIP3    H140300   2.194   0.097  13.809  0.8344  0.0604 -0.6397
 6295TIP3    H240301   2.271   0.215  13.864 -0.5430  0.6644  0.0561
 6296TIP3   OH240302   0.151   4.102  12.598  0.1680  0.3814 -0.6046
 6296TIP3    H140303   0.145   4.131  12.689  1.2568 -0.6996 -0.1592
 6296TIP3    H240304   0.209   4.166  12.557  0.7235  0.1432 -0.2058
 6297TIP3   OH240305   2.671   0.219   0.418  0.6116  0.0163  0.6005
 6297TIP3    H140306   2.756   0.220   0.373  0.3534  1.5625  0.1003
 6297TIP3    H240307   2.608   0.197   0.349  0.3656  1.0738  0.4761
 6298TIP3   OH240308   5.833   0.422   9.716  0.2401 -0.0180 -0.1759
 6298TIP3    H140309   5.782   0.460   9.644  0.4395 -0.7024 -0.6903
 6298TIP3    H240310   5.768   0.404   9.784  0.4515  3.7256  1.2549
 6299TIP3   OH240311   3.303   6.890   5.216  0.2785  0.1371  0.1020
 6299TIP3    H140312   3.253   6.970   5.227  0.5371  0.4781 -1.0672
 6299TIP3    H240313   3.289   6.865   5.125  1.1738 -0.4795  0.1177
 6300TIP3   OH240314   5.299   0.180  12.999 -0.5912 -0.5708  0.3224
 6300TIP3    H140315   5.246   0.247  13.042 -0.2250  0.5326 -0.8790
 6300TIP3    H240316   5.312   0.113  13.066 -2.7437 -0.4601  0.9083
 6301TIP3   OH240317   6.310   6.463  13.421  0.2496  0.2806 -0.0523
 6301TIP3    H140318   6.219   6.475  13.450 -0.3383  0.8719 -1.9728
 6301TIP3    H240319   6.334   6.377  13.456 -0.5132  0.7276  1.7179
 6302TIP3   OH240320   0.823   5.686   2.140 -0.0816  1.0512  0.3952
 6302TIP3    H140321   0.778   5.702   2.057 -1.4418  1.6511  1.2235
 6302TIP3    H240322   0.815   5.768   2.188 -0.3260  0.3520  1.5867
 6303TIP3   OH240323   2.184   5.524  13.102 -0.5862 -0.5042  0.4230
 6303TIP3    H140324   2.127   5.504  13.027 -1.5861 -1.0202  1.3000
 6303TIP3    H240325   2.137   5.593  13.149 -0.0465 -0.3144  0.6889
 6304TIP3   OH240326   5.800   5.119   9.923 -0.1114 -0.6280  0.2607
 6304TIP3    H140327   5.796   5.024   9.935 -0.1277 -0.7273 -0.4873
 6304TIP3    H240328   5.715   5.141   9.884  0.1922 -0.4191 -0.2910
 6305TIP3   OH240329   6.972   6.153   3.606  0.1248 -0.0844  0.3406
 6305TIP3    H140330   6.945   6.163   3.697 -2.2246 -0.2329 -0.2772
 6305TIP3    H240331   7.016   6.236   3.585 -1.4263  0.9308  0.9565
 6306TIP3   OH240332   4.687   5.638   9.677 -0.1574 -0.2364 -0.1672
 6306TIP3    H140333   4.720   5.548   9.678 -2.8480 -1.3061  1.0900
 6306TIP3    H240334   4.597   5.631   9.645 -0.4241  2.0426 -0.1284
 6307TIP3   OH240335   4.651   2.401  10.186 -0.1417  0.2263  0.1676
 6307TIP3    H140336   4.595   2.324  10.202 -1.9775  1.2748 -0.8153
 6307TIP3    H240337   4.693   2.418  10.270  0.6076 -2.0348  0.3337
 6308TIP3   OH240338   5.677   1.918  15.377  0.4081  0.6285 -0.3454
 6308TIP3    H140339   5.665   1.926  15.471 -0.9676 -0.1639 -0.4374
 6308TIP3    H240340   5.746   1.981  15.357 -0.1649  1.7447  1.0005
 6309TIP3   OH240341   5.954   1.105  14.805  0.1589 -0.0781  0.0748
 6309TIP3    H140342   5.999   1.043  14.863 -0.3252 -1.1978 -0.7109
 6309TIP3    H240343   5.960   1.065  14.718  0.9239  1.6078 -0.6845
 6310TIP3   OH240344   1.799   5.679   2.895  0.1932  0.0406  0.3435
 6310TIP3    H140345   1.885   5.684   2.853 -0.2823  0.4995 -0.6063
 6310TIP3    H240346   1.799   5.752   2.957 -0.3367  1.4808 -1.2790
 6311TIP3   OH240347   4.412   0.980   2.940  0.1761 -0.1369 -0.4089
 6311TIP3    H140348   4.405   1.075   2.938  0.6887 -0.0871  0.0822
 6311TIP3    H240349   4.457   0.957   2.859 -1.0030 -0.0659 -1.1114
 6312TIP3   OH240350   2.785   6.171   0.863 -0.1023 -0.1664 -0.5678
 6312TIP3    H140351   2.790   6.133   0.951  2.0061  2.6857  0.7263
 6312TIP3    H240352   2.693   6.197   0.854  0.1509  2.3900  2.3243
 6313TIP3   OH240353   2.613   6.037  14.480 -0.5101  0.3295 -0.3905
 6313TIP3    H140354   2.701   6.001  14.490 -1.1697 -1.0622  0.6813
 6313TIP3    H240355   2.624   6.132  14.489  0.7854  0.1138  0.4452
 6314TIP3   OH240356   1.639   3.459   0.799 -0.0921  0.1719 -0.0784
 6314TIP3    H140357   1.635   3.501   0.885  0.7427 -1.3224  0.7289
 6314TIP3    H240358   1.722   3.413   0.799 -0.7443 -1.0570 -1.1241
 6315TIP3   OH240359   0.744   2.052   2.266  0.6168 -0.0562  0.5420
 6315TIP3    H140360   0.743   2.038   2.171  0.5347 -0.6055  0.6163
 6315TIP3    H240361   0.836   2.071   2.287  0.5680  0.4530  0.3035
 6316TIP3   OH240362   5.959   2.452  12.212 -0.1525 -0.1026 -0.0239
 6316TIP3    H140363   5.953   2.536  12.258 -1.4848 -0.7613  1.0888
 6316TIP3    H240364   5.925   2.470  12.124 -1.1026  0.3816  0.4306
 6317TIP3   OH240365   0.360   6.585   1.482  0.1712 -0.3975  0.3463
 6317TIP3    H140366   0.392   6.672   1.508  3.5128 -1.5355  0.5417
 6317TIP3    H240367   0.372   6.531   1.560 -3.7248 -0.7855  0.8839
 6318TIP3   OH240368   0.131   2.873  12.911 -0.0784  0.5860  0.2437
 6318TIP3    H140369   0.182   2.799  12.877  0.3494  0.2528  1.5429
 6318TIP3    H240370   0.041   2.854  12.884  0.2926  0.5277 -0.9863
 6319TIP3   OH240371   5.633   5.395   9.475 -0.1132 -0.1571  0.0239
 6319TIP3    H140372   5.644   5.302   9.456  0.1530 -0.0859 -0.1672
 6319TIP3    H240373   5.648   5.439   9.391 -2.6578 -0.1009 -0.4895
 6320TIP3   OH240374   2.237   4.256  11.949  0.3957 -0.1689  0.7322
 6320TIP3    H140375   2.223   4.261  11.855  0.8478 -0.4732  0.6453
 6320TIP3    H240376   2.317   4.306  11.965 -0.0048  0.3801  1.0327
 6321TIP3   OH240377   2.735   6.164  15.153  0.7421 -0.0230 -0.1348
 6321TIP3    H140378   2.723   6.078  15.193  1.8628 -0.2018 -0.1334
 6321TIP3    H240379   2.741   6.147  15.059 -1.9695  0.4058 -0.4635
 6322TIP3   OH240380   6.111   4.487  10.816 -0.4443  1.1088 -0.3245
 6322TIP3    H140381   6.200   4.470  10.784 -0.0291  0.5690  1.0288
 6322TIP3    H240382   6.097   4.580  10.801  0.3745  1.2095 -0.5172
 6323TIP3   OH240383   6.086   5.797   0.599 -0.1070 -0.8931  0.1486
 6323TIP3    H140384   6.039   5.791   0.682  0.2809 -1.0242  0.3647
 6323TIP3    H240385   6.178   5.806   0.625 -0.2196  2.0528 -0.1939
 6324TIP3   OH240386   3.400   1.447   9.958 -0.3260  0.5434 -0.2310
 6324TIP3    H140387   3.372   1.422   9.870 -1.4306 -1.0788  0.5373
 6324TIP3    H240388   3.494   1.425   9.960  0.4627  3.2227 -1.8396
 6325TIP3   OH240389   5.833   0.730  13.703 -0.3102  0.1042  0.0026
 6325TIP3    H140390   5.788   0.646  13.696 -1.2593  0.6156 -0.2990
 6325TIP3    H240391   5.762   0.794  13.709  0.3895  0.8014  1.4205
 6326TIP3   OH240392   0.959   2.659   2.080  0.5119 -0.0036  0.3738
 6326TIP3    H140393   0.865   2.642   2.089  0.9314 -1.9520  1.9998
 6326TIP3    H240394   0.969   2.696   1.993 -2.0060  2.4268  1.0034
 6327TIP3   OH240395   0.351   0.424   1.723  0.0627  0.4235  0.6905
 6327TIP3    H140396   0.411   0.354   1.695 -1.3563 -0.4457 -0.2879
 6327TIP3    H240397   0.408   0.498   1.742  1.3304  0.3130 -2.2836
 6328TIP3   OH240398   4.863   6.019   3.400  0.2555 -0.2254  0.0184
 6328TIP3    H140399   4.950   5.983   3.419  0.1827  0.7627  2.5663
 6328TIP3    H240400   4.877   6.073   3.321  2.0143  0.0443  0.4671
 6329TIP3   OH240401   3.275   0.155  10.148  0.3401  0.1588 -0.2120
 6329TIP3    H140402   3.306   0.231  10.198  0.2740  0.1384 -0.1399
 6329TIP3    H240403   3.341   0.143  10.080 -0.5965  1.4574 -1.4187
 6330TIP3   OH240404   2.205   5.338  13.384 -0.0033  0.1597 -0.5030
 6330TIP3    H140405   2.249   5.362  13.466 -0.1915 -1.7821  0.2157
 6330TIP3    H240406   2.152   5.415  13.362 -0.6729  0.3845  1.7045
 6331TIP3   OH240407   3.871   4.412   2.829 -0.0400 -0.3637 -0.2215
 6331TIP3    H140408   3.958   4.443   2.803  0.6010 -2.0287 -0.1540
 6331TIP3    H240409   3.851   4.462   2.908  0.3062  0.9161 -0.9108
 6332TIP3   OH240410   6.282   3.099  11.992 -0.1159  0.2131 -0.1674
 6332TIP3    H140411   6.313   3.152  12.065  1.2178 -0.1959 -0.4031
 6332TIP3    H240412   6.290   3.009  12.023 -1.6689  0.1030 -0.0310
 6333TIP3   OH240413   2.348   1.729   3.018  0.3348 -0.0076  0.8341
 6333TIP3    H140414   2.265   1.761   3.053  0.0927  0.3458 -0.0436
 6333TIP3    H240415   2.335   1.635   3.006 -1.0708  0.4805 -2.2646
 6334TIP3   OH240416   3.773   1.825  14.113 -0.3239 -0.2130  0.1814
 6334TIP3    H140417   3.792   1.761  14.045 -1.4832 -0.4014  0.0258
 6334TIP3    H240418   3.690   1.797  14.150 -0.0861  0.3304  1.1602
 6335TIP3   OH240419   0.149   3.940   2.246  0.0567 -0.2283  0.1117
 6335TIP3    H140420   0.159   3.977   2.158 -0.6246 -1.6060 -0.5834
 6335TIP3    H240421   0.169   3.847   2.235 -2.8004 -1.0184  0.7892
 6336TIP3   OH240422   4.849   1.359  15.488  0.5399  0.2594  0.2317
 6336TIP3    H140423   4.813   1.392  15.406  0.9421 -0.2536 -0.1613
 6336TIP3    H240424   4.937   1.330  15.466  0.4755 -0.3552  0.7308
 6337TIP3   OH240425   4.658   0.768  14.691  0.1941 -0.2391 -0.3476
 6337TIP3    H140426   4.639   0.788  14.782 -0.7775  0.2200 -0.6396
 6337TIP3    H240427   4.711   0.688  14.695  1.9419  0.8771  0.7065
 6338TIP3   OH240428   1.691   0.319  10.071  0.0148 -0.3239 -0.6967
 6338TIP3    H140429   1.765   0.362  10.028 -0.0567  0.1859 -0.3271
 6338TIP3    H240430   1.624   0.387  10.076  0.1279 -0.2761  0.4726
 6339TIP3   OH240431   1.582   4.850  15.083  0.0910  0.3987  0.5580
 6339TIP3    H140432   1.635   4.779  15.049 -0.1030  0.6518 -0.2858
 6339TIP3    H240433   1.521   4.807  15.144 -1.0697 -0.4091 -1.0964
 6340TIP3   OH240434   3.383   4.443   3.915  0.5606 -0.1349 -0.0639
 6340TIP3    H140435   3.450   4.501   3.951 -0.7035  0.9965  0.5516
 6340TIP3    H240436   3.432   4.377   3.865  2.0343  1.6732 -1.1315
 6341TIP3   OH240437   6.130   6.894  11.992 -0.7110 -0.3268  0.6302
 6341TIP3    H140438   6.165   6.970  12.038 -2.0378 -0.1261  1.3669
 6341TIP3    H240439   6.167   6.819  12.039 -0.1472 -0.1402  0.4924
 6342TIP3   OH240440   2.190   6.822   1.449  0.3305 -0.1048 -0.4619
 6342TIP3    H140441   2.109   6.858   1.484  1.1621 -0.5939  2.2175
 6342TIP3    H240442   2.212   6.750   1.508  1.8817 -1.0604 -2.0827
 6343TIP3   OH240443   4.370   1.496   2.889 -0.7959  0.2746  0.1130
 6343TIP3    H140444   4.458   1.512   2.923 -0.0918 -1.8381 -0.5339
 6343TIP3    H240445   4.312   1.537   2.952  0.4984 -2.0204  3.0200
 6344TIP3   OH240446   5.276   4.591  10.295  0.1099  0.0013  0.2385
 6344TIP3    H140447   5.344   4.627  10.352 -0.5839 -0.0258  1.1140
 6344TIP3    H240448   5.241   4.668  10.248  1.6608 -0.1626 -1.2793
 6345TIP3   OH240449   4.239   2.323  10.851 -0.4492 -0.3420  0.1511
 6345TIP3    H140450   4.227   2.290  10.941 -0.8905 -1.0240 -0.1499
 6345TIP3    H240451   4.151   2.326  10.815 -0.1008 -2.4510 -1.0725
 6346TIP3   OH240452   1.359   3.077   9.736  0.1776 -0.6147 -0.0468
 6346TIP3    H140453   1.313   3.040   9.661  0.9900  1.9085 -1.9636
 6346TIP3    H240454   1.452   3.065   9.715  0.4159  0.3240  0.4105
 6347TIP3   OH240455   3.892   6.852   0.506  0.1452 -0.3534  0.4063
 6347TIP3    H140456   3.949   6.914   0.552 -0.9268 -0.2076  1.5954
 6347TIP3    H240457   3.844   6.905   0.443  0.4598 -0.2718  0.2335
 6348TIP3   OH240458   3.422   0.139  11.024 -0.5737 -0.1297  0.0869
 6348TIP3    H140459   3.330   0.133  11.050 -0.3673  1.3023  1.2608
 6348TIP3    H240460   3.453   0.049  11.025 -2.2675 -0.8048 -1.6014
 6349TIP3   OH240461   1.969   2.172  10.466 -0.0033 -0.2062 -0.3514
 6349TIP3    H140462   1.931   2.256  10.437  1.0250  0.7165  0.8626
 6349TIP3    H240463   1.990   2.127  10.384 -0.7455  0.6267 -1.0368
 6350TIP3   OH240464   0.107   1.087   3.802  0.1767 -0.0004  0.6197
 6350TIP3    H140465   0.100   1.129   3.887 -0.3221 -0.5315  0.8467
 6350TIP3    H240466   0.016   1.069   3.776  0.1585  1.9670 -0.9443
 6351TIP3   OH240467   5.991   3.624   2.029 -0.3097  0.2614  0.3413
 6351TIP3    H140468   5.983   3.638   2.124  0.2087  1.7556  0.1933
 6351TIP3    H240469   5.982   3.529   2.018  0.2817 -0.0192  1.9584
 6352TIP3   OH240470   6.925   7.098   2.291 -0.1836  0.9056 -0.0300
 6352TIP3    H140471   6.848   7.042   2.303  0.7361 -0.2013  0.8719
 6352TIP3    H240472   6.968   7.098   2.376  0.2378  2.4151 -0.2175
 6353TIP3   OH240473   6.125   4.629  11.479  0.3393 -0.1351  0.3198
 6353TIP3    H140474   6.143   4.706  11.425  0.5337 -0.8810 -0.7136
 6353TIP3    H240475   6.030   4.630  11.492  0.3350  0.2427  0.2675
 6354TIP3   OH240476   0.584   7.056   9.941  0.2440 -0.1270 -0.7197
 6354TIP3    H140477   0.498   7.023   9.916 -0.4678 -0.5459  1.9968
 6354TIP3    H240478   0.631   6.980   9.976  0.9986  0.4664 -0.3877
 6355TIP3   OH240479   1.799   0.402  13.051  0.5087 -0.4575  0.2040
 6355TIP3    H140480   1.880   0.356  13.028  0.4464 -0.2080 -0.5150
 6355TIP3    H240481   1.729   0.346  13.017  0.4495  0.5462 -1.4342
 6356TIP3   OH240482   5.378   6.004   9.860  0.7574 -0.1007  0.1441
 6356TIP3    H140483   5.339   6.089   9.839 -0.9835 -0.6434  0.9575
 6356TIP3    H240484   5.460   6.026   9.904  0.2839  1.1750  0.4522
 6357TIP3   OH240485   1.763   4.538  14.347 -0.0965 -0.0806 -0.4316
 6357TIP3    H140486   1.800   4.599  14.283  1.6097 -1.7757 -1.1660
 6357TIP3    H240487   1.757   4.455  14.299 -2.4574 -0.4933  0.4935
 6358TIP3   OH240488   4.010   2.780  12.854 -0.0786  0.3500 -0.6200
 6358TIP3    H140489   4.084   2.719  12.858 -0.4764 -0.1068 -0.0167
 6358TIP3    H240490   4.028   2.844  12.923 -1.4190 -1.1523  1.2342
 6359TIP3   OH240491   4.159   2.314   3.157 -0.5299 -0.3318 -0.2139
 6359TIP3    H140492   4.165   2.314   3.061 -0.0825 -0.3223 -0.1866
 6359TIP3    H240493   4.224   2.249   3.185 -2.1862 -1.9888  0.0014
 6360TIP3   OH240494   3.366   6.225  13.012  0.2597 -0.2056 -0.1132
 6360TIP3    H140495   3.292   6.269  13.052  1.5363  2.3337 -0.3433
 6360TIP3    H240496   3.372   6.262  12.924  1.3644 -0.8750 -0.3471
 6361TIP3   OH240497   0.578   6.419   1.897  0.4627 -0.1308 -0.7381
 6361TIP3    H140498   0.609   6.340   1.942  1.2049  1.1768  1.1733
 6361TIP3    H240499   0.633   6.490   1.931 -1.8237  1.6332 -0.4433
 6362TIP3   OH240500   4.874   4.679   9.720 -0.4412 -0.1306  0.2059
 6362TIP3    H140501   4.859   4.602   9.665  0.3379 -0.3411  0.2812
 6362TIP3    H240502   4.792   4.728   9.714 -0.9358 -0.9402  0.1280
 6363TIP3   OH240503   2.482   0.617   0.270 -0.4860  0.1978  0.0914
 6363TIP3    H140504   2.430   0.567   0.333  2.7232 -1.8404  1.3153
 6363TIP3    H240505   2.561   0.641   0.318  1.7068 -0.6535 -2.8418
 6364TIP3   OH240506   2.495   0.220   5.219 -0.0751 -0.1001  0.2970
 6364TIP3    H140507   2.484   0.154   5.287 -1.5143  0.3861  0.5616
 6364TIP3    H240508   2.543   0.291   5.261  0.0973 -0.3123  0.4576
 6365TIP3   OH240509   4.797   0.567  12.814  0.0742 -0.6150  0.1038
 6365TIP3    H140510   4.849   0.622  12.874 -0.1919  0.5568 -0.6920
 6365TIP3    H240511   4.719   0.619  12.797 -0.5131 -1.5674 -0.1414
 6366TIP3   OH240512   2.599   4.926   0.256 -0.2310 -0.0907  0.2150
 6366TIP3    H140513   2.577   4.838   0.224 -0.8264 -1.0683  2.9888
 6366TIP3    H240514   2.529   4.947   0.318  1.5443  0.9344  2.0157
 6367TIP3   OH240515   5.153   4.189  13.241 -0.5947 -0.5124  0.4430
 6367TIP3    H140516   5.243   4.220  13.237 -0.7614 -0.0497  0.0471
 6367TIP3    H240517   5.124   4.211  13.329 -0.7249  0.5557  0.1559
 6368TIP3   OH240518   2.680   3.518  10.291  0.0331 -0.3761  0.3799
 6368TIP3    H140519   2.752   3.455  10.297 -1.2812 -1.9060  1.0477
 6368TIP3    H240520   2.621   3.480  10.225 -0.4541  0.5277  0.2834
 6369TIP3   OH240521   6.393   1.036   3.026 -0.3151 -0.5405  0.4856
 6369TIP3    H140522   6.449   0.959   3.020  0.2422 -0.4200  3.0761
 6369TIP3    H240523   6.443   1.105   2.981  0.3674 -1.0787  0.3984
 6370TIP3   OH240524   6.557   6.892  12.657  0.6464 -0.3217 -0.0130
 6370TIP3    H140525   6.504   6.923  12.730 -0.3548  0.4104 -1.0097
 6370TIP3    H240526   6.642   6.933  12.669 -0.2137  1.7073 -0.5141
 6371TIP3   OH240527   2.194   4.005  14.072 -0.2588 -0.2201  0.0872
 6371TIP3    H140528   2.177   4.098  14.085 -0.0297 -0.1023 -0.4167
 6371TIP3    H240529   2.135   3.979  14.000  0.8202 -0.0744 -0.8797
 6372TIP3   OH240530   3.354   6.157   1.469  0.1115  0.3553 -0.5070
 6372TIP3    H140531   3.264   6.184   1.486 -0.3007 -0.9673 -0.5121
 6372TIP3    H240532   3.406   6.236   1.485 -0.9665  0.9353  0.2526
 6373TIP3   OH240533   4.132   5.305   1.858  0.0838  0.0130 -0.0584
 6373TIP3    H140534   4.099   5.218   1.835 -1.5395  0.7776 -0.7813
 6373TIP3    H240535   4.169   5.294   1.946  0.7856 -1.6025 -0.5224
 6374TIP3   OH240536   6.427   2.547  15.312 -0.1939  0.1881  0.0039
 6374TIP3    H140537   6.517   2.522  15.329  0.0529  0.4225 -0.8981
 6374TIP3    H240538   6.395   2.483  15.249 -0.0043  1.2512 -1.2245
 6375TIP3   OH240539   6.449   3.969  14.768  0.5678  0.2720 -0.3390
 6375TIP3    H140540   6.528   4.022  14.778  1.5776 -0.8448 -1.9120
 6375TIP3    H240541   6.480   3.879  14.767 -0.8548 -0.2561 -0.0137
 6376TIP3   OH240542   0.640   0.603   1.181 -0.1549 -0.0155 -0.5135
 6376TIP3    H140543   0.677   0.633   1.097  1.9822 -1.6253 -0.2495
 6376TIP3    H240544   0.557   0.562   1.157  0.0865  0.1642 -1.7357
 6377TIP3   OH240545   4.295   6.412   2.061 -0.5824  0.0434 -0.5325
 6377TIP3    H140546   4.316   6.418   2.154  0.3674  1.3297 -0.7980
 6377TIP3    H240547   4.213   6.460   2.051 -1.0587 -0.7074 -0.2547
 6378TIP3   OH240548   6.419   5.212   1.782 -0.3022 -0.3747 -0.2099
 6378TIP3    H140549   6.402   5.229   1.875 -1.3860 -0.3176 -0.4095
 6378TIP3    H240550   6.390   5.122   1.768 -0.3928 -0.2916 -0.5538
 6379TIP3   OH240551   3.198   0.084   3.331  0.6566 -0.0837  0.3284
 6379TIP3    H140552   3.252   0.008   3.350  0.3294 -0.3653  0.1598
 6379TIP3    H240553   3.143   0.095   3.409  0.7467  0.0136  0.3771
 6380TIP3   OH240554   1.693   0.189  13.804 -0.1971 -0.5404 -0.0683
 6380TIP3    H140555   1.672   0.282  13.812 -0.2326 -0.4505 -1.0602
 6380TIP3    H240556   1.608   0.146  13.799 -0.2027 -0.7600  1.5902
 6381TIP3   OH240557   3.009   2.669   0.284  0.3596  0.1960 -0.6235
 6381TIP3    H140558   2.988   2.596   0.342 -0.9032  0.5839 -0.5460
 6381TIP3    H240559   2.959   2.743   0.321  0.7314  0.8112 -1.3361
 6382TIP3   OH240560   2.001   5.596   1.306 -0.4541  0.7134 -0.1876
 6382TIP3    H140561   1.935   5.553   1.252  0.2984 -0.0693 -0.5174
 6382TIP3    H240562   1.984   5.565   1.395 -0.0838 -0.0796 -0.3818
 6383TIP3   OH240563   1.000   2.862   1.196 -0.0760  0.1975 -0.4779
 6383TIP3    H140564   1.071   2.917   1.163  1.3964 -1.5676 -0.4277
 6383TIP3    H240565   0.981   2.801   1.125 -1.8652  0.8912 -0.6395
 6384TIP3   OH240566   4.271   6.050  10.025 -0.6035  0.1546  0.2891
 6384TIP3    H140567   4.229   6.126  10.064 -0.6667 -0.0681  0.6603
 6384TIP3    H240568   4.248   6.054   9.932  0.1746  1.1142  0.1124
 6385TIP3   OH240569   5.261   0.395   1.781  0.2868 -0.1735  0.0442
 6385TIP3    H140570   5.326   0.426   1.843  1.5174 -1.8250 -0.3572
 6385TIP3    H240571   5.220   0.475   1.747  0.8183  0.8211  1.6312
 6386TIP3   OH240572   5.054   1.609  13.272 -0.2320  0.5257  0.1332
 6386TIP3    H140573   5.113   1.630  13.200 -0.2335  1.9290  0.5184
 6386TIP3    H240574   5.102   1.545  13.325 -0.3615 -0.7712 -1.2615
 6387TIP3   OH240575   1.643   1.322   1.224  0.4219 -0.1431 -0.0005
 6387TIP3    H140576   1.606   1.411   1.227 -0.1702 -0.3747 -0.1475
 6387TIP3    H240577   1.566   1.265   1.215  0.8727 -0.5565 -1.7858
 6388TIP3   OH240578   5.498   1.372  10.773 -0.6281  0.1828 -0.2239
 6388TIP3    H140579   5.474   1.426  10.848 -1.6217 -1.0183  0.3594
 6388TIP3    H240580   5.417   1.363  10.723 -0.4681 -0.6813 -0.3465
 6389TIP3   OH240581   2.209   2.481  15.088 -0.6229  0.0537 -0.9982
 6389TIP3    H140582   2.260   2.415  15.042  0.0102 -0.9829  1.0258
 6389TIP3    H240583   2.252   2.564  15.068  1.1969 -0.6593 -0.3054
 6390TIP3   OH240584   2.780   2.095   1.651 -0.0911 -0.2215 -0.0032
 6390TIP3    H140585   2.768   2.149   1.730 -1.9464  0.1485 -0.4910
 6390TIP3    H240586   2.713   2.026   1.659 -0.3513 -0.1385 -1.2736
 6391TIP3   OH240587   4.042   6.074  12.613  0.1678  0.1269 -0.4887
 6391TIP3    H140588   4.107   6.120  12.561 -0.1886 -0.9640 -1.9759
 6391TIP3    H240589   4.018   6.136  12.682  1.5999  1.1326 -0.8477
 6392TIP3   OH240590   1.410   7.034  13.310 -0.1242  0.0868  0.5196
 6392TIP3    H140591   1.340   7.078  13.262  0.6320 -0.5145 -1.2336
 6392TIP3    H240592   1.369   6.958  13.350 -0.4215 -0.5086 -0.8565
 6393TIP3   OH240593   1.199   1.272   1.212  0.3358 -0.4514 -0.3045
 6393TIP3    H140594   1.112   1.288   1.177  1.1210  0.4058 -1.9485
 6393TIP3    H240595   1.259   1.304   1.145  1.9324 -1.0265  0.7783
 6394TIP3   OH240596   4.625   6.247  10.748  0.6227  0.0604  0.3625
 6394TIP3    H140597   4.631   6.281  10.659 -4.0554 -1.1389 -0.6547
 6394TIP3    H240598   4.668   6.162  10.745 -0.0316 -0.2368 -0.9204
 6395TIP3   OH240599   0.776   4.836   4.666  0.0904  0.2416 -0.5973
 6395TIP3    H140600   0.798   4.921   4.630  1.0772 -0.0656 -0.7620
 6395TIP3    H240601   0.778   4.849   4.761  2.3411 -0.0413 -0.5420
 6396TIP3   OH240602   5.009   3.432  15.179  0.1348  0.4110  0.1707
 6396TIP3    H140603   5.025   3.393  15.265 -3.2981 -1.1079  0.2577
 6396TIP3    H240604   4.938   3.495  15.194 -0.2927  0.3684 -1.5064
 6397TIP3   OH240605   6.962   5.112   0.243  0.1283 -0.3128  0.0788
 6397TIP3    H140606   7.038   5.167   0.222 -0.0100 -0.4205 -0.7477
 6397TIP3    H240607   6.939   5.070   0.160 -1.3428  0.3390  0.1173
 6398TIP3   OH240608   1.898   0.743  10.069 -0.2539 -0.1269 -0.2079
 6398TIP3    H140609   1.885   0.707  10.156  1.6900  2.5692  1.3494
 6398TIP3    H240610   1.832   0.812  10.061 -0.2706 -0.2015 -0.8008
 6399TIP3   OH240611   6.005   0.748  10.193  0.3503  0.2497  0.1509
 6399TIP3    H140612   6.051   0.730  10.275  0.0854  0.5279  0.3632
 6399TIP3    H240613   6.062   0.713  10.125  0.1788 -0.7482  0.5054
 6400TIP3   OH240614   6.353   2.409   0.773 -0.0072 -0.2939 -0.4453
 6400TIP3    H140615   6.401   2.361   0.840  0.2032  0.4539 -0.0447
 6400TIP3    H240616   6.264   2.373   0.776 -0.0183 -0.2203  0.2911
 6401TIP3   OH240617   4.570   5.046   3.730 -0.2785 -0.4378 -0.3430
 6401TIP3    H140618   4.574   5.016   3.820 -1.1890 -0.3711 -0.2663
 6401TIP3    H240619   4.476   5.056   3.712 -0.0600  1.0940 -0.7748
 6402TIP3   OH240620   0.336   6.053  11.798  0.4008  0.4100 -0.4613
 6402TIP3    H140621   0.371   6.136  11.830  0.2535  0.1294  0.4655
 6402TIP3    H240622   0.412   5.995  11.793  0.3874  0.3842 -0.3749
 6403TIP3   OH240623   3.674   5.933   2.111 -0.5469 -0.0194  0.6180
 6403TIP3    H140624   3.669   6.002   2.046  1.6423 -0.7820 -0.4691
 6403TIP3    H240625   3.619   5.963   2.183 -0.7751  2.1688 -0.3987
 6404TIP3   OH240626   6.395   5.681  15.187 -0.4535  0.6281 -0.5028
 6404TIP3    H140627   6.301   5.691  15.196 -0.7441 -0.2766 -2.2165
 6404TIP3    H240628   6.422   5.755  15.132 -0.1930  0.7564 -0.2077
 6405TIP3   OH240629   4.557   1.124  14.890  0.6998 -0.6227 -0.0909
 6405TIP3    H140630   4.489   1.110  14.957  1.1993 -0.2890  0.4983
 6405TIP3    H240631   4.510   1.118  14.807  0.3618 -2.7876  0.2027
 6406TIP3   OH240632   2.693   2.157   0.943 -0.1157 -0.0078  0.1084
 6406TIP3    H140633   2.663   2.067   0.958  0.2985 -0.4630 -1.5955
 6406TIP3    H240634   2.613   2.210   0.946 -0.5857 -0.6720 -0.5244
 6407TIP3   OH240635   4.727   1.861   0.959  0.1293 -0.4223 -0.2375
 6407TIP3    H140636   4.684   1.925   0.901 -0.5017 -0.8117 -0.2118
 6407TIP3    H240637   4.758   1.792   0.900 -1.2722 -1.2459 -0.0558
 6408TIP3   OH240638   2.826   5.644   0.181  0.5549  0.2504  0.0494
 6408TIP3    H140639   2.736   5.675   0.190  0.0454 -1.1540  0.0280
 6408TIP3    H240640   2.819   5.548   0.187  2.2581  0.1803  1.8929
 6409TIP3   OH240641   6.347   2.422   0.498  0.3053  0.1109 -0.1535
 6409TIP3    H140642   6.371   2.401   0.589  0.7468 -0.2923 -0.3586
 6409TIP3    H240643   6.352   2.517   0.494  0.8530  0.1017  0.0972
 6410TIP3   OH240644   6.956   2.473  14.516  0.2239 -0.1337  0.1817
 6410TIP3    H140645   6.970   2.379  14.519 -1.1132 -0.3385  0.6996
 6410TIP3    H240646   6.868   2.486  14.553 -0.4817  1.1054 -1.7440
 6411TIP3   OH240647   5.406   3.315  11.948 -0.4423 -0.0644  0.0707
 6411TIP3    H140648   5.375   3.405  11.946 -2.5653 -0.7422 -1.0121
 6411TIP3    H240649   5.456   3.306  11.867 -0.1246  0.1734  0.2399
 6412TIP3   OH240650   4.318   0.635   4.231  0.1392  0.2638 -0.2547
 6412TIP3    H140651   4.249   0.680   4.182  0.2236  1.7591  0.9156
 6412TIP3    H240652   4.390   0.699   4.236  0.1804  0.1283  1.6541
 6413TIP3   OH240653   7.158   4.525   5.108 -1.0134 -0.2846  0.0087
 6413TIP3    H140654   7.123   4.573   5.033  0.7444  1.2704  0.1240
 6413TIP3    H240655   7.252   4.520   5.093 -0.5057  0.6563  2.4046
 6414TIP3   OH240656   0.537   2.539   1.241 -0.1875 -0.1868  0.0654
 6414TIP3    H140657   0.528   2.632   1.260  0.7207 -0.0964  0.1123
 6414TIP3    H240658   0.458   2.516   1.192 -0.9805  0.3316  1.0730
 6415TIP3   OH240659   2.624   2.193  12.557 -0.1808 -0.0806 -0.1893
 6415TIP3    H140660   2.695   2.171  12.617 -1.8807  0.1093  2.0170
 6415TIP3    H240661   2.595   2.109  12.521 -0.0891 -0.3557  0.3771
 6416TIP3   OH240662   0.734   3.847   4.352  0.3089 -0.3826  0.3449
 6416TIP3    H140663   0.729   3.765   4.303  1.1452 -0.1233 -0.1865
 6416TIP3    H240664   0.765   3.912   4.288  0.9724  0.0608  1.0931
 6417TIP3   OH240665   5.467   4.023  11.410  0.0981  0.8899  0.4109
 6417TIP3    H140666   5.455   4.107  11.453  1.1434  1.8904 -1.1104
 6417TIP3    H240667   5.454   4.042  11.317  1.4177 -0.3726 -0.0763
 6418TIP3   OH240668   3.016   0.662   5.337 -0.5539  0.1739  0.0317
 6418TIP3    H140669   3.054   0.748   5.325  2.2273 -1.0124 -0.4464
 6418TIP3    H240670   2.970   0.667   5.421 -0.9965  2.2415 -0.2842
 6419TIP3   OH240671   3.869   5.240  13.240  0.3169 -0.3964 -0.2394
 6419TIP3    H140672   3.933   5.170  13.253 -1.6940 -1.8241  3.8605
 6419TIP3    H240673   3.802   5.201  13.184  0.2279 -1.0427  0.2995
 6420TIP3   OH240674   0.377   0.487   1.119 -0.2458  0.5603 -0.7263
 6420TIP3    H140675   0.288   0.507   1.089 -0.3333  1.5015  0.1111
 6420TIP3    H240676   0.364   0.437   1.200 -0.0025  0.6160 -0.6526
 6421TIP3   OH240677   3.166   3.142  14.210 -0.1398  0.3169 -0.0948
 6421TIP3    H140678   3.091   3.198  14.190  0.8720  1.2795 -1.3425
 6421TIP3    H240679   3.214   3.189  14.278 -1.1189 -0.7598  1.4188
 6422TIP3   OH240680   3.097   4.730   1.067 -0.3633 -0.0123  0.5168
 6422TIP3    H140681   3.103   4.820   1.035  0.3615  0.0584  0.8477
 6422TIP3    H240682   3.081   4.678   0.988  2.6347  0.0078 -0.2197
 6423TIP3   OH240683   4.191   0.340  13.961  0.4634 -0.0644  0.4183
 6423TIP3    H140684   4.118   0.279  13.973  1.2356 -0.7502  1.8502
 6423TIP3    H240685   4.152   0.426  13.974 -0.2617 -0.3538  0.2546
 6424TIP3   OH240686   0.257   1.680  10.212  0.8245 -0.3133 -0.1139
 6424TIP3    H140687   0.183   1.637  10.255  1.1900 -1.2631 -0.4095
 6424TIP3    H240688   0.218   1.752  10.163  0.1389 -0.5916  0.0155
 6425TIP3   OH240689   3.352   1.835  11.619  0.6986 -0.2466  0.3759
 6425TIP3    H140690   3.389   1.782  11.549 -0.5832  0.0393 -0.5696
 6425TIP3    H240691   3.326   1.917  11.576 -1.2721 -0.5487  0.8618
 6426TIP3   OH240692   4.276   7.149   4.110  0.0095 -0.3840  0.2702
 6426TIP3    H140693   4.358   7.192   4.131 -0.8751  0.4875  2.1193
 6426TIP3    H240694   4.256   7.179   4.021  1.8511 -0.9464 -0.3830
 6427TIP3   OH240695   0.566   0.228   0.718  0.1218  0.7265  0.8225
 6427TIP3    H140696   0.526   0.292   0.778  0.3931  1.7422 -0.0602
 6427TIP3    H240697   0.519   0.239   0.636 -0.5250 -0.9445  0.9179
 6428TIP3   OH240698   6.575   4.274   0.431 -0.6694  0.5668 -0.3757
 6428TIP3    H140699   6.565   4.251   0.339  1.7205 -0.6311 -0.4406
 6428TIP3    H240700   6.558   4.192   0.478  0.6663  0.4743 -0.0018
 6429TIP3   OH240701   2.694   0.750   2.217 -0.2068  0.0021 -0.4273
 6429TIP3    H140702   2.726   0.821   2.272  0.2920  0.7030 -1.5941
 6429TIP3    H240703   2.766   0.687   2.215  0.1788  0.4558 -1.0978
 6430TIP3   OH240704   5.367   4.222  15.142  0.2620  0.1111  0.3555
 6430TIP3    H140705   5.389   4.176  15.223 -1.2728  1.4079  1.5792
 6430TIP3    H240706   5.384   4.158  15.073  1.2003 -1.1843  1.7170
 6431TIP3   OH240707   4.971   2.664  14.009  0.1201  0.3946 -0.5899
 6431TIP3    H140708   5.047   2.611  13.985 -0.4476  0.4170 -2.6727
 6431TIP3    H240709   5.007   2.749  14.034  0.8191  0.3212 -1.2900
 6432TIP3   OH240710   1.736   2.358  15.118  0.1563 -0.6342 -0.0936
 6432TIP3    H140711   1.692   2.331  15.037  0.6107 -2.9217  0.3505
 6432TIP3    H240712   1.830   2.352  15.097  0.3088  1.3109 -0.1418
 6433TIP3   OH240713   2.198   6.415   1.600  0.1066  0.1920  0.1211
 6433TIP3    H140714   2.180   6.508   1.607 -0.4654  0.6953 -4.8265
 6433TIP3    H240715   2.291   6.409   1.580  0.4194 -0.5224  1.5810
 6434TIP3   OH240716   2.183   0.301   9.651  0.1467 -0.2852  0.6728
 6434TIP3    H140717   2.245   0.363   9.691 -1.0905  1.0902  0.5297
 6434TIP3    H240718   2.100   0.319   9.695 -0.5587 -0.8726 -0.3875
 6435TIP3   OH240719   6.836   6.912   0.293  0.1597  0.4468  0.0163
 6435TIP3    H140720   6.748   6.947   0.307  0.5124  0.6335  2.0027
 6435TIP3    H240721   6.823   6.834   0.240 -1.1134  0.8864 -0.3530
 6436TIP3   OH240722   3.392   3.099   2.569 -0.4469 -1.0514 -0.0434
 6436TIP3    H140723   3.434   3.040   2.631  0.7054  0.5790  0.8110
 6436TIP3    H240724   3.320   3.138   2.618 -2.7434 -3.3808 -1.3173
 6437TIP3   OH240725   6.673   3.802   9.664 -0.2920 -0.0673 -0.2985
 6437TIP3    H140726   6.627   3.794   9.581 -0.6178  1.9173 -0.3585
 6437TIP3    H240727   6.736   3.730   9.664 -0.0165  0.1261 -2.4535
 6438TIP3   OH240728   4.627   5.052  10.381 -0.2908  0.3003  0.3308
 6438TIP3    H140729   4.627   5.142  10.412  1.1823  0.2207  0.6300
 6438TIP3    H240730   4.688   5.051  10.308 -0.5267 -0.4039  0.1307
 6439TIP3   OH240731   2.713   3.143  12.538  0.5679  0.2765  0.4266
 6439TIP3    H140732   2.687   3.130  12.630  1.4212 -0.9650  0.5209
 6439TIP3    H240733   2.666   3.075  12.490 -1.0664  1.8500 -0.3316
 6440TIP3   OH240734   3.946   6.596  15.247  0.5670  0.1710  0.0223
 6440TIP3    H140735   3.858   6.584  15.283 -0.1998 -1.2754 -2.1697
 6440TIP3    H240736   4.004   6.570  15.319 -0.7837  0.3884  1.2452
 6441TIP3   OH240737   4.837   4.765  12.517  0.1379 -0.5465 -0.2688
 6441TIP3    H140738   4.854   4.680  12.476 -0.9571  0.1655 -2.3438
 6441TIP3    H240739   4.793   4.745  12.599 -1.0108 -1.9884 -1.1981
 6442TIP3   OH240740   3.323   1.777  13.199 -0.0058 -0.5379  0.0695
 6442TIP3    H140741   3.339   1.810  13.111  0.2821  0.6022  0.5313
 6442TIP3    H240742   3.283   1.851  13.245  0.4586 -0.8999  1.0783
 6443TIP3   OH240743   2.163   1.328   0.737  0.5752 -0.4317  0.7421
 6443TIP3    H140744   2.130   1.348   0.649  0.0067 -0.4500  0.9418
 6443TIP3    H240745   2.205   1.243   0.728  0.0818 -0.6661  0.5861
 6444TIP3   OH240746   4.999   0.445  13.990  0.1644 -0.5278 -0.4448
 6444TIP3    H140747   4.970   0.532  14.019  0.5933 -0.6615  0.4099
 6444TIP3    H240748   5.090   0.458  13.963  0.2084 -0.6939 -0.3796
 6445TIP3   OH240749   6.836   4.895  11.205 -0.1987  0.2460  0.1688
 6445TIP3    H140750   6.809   4.834  11.274  0.1890 -2.7825 -2.1607
 6445TIP3    H240751   6.758   4.905  11.151  0.2601  0.3220 -0.4828
 6446TIP3   OH240752   7.076   2.981  13.709  0.4329  0.0303 -0.3562
 6446TIP3    H140753   7.024   2.914  13.754 -1.1300  1.0295 -0.5925
 6446TIP3    H240754   7.160   2.980  13.754 -0.4847 -0.2094  1.4487
 6447TIP3   OH240755   7.156   0.348   0.819  0.9702  0.1291  0.0304
 6447TIP3    H140756   7.072   0.384   0.792  1.2583  0.3475 -0.5915
 6447TIP3    H240757   7.134   0.271   0.871  0.3744  0.5337  0.3922
 6448TIP3   OH240758   6.536   7.086  11.265 -0.7930  0.2142  1.2532
 6448TIP3    H140759   6.627   7.059  11.276 -0.7706  0.0219  0.6495
 6448TIP3    H240760   6.488   7.032  11.328 -0.7121 -1.0887  0.2560
 6449TIP3   OH240761   0.726   0.381   9.915  0.1410 -0.0471 -0.4399
 6449TIP3    H140762   0.753   0.289   9.918 -1.3126 -0.4660  2.0772
 6449TIP3    H240763   0.732   0.404   9.822  0.6172 -2.6394 -1.1315
 6450TIP3   OH240764   0.816   3.681   5.856  0.6191  0.0232 -0.2948
 6450TIP3    H140765   0.883   3.748   5.866  0.6682 -0.1739  0.8750
 6450TIP3    H240766   0.861   3.599   5.873  0.5319 -0.3241 -1.5841
 6451TIP3   OH240767   6.649   3.641   4.396  0.1599 -0.1292  0.3774
 6451TIP3    H140768   6.680   3.552   4.380  1.6334 -0.1204  2.7696
 6451TIP3    H240769   6.728   3.694   4.403 -0.4903  0.6598  2.6798
 6452TIP3   OH240770   1.594   1.460  13.496 -0.3096  0.7538 -0.1897
 6452TIP3    H140771   1.640   1.465  13.579 -2.7899  1.4301  1.2559
 6452TIP3    H240772   1.624   1.537  13.447  1.1052  0.4038  0.1051
 6453TIP3   OH240773   1.409   5.188  11.016  0.1596  0.2795  0.7076
 6453TIP3    H140774   1.427   5.153  11.104  1.7155  2.1984  1.2262
 6453TIP3    H240775   1.479   5.152  10.961  0.9911  1.4527  0.9594
 6454TIP3   OH240776   4.810   4.258  11.311  0.0435  0.4316 -0.2859
 6454TIP3    H140777   4.867   4.300  11.375  0.5555  0.6439 -0.8771
 6454TIP3    H240778   4.818   4.165  11.329  1.6345  0.3531 -1.2120
 6455TIP3   OH240779   4.761   4.287  12.489  0.4778 -0.5022  0.0145
 6455TIP3    H140780   4.789   4.296  12.580 -3.4390  2.8122  1.2000
 6455TIP3    H240781   4.685   4.229  12.493  0.5105 -0.6434 -1.2088
 6456TIP3   OH240782   4.735   1.528  12.791  0.1522  0.3084  0.3936
 6456TIP3    H140783   4.776   1.509  12.875 -0.1518 -1.0835  0.2599
 6456TIP3    H240784   4.786   1.478  12.727 -0.9597 -0.4876  0.0753
 6457TIP3   OH240785   5.627   3.590  11.709  0.4180  0.1118 -0.0852
 6457TIP3    H140786   5.622   3.657  11.641  0.0476 -2.7908 -3.1963
 6457TIP3    H240787   5.714   3.550  11.698  0.9897  0.5257  2.2675
 6458TIP3   OH240788   6.660   0.815   3.640 -0.1567 -0.1278 -0.0980
 6458TIP3    H140789   6.619   0.876   3.701  1.7601  1.5941 -0.4285
 6458TIP3    H240790   6.616   0.831   3.557 -1.2773 -0.9369  0.3067
 6459TIP3   OH240791   3.938   2.072  12.227 -0.2767  0.0783 -0.3450
 6459TIP3    H140792   4.013   2.060  12.285  0.3878  1.0788 -0.9849
 6459TIP3    H240793   3.970   2.052  12.140 -0.6112  0.9820 -0.6915
 6460TIP3   OH240794   3.796   1.150   5.789 -0.6612  0.3435 -0.2221
 6460TIP3    H140795   3.737   1.191   5.852 -1.6464  0.5505 -1.2568
 6460TIP3    H240796   3.876   1.203   5.793 -0.8306  0.5479  0.6128
 6461TIP3   OH240797   6.119   5.295   1.592  0.0080 -0.2253  0.0172
 6461TIP3    H140798   6.198   5.282   1.539  0.7673  0.0957  1.0401
 6461TIP3    H240799   6.121   5.225   1.656 -0.1216  0.2286  0.5283
 6462TIP3   OH240800   0.466   2.801   1.236  0.0101 -0.3444  0.1092
 6462TIP3    H140801   0.492   2.824   1.147 -2.6430 -2.5708 -1.4029
 6462TIP3    H240802   0.404   2.869   1.261  0.0988 -0.1945 -0.0723
 6463TIP3   OH240803   5.113   4.872  11.218 -0.0405 -0.4813  0.8581
 6463TIP3    H140804   5.072   4.832  11.141  0.5020  0.0380  0.2815
 6463TIP3    H240805   5.192   4.914  11.183 -0.6153  1.1346  1.4245
 6464TIP3   OH240806   1.559   6.935  13.094  0.1023 -0.5149  0.2400
 6464TIP3    H140807   1.517   6.971  13.017  0.9275 -1.5470 -0.7325
 6464TIP3    H240808   1.499   6.953  13.166 -1.4651 -0.9737 -0.9157
 6465TIP3   OH240809   5.219   6.221  11.587 -0.6381 -0.0326 -0.1070
 6465TIP3    H140810   5.304   6.234  11.629 -0.7482 -0.8839  0.3932
 6465TIP3    H240811   5.179   6.308  11.588  0.5000  0.5279 -0.9760
 6466TIP3   OH240812   4.383   6.801  10.770  0.6524  0.5971 -0.2835
 6466TIP3    H140813   4.404   6.882  10.816 -0.7002  2.6663 -3.0069
 6466TIP3    H240814   4.289   6.789  10.784  0.6130  0.1699 -0.8585
 6467TIP3   OH240815   1.370   0.525   4.902 -0.3098  0.3332 -0.1220
 6467TIP3    H140816   1.372   0.499   4.994 -0.4988  0.5879 -0.0456
 6467TIP3    H240817   1.424   0.604   4.898  2.4512 -1.4438 -0.8095
 6468TIP3   OH240818   2.656   6.840   0.477  0.4732  0.4111  0.0684
 6468TIP3    H140819   2.650   6.899   0.403 -1.5033 -0.0185 -0.1760
 6468TIP3    H240820   2.701   6.763   0.443 -3.2235 -1.2134 -1.8244
 6469TIP3   OH240821   4.028   0.590  11.731 -0.1007 -0.3756  0.2017
 6469TIP3    H140822   4.002   0.625  11.646  0.7566  0.6771  0.3410
 6469TIP3    H240823   3.963   0.624  11.792  0.4163  0.5578  0.2506
 6470TIP3   OH240824   6.779   2.494  13.093 -0.2330 -0.5466 -0.2261
 6470TIP3    H140825   6.788   2.405  13.059  2.4848  0.1927 -1.7509
 6470TIP3    H240826   6.707   2.532  13.042 -1.9606 -1.9900  0.9795
 6471TIP3   OH240827   6.100   2.301   0.485 -0.3343  0.3770 -0.0766
 6471TIP3    H140828   6.136   2.218   0.513 -0.5539  0.6151  0.9666
 6471TIP3    H240829   6.176   2.357   0.469 -0.1819 -0.1161 -1.0875
 6472TIP3   OH240830   1.407   5.091   2.375 -0.6238  0.4768 -0.3807
 6472TIP3    H140831   1.456   5.017   2.339 -0.4442  0.6136 -0.4210
 6472TIP3    H240832   1.316   5.071   2.354 -0.4037  1.2927 -2.3153
 6473TIP3   OH240833   6.519   3.155  12.756  0.0366  0.0525 -0.5304
 6473TIP3    H140834   6.527   3.140  12.850 -1.3750  0.2321 -0.3562
 6473TIP3    H240835   6.427   3.133  12.736  0.0231  1.0446 -1.6645
 6474TIP3   OH240836   5.891   4.356  13.293 -0.1785 -0.8097  0.2984
 6474TIP3    H140837   5.808   4.352  13.341 -1.6651 -1.8970 -2.1518
 6474TIP3    H240838   5.878   4.424  13.227  0.2308 -2.0200 -1.1049
 6475TIP3   OH240839   2.768   1.983  15.487  0.4949 -0.5089 -0.4502
 6475TIP3    H140840   2.747   1.904  15.538  0.2933 -0.0975  0.1126
 6475TIP3    H240841   2.788   1.950  15.399  2.9873 -1.4982  0.3959
 6476TIP3   OH240842   5.927   6.813  11.545 -0.4721  0.5351 -0.4884
 6476TIP3    H140843   5.941   6.775  11.632  0.1092 -0.7725 -1.1372
 6476TIP3    H240844   5.940   6.741  11.484 -0.4029  1.5396 -1.7073
 6477TIP3   OH240845   6.954   7.021   3.739 -0.0614  0.3741  0.0333
 6477TIP3    H140846   7.000   7.104   3.737  0.2455  0.2055 -1.3639
 6477TIP3    H240847   6.983   6.979   3.820  2.2545  0.2838 -0.7561
 6478TIP3   OH240848   0.513   6.337  11.073 -0.0094  0.1785  0.0803
 6478TIP3    H140849   0.464   6.258  11.050 -0.8589  0.7126 -0.0197
 6478TIP3    H240850   0.474   6.406  11.018  0.5787  0.7036  0.3099
 6479TIP3   OH240851   5.234   3.209  10.356 -0.2729 -0.0681  0.1258
 6479TIP3    H140852   5.267   3.152  10.425  0.3276  1.2737  0.9999
 6479TIP3    H240853   5.303   3.211  10.290 -0.3499 -0.4373  0.0322
 6480TIP3   OH240854   5.500   4.935  14.925  0.3293  0.7221 -0.0389
 6480TIP3    H140855   5.492   4.917  15.018  2.5501  0.6381  0.2009
 6480TIP3    H240856   5.587   4.902  14.902  0.2295  1.6303 -1.9253
 6481TIP3   OH240857   6.400   6.989  12.856 -0.4167 -0.6877 -0.0186
 6481TIP3    H140858   6.346   7.056  12.813 -1.2757 -1.0206  0.4978
 6481TIP3    H240859   6.344   6.911  12.857  0.5792 -1.4304 -0.6414
 6482TIP3   OH240860   6.974   6.790  11.211 -0.3412 -0.1674  0.7006
 6482TIP3    H140861   6.956   6.704  11.247 -0.6400 -0.7494 -0.7600
 6482TIP3    H240862   7.044   6.775  11.147 -2.2684  0.1101 -1.6248
 6483TIP3   OH240863   6.105   5.790   1.651 -0.9128  0.1360 -1.0267
 6483TIP3    H140864   6.111   5.696   1.668  0.4154  0.3301 -0.3335
 6483TIP3    H240865   6.183   5.810   1.600  0.8850  1.4870  1.9958
 6484TIP3   OH240866   6.483   1.851  12.874  0.1783  0.0465 -0.1576
 6484TIP3    H140867   6.405   1.903  12.858  0.2088 -0.2791 -1.4150
 6484TIP3    H240868   6.475   1.825  12.966 -1.3980 -0.3189 -0.3641
 6485TIP3   OH240869   3.154   0.254   1.780  0.3881  0.1028 -0.0343
 6485TIP3    H140870   3.158   0.349   1.767 -0.1866 -0.0966 -2.1523
 6485TIP3    H240871   3.231   0.220   1.735  0.4801 -0.4550  0.5301
 6486TIP3   OH240872   7.012   1.179  11.481 -0.6893  0.1735  0.9089
 6486TIP3    H140873   7.009   1.275  11.473  5.7710  0.6625 -1.8578
 6486TIP3    H240874   7.056   1.164  11.565  1.0067 -0.0052  0.0396
 6487TIP3   OH240875   3.263   3.294  11.402  0.3887 -0.2328  0.1266
 6487TIP3    H140876   3.262   3.210  11.356  3.2342 -0.1905 -0.1973
 6487TIP3    H240877   3.207   3.350  11.349 -2.0569 -2.0067  0.6678
 6488TIP3   OH240878   7.112   6.691  13.359 -0.1939 -0.0907 -0.1968
 6488TIP3    H140879   7.134   6.768  13.306  2.7034 -0.3795  0.3870
 6488TIP3    H240880   7.047   6.723  13.422  1.7468  2.3089  0.7979
 6489TIP3   OH240881   2.156   3.112   3.319  0.0986 -0.5077 -0.4485
 6489TIP3    H140882   2.161   3.129   3.413 -0.6933 -1.5079 -0.2149
 6489TIP3    H240883   2.096   3.179   3.286 -1.0747 -1.2752  0.0679
 6490TIP3   OH240884   2.494   3.521   5.067 -0.0736 -0.2414 -0.1024
 6490TIP3    H140885   2.514   3.494   5.156 -1.0506 -0.6025  0.0200
 6490TIP3    H240886   2.403   3.552   5.070 -0.0970 -0.1905 -0.9474
 6491TIP3   OH240887   1.178   0.728  14.017  0.5878  0.0922 -0.0913
 6491TIP3    H140888   1.168   0.730  14.113  1.8504  0.3250  0.0620
 6491TIP3    H240889   1.104   0.677  13.986  0.7199 -0.8879  1.1122
 6492TIP3   OH240890   0.735   0.482  10.697 -0.1943 -0.2654  0.0907
 6492TIP3    H140891   0.736   0.400  10.648  0.6644 -0.2897  0.1393
 6492TIP3    H240892   0.788   0.542  10.645 -2.6341  0.9917 -1.1305
 6493TIP3   OH240893   5.133   5.279   0.202  0.6668 -0.1736 -0.2281
 6493TIP3    H140894   5.139   5.184   0.208  0.4805 -0.1534  0.2683
 6493TIP3    H240895   5.175   5.300   0.118  0.1220 -0.7453 -0.6530
 6494TIP3   OH240896   3.089   6.425  13.194  0.7203 -0.2373 -0.0762
 6494TIP3    H140897   3.107   6.356  13.258 -0.5772 -1.2787 -0.7887
 6494TIP3    H240898   2.994   6.428  13.189  0.7702 -0.7257 -2.5202
 6495TIP3   OH240899   5.936   0.067   3.927 -0.0244  0.5319 -0.7795
 6495TIP3    H140900   6.026   0.094   3.910 -0.0749  1.7327  0.6913
 6495TIP3    H240901   5.901   0.133   3.987 -1.1415 -1.1388  0.5255
 6496TIP3   OH240902   5.926   5.404   3.873  0.4037 -0.1545  0.3197
 6496TIP3    H140903   6.007   5.366   3.840  0.8145  1.8349 -1.1127
 6496TIP3    H240904   5.861   5.335   3.861  1.4091 -0.9468 -0.7832
 6497TIP3   OH240905   6.684   2.767  13.914  0.0507 -0.3318 -0.0742
 6497TIP3    H140906   6.718   2.715  13.986 -0.0820 -0.7868 -0.3353
 6497TIP3    H240907   6.758   2.779  13.855 -0.4458 -2.2097 -1.1618
 6498TIP3   OH240908   1.316   0.190  11.726 -0.1948 -0.1062  0.3156
 6498TIP3    H140909   1.286   0.107  11.690 -0.3253  0.1048 -0.0726
 6498TIP3    H240910   1.356   0.235  11.651  0.4758 -0.1006  0.6779
 6499TIP3   OH240911   1.182   2.534  14.236 -0.2467 -0.3632 -0.4426
 6499TIP3    H140912   1.106   2.580  14.270 -1.6928 -1.4432 -2.0548
 6499TIP3    H240913   1.222   2.597  14.175  0.5860  0.4475  0.8939
 6500TIP3   OH240914   5.406   6.973  15.191 -0.2229 -0.6544 -0.1358
 6500TIP3    H140915   5.499   6.952  15.182  0.2607  0.2332  2.2137
 6500TIP3    H240916   5.395   7.056  15.145  0.5371  0.0890  0.9946
 6501TIP3   OH240917   4.906   1.358   5.017 -0.4039  0.5320 -0.3249
 6501TIP3    H140918   4.842   1.354   5.089 -1.1523  0.3857 -0.9885
 6501TIP3    H240919   4.873   1.296   4.952  0.0086  1.0237 -1.0067
 6502TIP3   OH240920   4.755   3.527  13.028  0.4567 -0.3260 -0.7283
 6502TIP3    H140921   4.698   3.497  13.099  1.0240 -0.4637 -0.3264
 6502TIP3    H240922   4.831   3.470  13.033  2.1940  1.9338  0.9022
 6503TIP3   OH240923   6.740   4.408   2.850  0.0458  0.3240 -0.3071
 6503TIP3    H140924   6.680   4.479   2.870 -1.9682 -0.8110 -1.8657
 6503TIP3    H240925   6.710   4.335   2.905 -0.7451 -0.5465 -1.8048
 6504TIP3   OH240926   6.676   6.245   9.780 -0.0489  0.2499  0.4784
 6504TIP3    H140927   6.617   6.291   9.720 -2.4496 -0.3708  2.2493
 6504TIP3    H240928   6.649   6.154   9.775  1.4543 -0.2310  0.6152
 6505TIP3   OH240929   1.491   0.614   4.611 -0.4126  0.3907 -0.5182
 6505TIP3    H140930   1.552   0.599   4.683 -0.6007  0.1720 -0.4046
 6505TIP3    H240931   1.535   0.579   4.533 -2.0334 -3.6742  0.1447
 6506TIP3   OH240932   0.247   3.368  10.088 -0.4186 -0.3915 -0.2274
 6506TIP3    H140933   0.152   3.368  10.102 -0.8462  1.9272 -2.4324
 6506TIP3    H240934   0.261   3.305  10.018 -0.4480 -0.1925 -0.4148
 6507TIP3   OH240935   4.978   4.092  14.924 -0.2344 -0.2110 -0.6229
 6507TIP3    H140936   5.032   4.030  14.973  0.1106  0.0460 -0.6750
 6507TIP3    H240937   5.040   4.145  14.874 -0.6196 -0.9191 -1.8848
 6508TIP3   OH240938   3.124   5.722  14.813  0.0860  0.3141 -0.3606
 6508TIP3    H140939   3.122   5.652  14.748  0.6845 -0.2992  0.2701
 6508TIP3    H240940   3.166   5.683  14.890 -1.2131  0.8149  0.6442
 6509TIP3   OH240941   2.200   0.311  15.354  0.5271  0.4565 -0.3908
 6509TIP3    H140942   2.183   0.238  15.414  1.7515  0.9296  0.5805
 6509TIP3    H240943   2.220   0.385  15.411  0.4761  1.2520 -1.3786
 6510TIP3   OH240944   2.622   1.732  12.637  0.2354  0.7590 -0.3287
 6510TIP3    H140945   2.669   1.650  12.623  0.9391  1.3123 -1.2647
 6510TIP3    H240946   2.644   1.757  12.727  0.9888  0.5445 -0.4502
 6511TIP3   OH240947   2.465   6.186  13.596 -0.0113  0.1393 -0.2427
 6511TIP3    H140948   2.455   6.091  13.598 -0.5128  0.1947  1.6166
 6511TIP3    H240949   2.545   6.203  13.645  0.2095  0.6759 -0.7688
 6512TIP3   OH240950   2.873   3.864   1.753  0.2810  0.2244 -0.0691
 6512TIP3    H140951   2.937   3.934   1.743  0.6765 -0.1684 -0.3237
 6512TIP3    H240952   2.826   3.861   1.670  0.3947  0.0602 -0.1276
 6513TIP3   OH240953   5.218   1.544   0.050 -0.3450  0.1351 -0.1990
 6513TIP3    H140954   5.172   1.483  -0.008  1.3336 -0.7439 -0.6923
 6513TIP3    H240955   5.247   1.614  -0.008  0.3647 -0.1787 -0.2423
 6514TIP3   OH240956   5.467   0.744   0.452 -0.5235 -0.0483 -0.1056
 6514TIP3    H140957   5.455   0.744   0.547  0.6149  0.2815  0.0528
 6514TIP3    H240958   5.382   0.716   0.417 -1.0446  0.1020  0.9922
 6515TIP3   OH240959   5.715   3.430  13.488 -0.3536  0.0545 -0.5822
 6515TIP3    H140960   5.769   3.498  13.449  1.8060 -0.9826  0.4081
 6515TIP3    H240961   5.696   3.369  13.416  0.1530  0.2232 -0.8558
 6516TIP3   OH240962   5.899   4.019  14.585  0.2849 -0.3729 -0.0429
 6516TIP3    H140963   5.889   3.959  14.511  3.0306  1.5551 -2.2067
 6516TIP3    H240964   5.991   4.009  14.611  0.0331  0.8657  1.4336
 6517TIP3   OH240965   0.149   1.511  11.682  0.2603 -0.0707  0.3176
 6517TIP3    H140966   0.178   1.601  11.688 -1.1406  0.6524 -2.2428
 6517TIP3    H240967   0.075   1.505  11.743  0.4976  0.4250  0.6603
 6518TIP3   OH240968   5.354   6.294  14.212 -0.3028  0.3795 -0.0539
 6518TIP3    H140969   5.304   6.313  14.291  0.3470  1.6976  0.0770
 6518TIP3    H240970   5.330   6.364  14.151 -0.4743 -0.3848 -0.8716
 6519TIP3   OH240971   1.205   2.689   0.498 -0.2426 -0.0957  0.4402
 6519TIP3    H140972   1.249   2.666   0.416 -3.1322  0.9265 -1.5617
 6519TIP3    H240973   1.150   2.613   0.518 -1.4597  0.6358 -0.0292
 6520TIP3   OH240974   0.842   7.026   2.824  0.4489  0.1614 -0.1961
 6520TIP3    H140975   0.878   6.960   2.766 -0.4157 -0.2680 -0.2700
 6520TIP3    H240976   0.848   7.108   2.775 -0.3804 -0.2176 -0.9539
 6521TIP3   OH240977   0.016   1.530  14.105 -0.0788 -0.0210 -0.5815
 6521TIP3    H140978   0.058   1.471  14.043 -0.2849 -0.6984 -0.0896
 6521TIP3    H240979  -0.061   1.563  14.058 -0.1047 -0.3486 -0.7765
 6522TIP3   OH240980   2.200   7.093  14.568  0.2696 -0.0528 -0.2446
 6522TIP3    H140981   2.112   7.107  14.533 -0.3427 -3.4808 -0.5132
 6522TIP3    H240982   2.258   7.127  14.500 -0.8010  1.8273 -0.2891
 6523TIP3   OH240983   2.840   4.851  13.652  0.0067 -0.4540  0.1173
 6523TIP3    H140984   2.747   4.875  13.647 -0.1735 -0.6804  1.9103
 6523TIP3    H240985   2.863   4.865  13.744  1.7515 -0.4430 -0.3016
 6524TIP3   OH240986   1.593   1.343  11.341 -0.2692  0.2077  0.3977
 6524TIP3    H140987   1.627   1.291  11.269 -0.6414 -2.6038  2.1208
 6524TIP3    H240988   1.635   1.429  11.331  2.9626 -1.3498 -0.7656
 6525TIP3   OH240989   4.483   5.894   2.225  0.6525  0.1768 -0.0814
 6525TIP3    H140990   4.555   5.865   2.169  1.0712  2.1044 -0.5992
 6525TIP3    H240991   4.481   5.989   2.214 -1.2672  0.2701  0.7923
 6526TIP3   OH240992   6.287   4.452   5.297 -0.3973 -0.1411  0.1511
 6526TIP3    H140993   6.305   4.415   5.210 -2.5953  0.4315 -0.6240
 6526TIP3    H240994   6.302   4.546   5.287  0.1027 -0.1675  0.6282
 6527TIP3   OH240995   5.325   5.273   4.734 -0.9240  0.5341  0.1590
 6527TIP3    H140996   5.382   5.197   4.749 -0.7598  0.8544  1.1876
 6527TIP3    H240997   5.237   5.240   4.753 -0.8306  0.6519  0.8100
 6528TIP3   OH240998   7.089   2.411  14.186  0.5894  0.2073 -0.0271
 6528TIP3    H140999   7.127   2.395  14.272 -1.1726 -0.4567  0.6598
 6528TIP3    H241000   7.162   2.446  14.134  2.3867 -1.7777  0.9732
 6529TIP3   OH241001   6.435   7.163  13.725  0.2396 -0.5626  0.3941
 6529TIP3    H141002   6.356   7.209  13.755 -0.1006 -0.0034 -1.2510
 6529TIP3    H241003   6.401   7.087  13.677  0.7497 -1.0705  0.8212
 6530TIP3   OH241004   6.321   2.760   5.037 -0.1346 -0.1117  0.4708
 6530TIP3    H141005   6.415   2.771   5.027 -0.2285  1.5619  1.1861
 6530TIP3    H241006   6.304   2.671   5.005  1.4365  0.1278 -1.1713
 6531TIP3   OH241007   0.806   2.993  15.441 -0.5675  0.2038 -0.1508
 6531TIP3    H141008   0.815   3.017  15.533  1.0653 -0.0890 -0.2185
 6531TIP3    H241009   0.787   2.899  15.443 -0.9474  0.2800 -0.1044
 6532TIP3   OH241010   6.262   0.404  12.871 -0.5958 -0.1219  0.3887
 6532TIP3    H141011   6.324   0.335  12.894 -1.2939 -0.2528  2.0044
 6532TIP3    H241012   6.306   0.485  12.894 -1.5446 -0.2677  3.1738
 6533TIP3   OH241013   5.526   2.365   0.389  0.3000 -0.4619 -0.1696
 6533TIP3    H141014   5.548   2.424   0.317 -0.6297  1.3721  0.9935
 6533TIP3    H241015   5.567   2.404   0.466 -0.8914 -0.9704  0.7551
 6534TIP3   OH241016   1.018   2.200   2.058  0.1313  0.3470  0.2403
 6534TIP3    H141017   0.931   2.221   2.026  0.9168  1.0393 -1.6019
 6534TIP3    H241018   1.022   2.240   2.145 -1.7681 -0.7855  0.9179
 6535TIP3   OH241019   1.448   6.565  14.110  0.2307 -0.3184 -0.3543
 6535TIP3    H141020   1.380   6.632  14.108  0.3985 -0.1523 -1.5284
 6535TIP3    H241021   1.427   6.511  14.187  0.1331  1.0994  0.6480
 6536TIP3   OH241022   3.166   5.719  13.158  0.7341  0.4896 -0.5096
 6536TIP3    H141023   3.236   5.774  13.193  0.0464  0.6555  0.6730
 6536TIP3    H241024   3.124   5.682  13.236  0.1163 -0.3657 -1.2346
 6537TIP3   OH241025   7.061   1.003  13.182 -0.2628  0.3868 -0.0737
 6537TIP3    H141026   6.977   1.010  13.137 -0.1803  1.5929 -0.0837
 6537TIP3    H241027   7.040   1.011  13.275 -0.1259  1.0915 -0.1003
 6538TIP3   OH241028   1.114   0.466   0.850  0.2528  0.0083  0.5156
 6538TIP3    H141029   1.082   0.447   0.938  1.4004 -1.2353  0.6874
 6538TIP3    H241030   1.111   0.382   0.804 -2.8180  1.0290 -1.5293
 6539TIP3   OH241031   0.624   6.052   0.258  0.3300 -0.1910  0.1527
 6539TIP3    H141032   0.686   6.085   0.192 -0.3690 -0.4367 -0.6475
 6539TIP3    H241033   0.538   6.067   0.220 -0.1638  0.9244  1.6256
 6540TIP3   OH241034   3.543   1.155  15.466 -0.0401  0.4393 -0.2069
 6540TIP3    H141035   3.637   1.141  15.479 -0.1289 -0.4017 -0.3716
 6540TIP3    H241036   3.535   1.179  15.374 -0.1330 -1.2332 -0.6731
 6541TIP3   OH241037   0.893   5.927  11.732  0.4591 -0.6638  0.4512
 6541TIP3    H141038   0.914   5.889  11.646  0.6258 -4.3879  1.9439
 6541TIP3    H241039   0.831   5.997  11.712  3.2821  1.1831 -2.9288
 6542TIP3   OH241040   6.670   5.078  11.499  0.0168 -0.2225 -0.0298
 6542TIP3    H141041   6.642   4.986  11.501 -2.9955  0.5992  0.1917
 6542TIP3    H241042   6.729   5.086  11.575  2.0429 -2.3540 -1.2344
 6543TIP3   OH241043   5.148   5.160   0.554 -0.2670  0.5763  0.2063
 6543TIP3    H141044   5.134   5.254   0.537  0.2530  0.1678 -3.1235
 6543TIP3    H241045   5.227   5.139   0.505  0.6750 -1.3246  2.3475
 6544TIP3   OH241046   0.973   4.370   5.243  0.0364  0.6173  0.3868
 6544TIP3    H141047   0.920   4.325   5.177  1.0388  0.4339 -0.3203
 6544TIP3    H241048   0.984   4.459   5.209 -0.4482  0.8733  0.9005
 6545TIP3   OH241049   0.121   0.535   1.641 -0.0227  0.2558  0.3601
 6545TIP3    H141050   0.050   0.532   1.705  1.8798  0.3583  2.5970
 6545TIP3    H241051   0.197   0.501   1.687  0.7372 -3.2773 -2.9867
 6546TIP3   OH241052   3.224   2.120   2.176  0.2716  0.0334 -0.0669
 6546TIP3    H141053   3.172   2.068   2.237  2.2386 -2.6039 -0.4431
 6546TIP3    H241054   3.164   2.140   2.104 -1.4851  1.3462  1.6837
 6547TIP3   OH241055   2.766   3.759   0.317  0.1395 -0.1697 -0.0714
 6547TIP3    H141056   2.728   3.825   0.260  0.9576  0.2347 -0.1589
 6547TIP3    H241057   2.861   3.769   0.307  0.2861 -0.7011  0.6585
 6548TIP3   OH241058   3.765   6.219  10.448  0.4377 -0.1171 -0.2594
 6548TIP3    H141059   3.799   6.165  10.519 -0.6609  0.3065  0.6271
 6548TIP3    H241060   3.843   6.250  10.402  1.2413  0.3470  1.3372
 6549TIP3   OH241061   6.220   5.105  12.955 -0.4165  0.0320  0.5024
 6549TIP3    H141062   6.180   5.026  12.918 -0.6613 -0.1898  1.2355
 6549TIP3    H241063   6.149   5.168  12.957 -0.1135  0.4264 -0.5016
 6550TIP3   OH241064   5.278   4.347   2.042  0.2348 -0.3911  0.1019
 6550TIP3    H141065   5.259   4.438   2.018 -0.2750  0.1207  2.2457
 6550TIP3    H241066   5.193   4.309   2.062  0.4735 -1.2786 -0.5216
 6551TIP3   OH241067   2.899   4.574  14.310 -0.0450  0.3534 -0.0126
 6551TIP3    H141068   2.872   4.665  14.321  0.2710  0.4885 -0.3197
 6551TIP3    H241069   2.984   4.579  14.265 -1.1158 -0.1222 -2.2497
 6552TIP3   OH241070   4.249   2.643  12.878  0.0616  0.0941  0.4256
 6552TIP3    H141071   4.301   2.571  12.842 -2.6192 -1.5804 -0.4154
 6552TIP3    H241072   4.271   2.644  12.972  1.4899 -0.5699  0.1292
 6553TIP3   OH241073   3.614   7.050   9.679  0.0542 -0.1391  0.0812
 6553TIP3    H141074   3.522   7.030   9.699  0.0731 -0.4852 -0.1673
 6553TIP3    H241075   3.651   6.967   9.650 -0.5309  0.6902 -3.4902
 6554TIP3   OH241076   1.066   0.394  13.695  0.1918 -0.1238 -0.2850
 6554TIP3    H141077   0.992   0.412  13.754  0.8209 -0.1597  0.5270
 6554TIP3    H241078   1.111   0.478  13.687 -0.0284 -0.0573 -0.9339
 6555TIP3   OH241079   5.172   1.069  12.462  0.1696  0.1717  0.1607
 6555TIP3    H141080   5.190   1.100  12.551  0.5197 -1.5819  0.7502
 6555TIP3    H241081   5.184   1.146  12.406  3.3702  0.6112  1.2269
 6556TIP3   OH241082   1.862   3.142  13.414 -0.3152  0.4903  0.4715
 6556TIP3    H141083   1.955   3.162  13.422 -0.4386  1.2075  0.1469
 6556TIP3    H241084   1.859   3.051  13.384  0.3965  1.5656 -3.3773
 6557TIP3   OH241085   0.314   3.445   1.817 -0.3137 -0.4059  0.0271
 6557TIP3    H141086   0.311   3.540   1.806 -1.0016 -0.1389  2.1059
 6557TIP3    H241087   0.234   3.414   1.775  0.7576 -0.3285 -2.2442
 6558TIP3   OH241088   1.307   4.222   3.565 -0.2456  0.0254 -0.5525
 6558TIP3    H141089   1.299   4.224   3.470  1.8066  0.7361 -0.7500
 6558TIP3    H241090   1.257   4.144   3.592 -1.1720  0.0323 -2.1411
 6559TIP3   OH241091   7.067   6.419  12.083  0.3051 -0.0380 -0.0403
 6559TIP3    H141092   7.112   6.365  12.019 -2.0229 -0.3505 -1.5574
 6559TIP3    H241093   7.078   6.509  12.051  0.0465 -0.0996 -0.3132
 6560TIP3   OH241094   1.879   5.057   0.039 -0.0009 -0.1818 -0.0165
 6560TIP3    H141095   1.878   5.091  -0.050  0.2244  1.8648  0.6916
 6560TIP3    H241096   1.952   4.995   0.040 -0.5749 -0.9130 -1.4587
 6561TIP3   OH241097   6.200   3.191   2.280 -0.5883 -0.2087 -0.2187
 6561TIP3    H141098   6.174   3.272   2.323 -1.2258 -0.0691 -0.8592
 6561TIP3    H241099   6.283   3.168   2.322 -0.0545  1.1310 -0.4956
 6562TIP3   OH241100   6.116   5.917   5.042 -0.7808  0.0781  0.5539
 6562TIP3    H141101   6.079   5.860   5.110 -0.7122  0.8663  1.2743
 6562TIP3    H241102   6.058   5.906   4.967  0.0663 -2.0730  0.1440
 6563TIP3   OH241103   4.162   1.223   0.746 -0.0604 -0.2690 -0.2817
 6563TIP3    H141104   4.143   1.299   0.691 -0.0283  0.0291  0.1135
 6563TIP3    H241105   4.099   1.157   0.718 -0.7948  0.2580  0.0823
 6564TIP3   OH241106   1.393   1.152   2.918 -0.4957  0.1213  0.0933
 6564TIP3    H141107   1.452   1.226   2.905  0.9142 -1.2637 -1.9972
 6564TIP3    H241108   1.391   1.140   3.013 -0.3525  2.4446  0.4713
 6565TIP3   OH241109   4.850   6.891  10.220  0.4809  0.5219  0.5430
 6565TIP3    H141110   4.868   6.840  10.141  0.7524  1.7148 -0.1888
 6565TIP3    H241111   4.776   6.846  10.261  0.6265 -0.3773 -0.1425
 6566TIP3   OH241112   5.824   4.038  11.353  0.0969 -0.5679  0.1036
 6566TIP3    H141113   5.780   4.123  11.354  0.1874 -0.4377 -1.8134
 6566TIP3    H241114   5.767   3.981  11.405 -0.1904  0.5427  1.0464
 6567TIP3   OH241115   4.343   5.813  12.206 -0.2556  0.1935 -0.3354
 6567TIP3    H141116   4.382   5.768  12.280  0.7465 -0.4622 -1.2420
 6567TIP3    H241117   4.337   5.747  12.137 -0.9408  0.8529 -0.9344
 6568TIP3   OH241118   5.652   1.491   3.635  0.0793  0.2174  0.6412
 6568TIP3    H141119   5.569   1.452   3.607  1.1205 -0.8108 -1.2690
 6568TIP3    H241120   5.681   1.436   3.708  0.2676 -1.0293 -0.3384
 6569TIP3   OH241121   5.436   3.303  11.052  0.3646  0.0127  0.4959
 6569TIP3    H141122   5.476   3.242  10.989 -0.7076  0.6225 -0.8339
 6569TIP3    H241123   5.508   3.360  11.079  0.5239  0.8813 -1.5810
 6570TIP3   OH241124   6.833   1.310   0.315  0.5947 -0.2787  0.1935
 6570TIP3    H141125   6.903   1.305   0.251 -1.3844 -0.4760 -2.0885
 6570TIP3    H241126   6.837   1.226   0.362 -0.0967 -1.7344 -2.1808
 6571TIP3   OH241127   3.002   4.696  12.051  0.5107 -0.3649 -0.0572
 6571TIP3    H141128   2.914   4.730  12.063  0.2704 -1.1962  0.6353
 6571TIP3    H241129   3.016   4.698  11.956 -1.3651 -2.8488 -0.5002
 6572TIP3   OH241130   0.298   6.362  14.021  0.4356  0.1254 -0.1598
 6572TIP3    H141131   0.275   6.453  14.001 -0.6055 -0.3353 -1.2324
 6572TIP3    H241132   0.311   6.360  14.116  3.0256  1.9018 -0.3691
 6573TIP3   OH241133   1.329   4.249  15.371  0.6798  0.2773 -0.1488
 6573TIP3    H141134   1.312   4.158  15.394  1.9627  0.1151  0.2249
 6573TIP3    H241135   1.391   4.279  15.438  1.9100  0.7900 -1.4643
 6574TIP3   OH241136   3.788   3.808  14.327 -0.1866  0.4071  0.0855
 6574TIP3    H141137   3.798   3.903  14.319  0.3663  0.4520  1.1997
 6574TIP3    H241138   3.877   3.774  14.315 -0.4635 -0.0292 -0.8531
 6575TIP3   OH241139   0.642   2.739   2.712 -0.0438  0.2829  0.2089
 6575TIP3    H141140   0.565   2.764   2.764 -0.2583  0.7004 -0.3018
 6575TIP3    H241141   0.623   2.771   2.624  0.4784 -0.0980 -0.0491
 6576TIP3   OH241142   1.927   1.104  14.533  1.3098 -0.2018 -0.8950
 6576TIP3    H141143   1.993   1.166  14.563  0.7700  0.4842 -1.0965
 6576TIP3    H241144   1.967   1.060  14.458  0.9728  1.3444 -2.0388
 6577TIP3   OH241145   4.778   0.330  12.298 -0.3420 -0.6175 -0.3004
 6577TIP3    H141146   4.865   0.314  12.336 -0.6372 -0.3780  0.4926
 6577TIP3    H241147   4.733   0.246  12.305 -0.4196 -0.5558 -0.0600
 6578TIP3   OH241148   4.611   4.493   1.578 -0.3969  0.1413 -0.2929
 6578TIP3    H141149   4.620   4.540   1.661  0.7710 -0.6037  0.0119
 6578TIP3    H241150   4.532   4.439   1.589 -0.8877  0.8803 -0.1001
 6579TIP3   OH241151   3.515   6.530  12.574  0.1981 -0.1580 -0.5199
 6579TIP3    H141152   3.571   6.567  12.642 -1.2645  1.3231 -0.0463
 6579TIP3    H241153   3.562   6.547  12.493  1.5286 -1.1046  0.0115
 6580TIP3   OH241154   6.913   3.095  12.324 -0.0338  0.3590 -0.2126
 6580TIP3    H141155   7.000   3.060  12.344 -0.9447 -1.9169  0.0436
 6580TIP3    H241156   6.914   3.110  12.230  0.8638  1.0835 -0.1025
 6581TIP3   OH241157   4.526   6.219   1.606  0.0114 -0.1295  0.0243
 6581TIP3    H141158   4.574   6.252   1.530 -0.1550 -0.5011 -0.2460
 6581TIP3    H241159   4.502   6.298   1.655 -1.2851  0.2698 -1.1640
 6582TIP3   OH241160   1.718   4.231   4.059 -0.1359  0.1701  0.2354
 6582TIP3    H141161   1.717   4.284   4.139 -1.5851  0.1628  0.2587
 6582TIP3    H241162   1.630   4.192   4.056 -1.0810  2.2248 -2.6917
 6583TIP3   OH241163   1.387   3.333   1.078 -0.3262  0.0761  0.1685
 6583TIP3    H141164   1.463   3.275   1.077  0.5562  1.1898 -1.1905
 6583TIP3    H241165   1.425   3.421   1.068 -1.9012  0.4792 -3.5741
 6584TIP3   OH241166   6.006   6.765  10.215  0.0843 -0.0651  0.4113
 6584TIP3    H141167   5.923   6.759  10.261  0.5505 -1.1534  1.1278
 6584TIP3    H241168   6.070   6.785  10.283  0.9002 -2.4274  0.4151
 6585TIP3   OH241169   3.119   2.102  14.134  0.1422 -0.1705  0.2046
 6585TIP3    H141170   3.110   2.120  14.041 -0.4283  2.2631  0.6474
 6585TIP3    H241171   3.038   2.056  14.158  0.3299 -0.8794 -0.4894
 6586TIP3   OH241172   6.061   2.057   1.359 -0.5002 -0.0931 -0.2622
 6586TIP3    H141173   5.983   2.112   1.365  0.2079  0.9221 -0.0262
 6586TIP3    H241174   6.043   1.997   1.286 -1.8123 -0.4201  0.2987
 6587TIP3   OH241175   5.588   2.962   2.200  0.2577 -0.0040 -0.4166
 6587TIP3    H141176   5.623   2.989   2.114  1.4053 -1.9952 -0.6421
 6587TIP3    H241177   5.653   2.995   2.262 -0.0617  0.5768 -0.3814
 6588TIP3   OH241178   5.088   4.277  10.543  0.6138 -0.5786  0.5432
 6588TIP3    H141179   5.125   4.262  10.630  0.3880 -0.9730  0.5738
 6588TIP3    H241180   5.157   4.248  10.483  0.6540 -0.5817  0.5907
 6589TIP3   OH241181   4.169   6.127  14.522 -0.4833 -0.0603  0.6280
 6589TIP3    H141182   4.110   6.110  14.596 -0.5155  0.8495  0.8175
 6589TIP3    H241183   4.201   6.040  14.498  0.7981 -0.2593  2.7670
 6590TIP3   OH241184   3.370   1.855  13.746  0.1305  0.1440  0.5324
 6590TIP3    H141185   3.459   1.890  13.748  0.1119  0.2292 -0.0358
 6590TIP3    H241186   3.375   1.780  13.687 -0.0197 -0.2899  1.0645
 6591TIP3   OH241187   5.302   2.875  13.968  0.1349  0.2587 -0.2890
 6591TIP3    H141188   5.297   2.780  13.956  0.2897  0.1672  0.3547
 6591TIP3    H241189   5.211   2.903  13.972  0.0843  0.1735 -0.7048
 6592TIP3   OH241190   4.070   0.397   0.634 -0.3742  0.3475  0.2728
 6592TIP3    H141191   4.043   0.353   0.714 -1.3187 -0.8473 -0.6652
 6592TIP3    H241192   4.151   0.442   0.657 -0.1825 -0.6624  1.6539
 6593TIP3   OH241193   2.189   3.919   1.097 -0.2219 -0.0285  0.0335
 6593TIP3    H141194   2.229   3.832   1.102 -0.7066 -0.1946  3.1995
 6593TIP3    H241195   2.101   3.907   1.134 -0.1070  1.8660  1.0168
 6594TIP3   OH241196   4.601   1.146  14.266  0.1046 -0.4638  0.6270
 6594TIP3    H141197   4.661   1.072  14.261  0.4975 -0.0674 -1.4280
 6594TIP3    H241198   4.521   1.115  14.224  0.5678  0.4887 -1.0609
 6595TIP3   OH241199   3.914   2.510   0.147  0.5364  0.0717  0.3983
 6595TIP3    H141200   3.911   2.602   0.121 -1.3867  0.0490  0.4197
 6595TIP3    H241201   4.000   2.479   0.118  0.6963  1.5351 -0.7713
 6596TIP3   OH241202   6.487   5.298   5.230 -0.0027  0.1375 -0.1354
 6596TIP3    H141203   6.462   5.321   5.319  0.0972 -1.1237  0.2457
 6596TIP3    H241204   6.577   5.264   5.238 -0.2054 -0.5419 -0.6096
 6597TIP3   OH241205   7.001   2.840   2.226 -0.0486 -0.5857  0.6794
 6597TIP3    H141206   7.018   2.788   2.304 -0.9001 -1.4801  0.2899
 6597TIP3    H241207   6.916   2.809   2.194 -0.7251  1.2293  0.5725
 6598TIP3   OH241208   2.883   4.452  10.161 -0.2486 -0.0123 -0.1904
 6598TIP3    H141209   2.792   4.425  10.147 -1.3296  2.1839  1.7107
 6598TIP3    H241210   2.908   4.411  10.244  0.8682 -1.3529 -1.1615
 6599TIP3   OH241211   2.407   2.909  13.271  0.5803 -0.1529 -0.0687
 6599TIP3    H141212   2.459   2.894  13.349 -0.3917  0.5771  0.7432
 6599TIP3    H241213   2.363   2.992  13.287 -0.5914 -0.5919 -0.8567
 6600TIP3   OH241214   2.756   2.761  12.598  0.7307 -0.3815  0.4511
 6600TIP3    H141215   2.662   2.777  12.608  1.0235  2.0443 -0.0634
 6600TIP3    H241216   2.762   2.704  12.521 -0.2874  0.3734 -0.2175
 6601TIP3   OH241217   5.962   0.452  12.962  0.5781 -0.4238 -0.2444
 6601TIP3    H141218   6.028   0.417  13.023  1.3984  1.4043 -0.0141
 6601TIP3    H241219   5.972   0.547  12.969 -1.2930 -0.1333 -1.1170
 6602TIP3   OH241220   0.349   1.692  13.421  0.7435 -0.4814 -0.0756
 6602TIP3    H141221   0.300   1.737  13.489 -0.0130 -0.2323 -0.7677
 6602TIP3    H241222   0.426   1.747  13.406  0.7042 -0.3285  0.2977
 6603TIP3   OH241223   0.529   5.794  10.976  0.2618 -0.6521 -0.2241
 6603TIP3    H141224   0.624   5.790  10.969  0.2842 -0.4788 -0.0529
 6603TIP3    H241225   0.508   5.739  11.052  0.3271  0.1700  0.4127
 6604TIP3   OH241226   5.613   3.235  12.442 -0.1690  0.3849 -0.2442
 6604TIP3    H141227   5.565   3.154  12.426 -1.4519  1.0732 -0.0863
 6604TIP3    H241228   5.591   3.259  12.533  0.0251  1.0037 -0.3522
 6605TIP3   OH241229   5.434   4.344   2.266 -0.2184 -0.1854  0.3434
 6605TIP3    H141230   5.525   4.361   2.243 -0.2700 -0.5743 -0.1662
 6605TIP3    H241231   5.391   4.324   2.182 -1.1970  1.8350  0.3122
 6606TIP3   OH241232   5.238   0.393   1.110 -0.2651  0.0748 -0.3120
 6606TIP3    H141233   5.217   0.318   1.055 -1.8850  0.3757 -0.1394
 6606TIP3    H241234   5.333   0.387   1.122 -0.1942 -1.2711 -1.2551
 6607TIP3   OH241235   2.447   5.594  13.210  0.4640  0.1530 -0.5150
 6607TIP3    H141236   2.476   5.648  13.137 -2.5224  2.6514 -0.0058
 6607TIP3    H241237   2.361   5.561  13.184  0.2846 -0.7010  1.0295
 6608TIP3   OH241238   3.995   6.393  14.957  0.0043  0.4511 -0.0887
 6608TIP3    H141239   3.950   6.403  15.041 -0.6630 -0.3273 -0.3404
 6608TIP3    H241240   3.933   6.427  14.892 -0.5210 -1.1752 -0.5017
 6609TIP3   OH241241   1.173   6.904  11.646  0.1802  0.0790  0.1141
 6609TIP3    H141242   1.079   6.916  11.638  0.2920  1.4774  0.5831
 6609TIP3    H241243   1.208   6.927  11.560  0.1657  0.4920  0.2171
 6610TIP3   OH241244   6.470   7.158   3.773 -0.8958  0.2471 -0.7223
 6610TIP3    H141245   6.489   7.186   3.863  1.7115 -2.2936 -0.3371
 6610TIP3    H241246   6.515   7.222   3.718 -0.4209  0.4350 -0.1232
 6611TIP3   OH241247   3.468   5.052  13.339  0.6408 -0.2741  0.1227
 6611TIP3    H141248   3.429   5.042  13.426  2.8376 -1.8539  1.0131
 6611TIP3    H241249   3.454   5.144  13.316 -3.9809 -0.7472  0.0566
 6612TIP3   OH241250   6.545   6.093  12.484  0.4531  0.0817  0.5256
 6612TIP3    H141251   6.593   6.171  12.454 -0.7334  0.5677 -0.1680
 6612TIP3    H241252   6.527   6.111  12.577  0.4832  0.4792  0.4564
 6613TIP3   OH241253   0.927   6.991   4.744 -0.1757  0.1116  0.3856
 6613TIP3    H141254   0.844   6.959   4.779 -0.2173 -1.4272 -0.9970
 6613TIP3    H241255   0.965   6.916   4.699  1.3581  1.1422 -0.1346
 6614TIP3   OH241256   4.152   0.935   3.048  0.2524  0.6686 -0.1348
 6614TIP3    H141257   4.243   0.942   3.018 -0.2642 -1.5490 -2.5739
 6614TIP3    H241258   4.147   0.848   3.088 -0.5830  1.1873  0.9351
 6615TIP3   OH241259   1.476   2.386  12.820  0.1100  0.0097 -0.2177
 6615TIP3    H141260   1.416   2.452  12.785  1.1317  0.7685 -0.5845
 6615TIP3    H241261   1.563   2.417  12.794  0.8311 -0.0303  1.9703
 6616TIP3   OH241262   5.494   6.310  13.652 -0.1645  0.0460  0.1406
 6616TIP3    H141263   5.531   6.388  13.610  0.0883 -0.6871 -1.0471
 6616TIP3    H241264   5.446   6.266  13.582 -2.5315  0.4518  1.4036
 6617TIP3   OH241265   6.066   4.784  13.050 -0.2654 -0.4017  0.3437
 6617TIP3    H141266   6.090   4.695  13.074  2.0846  0.1821  0.4361
 6617TIP3    H241267   6.104   4.798  12.964 -0.7826  0.4586  0.2306
 6618TIP3   OH241268   5.848   1.141  12.066 -0.0063  0.1225  0.1667
 6618TIP3    H141269   5.939   1.138  12.095 -0.0143  0.6979  0.2602
 6618TIP3    H241270   5.845   1.083  11.989  0.2597 -0.5197  0.6249
 6619TIP3   OH241271   4.124   1.239   3.839  0.2032  0.0089  0.3535
 6619TIP3    H141272   4.047   1.252   3.893  0.1945 -0.4319  0.4492
 6619TIP3    H241273   4.108   1.157   3.793  1.7889 -1.5642  2.4190
 6620TIP3   OH241274   3.196   1.216   4.587  0.1628 -0.2215 -0.0027
 6620TIP3    H141275   3.171   1.291   4.533 -1.4934  0.6177  1.7918
 6620TIP3    H241276   3.290   1.208   4.575  0.1338  1.1712 -1.4519
 6621TIP3   OH241277   6.632   6.880  15.316  0.1435 -0.3357 -0.1106
 6621TIP3    H141278   6.701   6.824  15.351  0.4299  0.5387  0.7907
 6621TIP3    H241279   6.631   6.956  15.375 -0.3480  0.5225 -1.1956
 6622TIP3   OH241280   5.235   3.114  12.729  0.1246  0.3055  0.0738
 6622TIP3    H141281   5.253   3.020  12.719  0.1855  0.3366 -0.1057
 6622TIP3    H241282   5.302   3.157  12.677  0.2016  0.4556  0.2938
 6623TIP3   OH241283   5.841   0.290  13.492  0.2234 -0.2449  0.5734
 6623TIP3    H141284   5.760   0.242  13.475  0.7194 -0.7002 -0.6007
 6623TIP3    H241285   5.911   0.228  13.471  0.8767  0.3923  0.8154
 6624TIP3   OH241286   6.956   0.328  10.204 -0.0796  0.0156  0.0569
 6624TIP3    H141287   6.936   0.419  10.182 -0.7449  0.2764  1.5853
 6624TIP3    H241288   6.893   0.276  10.155  1.4612  0.2042 -2.2686
 6625TIP3   OH241289   5.976   1.868  13.974  0.1037 -0.2433 -0.4277
 6625TIP3    H141290   5.894   1.852  13.926  0.1997 -2.4031  0.0197
 6625TIP3    H241291   5.996   1.784  14.015  1.4943  0.7968  1.1360
 6626TIP3   OH241292   5.314   4.885  13.890 -0.5905 -0.4487  0.0956
 6626TIP3    H141293   5.296   4.976  13.864 -1.4321  0.0592  2.2910
 6626TIP3    H241294   5.358   4.847  13.813  1.8024  2.4197 -0.1428
 6627TIP3   OH241295   6.877   3.345  11.886 -1.6783 -0.1606 -0.5930
 6627TIP3    H141296   6.889   3.417  11.948 -2.6238 -0.6879  0.2384
 6627TIP3    H241297   6.789   3.358  11.851 -1.7733 -0.7825 -0.5968
 6628TIP3   OH241298   1.467   0.250  15.410  0.5101  0.0744  0.1144
 6628TIP3    H141299   1.462   0.344  15.421 -1.9401  0.1605 -0.9579
 6628TIP3    H241300   1.503   0.238  15.322  3.2403 -0.1315  1.1698
 6629TIP3   OH241301   0.835   2.257   2.605  0.3085  0.2619  0.1082
 6629TIP3    H141302   0.787   2.228   2.683 -2.2798  0.9214 -1.0993
 6629TIP3    H241303   0.817   2.351   2.600  0.5403  0.2546 -1.1968
 6630TIP3   OH241304   5.136   3.508  10.484 -0.2320  0.6348 -0.3357
 6630TIP3    H141305   5.161   3.423  10.449 -0.6139 -0.0399  0.9782
 6630TIP3    H241306   5.078   3.545  10.417  0.0328 -0.0773 -0.9667
 6631TIP3   OH241307   3.833   6.959  14.787  0.5068 -0.4293 -0.0447
 6631TIP3    H141308   3.814   6.867  14.773 -2.5664 -0.1909  1.5203
 6631TIP3    H241309   3.915   6.960  14.837  0.3837 -2.3465  0.2582
 6632TIP3   OH241310   4.577   7.021  12.624 -0.4325  0.3361 -0.9653
 6632TIP3    H141311   4.550   6.951  12.684  0.4353 -0.2567 -1.2430
 6632TIP3    H241312   4.522   7.096  12.648  1.3351  0.8132  2.0273
 6633TIP3   OH241313   4.495   4.519  10.780 -0.1118  0.5322  0.2313
 6633TIP3    H141314   4.543   4.555  10.854 -0.8080  1.7458  0.1319
 6633TIP3    H241315   4.558   4.519  10.708  1.6073 -3.7469  1.4841
 6634TIP3   OH241316   2.988   5.338  11.568  0.2789 -0.4005 -0.0030
 6634TIP3    H141317   2.982   5.403  11.639 -0.9660 -0.6676  0.1569
 6634TIP3    H241318   3.020   5.259  11.611  2.0932  0.1413 -0.2506
 6635TIP3   OH241319   4.231   0.935   4.341  0.2880  0.0782 -0.0405
 6635TIP3    H141320   4.187   0.878   4.404  0.2453 -0.2506 -0.3621
 6635TIP3    H241321   4.319   0.897   4.332  0.0238 -0.3750 -0.8047
 6636TIP3   OH241322   2.444   4.763  12.404 -0.0118  0.1255 -0.4985
 6636TIP3    H141323   2.447   4.858  12.394  1.6695 -0.0583 -2.5088
 6636TIP3    H241324   2.376   4.735  12.342 -0.0451 -0.0345 -0.3902
 6637TIP3   OH241325   5.650   6.125  13.808 -0.0819  0.2305  0.0211
 6637TIP3    H141326   5.599   6.060  13.856  1.1311 -1.2640 -0.6528
 6637TIP3    H241327   5.584   6.185  13.772 -1.4583 -1.8810 -1.2187
 6638TIP3   OH241328   4.523   5.039  13.934 -0.3440 -0.2363  0.4145
 6638TIP3    H141329   4.521   5.101  14.007 -1.1635  0.2064  0.0266
 6638TIP3    H241330   4.616   5.022  13.920 -0.1084  0.8710  0.5521
 6639TIP3   OH241331   4.893   5.052  15.141  0.3267 -0.2809  0.5363
 6639TIP3    H141332   4.854   5.130  15.102 -1.2030 -0.9639  0.6056
 6639TIP3    H241333   4.987   5.067  15.137  0.2899 -0.1537 -3.1985
 6640TIP3   OH241334   0.486   1.341  15.365  0.3075  0.6826 -0.0132
 6640TIP3    H141335   0.461   1.311  15.277 -1.4478  0.7525  0.4179
 6640TIP3    H241336   0.418   1.304  15.422  1.1956  0.9828  1.2662
 6641TIP3   OH241337   5.676   4.874  13.494 -0.0524 -0.0663 -0.3921
 6641TIP3    H141338   5.673   4.935  13.419  0.4214  0.3847 -0.0538
 6641TIP3    H241339   5.756   4.898  13.540 -0.4358 -0.2299  0.3592
 6642TIP3   OH241340   3.062   5.406   0.151  0.2585  0.0023  0.1853
 6642TIP3    H141341   3.107   5.346   0.211  1.9125  0.5277 -0.4735
 6642TIP3    H241342   2.971   5.377   0.152  0.8529 -2.0188  0.5252
 6643TIP3   OH241343   4.867   4.636  14.528 -0.5805  0.1235 -0.3457
 6643TIP3    H141344   4.772   4.638  14.529 -0.7352 -2.8535 -0.0397
 6643TIP3    H241345   4.890   4.600  14.442  0.1035 -1.6565  0.5433
 6644TIP3   OH241346   4.000   3.847  10.206  0.3615  0.1695  0.4381
 6644TIP3    H141347   4.010   3.910  10.134  1.3960 -0.9973 -0.4921
 6644TIP3    H241348   3.978   3.765  10.162  0.4805 -0.4503  1.5097
 6645TIP3   OH241349   5.845   2.037  11.050 -0.3542 -0.3055  0.5762
 6645TIP3    H141350   5.849   2.132  11.034 -1.1134 -0.3916 -0.1674
 6645TIP3    H241351   5.803   2.029  11.136 -2.6826 -0.0112 -0.4667
 6646TIP3   OH241352   3.472   0.466  12.375  0.4021 -0.5139  0.0324
 6646TIP3    H141353   3.466   0.539  12.436 -1.9095  0.8724 -1.6914
 6646TIP3    H241354   3.519   0.502  12.299  1.1846 -1.5023  0.0232
 6647TIP3   OH241355   0.546   4.075  12.051  1.3704 -0.1166 -0.0989
 6647TIP3    H141356   0.546   3.997  11.996  2.9438 -0.7751  0.7866
 6647TIP3    H241357   0.453   4.097  12.061  1.0028 -0.5977 -2.1100
 6648TIP3   OH241358   4.693   3.909   4.850 -0.3359 -0.7396 -0.1426
 6648TIP3    H141359   4.715   3.916   4.943  0.8797  2.0277 -0.5104
 6648TIP3    H241360   4.703   3.817   4.829  0.5491 -1.2379  2.2138
 6649TIP3   OH241361   6.552   4.908   3.910  0.3382  0.0661 -0.2524
 6649TIP3    H141362   6.605   4.885   3.986  1.3236  0.5416 -0.7769
 6649TIP3    H241363   6.489   4.836   3.903  0.5979 -0.2696  0.6680
 6650TIP3   OH241364   3.389   1.654  10.375  0.6560  0.2241 -0.3476
 6650TIP3    H141365   3.484   1.659  10.369  0.5905  2.3548 -0.4535
 6650TIP3    H241366   3.358   1.740  10.346 -1.3104 -0.3997 -0.3041
 6651TIP3   OH241367   4.289   0.172   5.038  0.4974  0.1504 -0.1271
 6651TIP3    H141368   4.279   0.261   5.072  0.8564 -0.5440  1.9238
 6651TIP3    H241369   4.213   0.159   4.982  1.1187  2.1868 -1.5722
 6652TIP3   OH241370   5.644   3.997  14.372  0.5828 -0.1217 -0.4514
 6652TIP3    H141371   5.693   4.079  14.362  0.3997  0.0668  0.1906
 6652TIP3    H241372   5.552   4.024  14.369  0.5103 -0.3940 -0.9409
 6653TIP3   OH241373   0.214   5.658  13.179 -0.6571  0.6100  0.0435
 6653TIP3    H141374   0.165   5.617  13.250 -0.1593 -0.7938 -0.3829
 6653TIP3    H241375   0.200   5.601  13.103  1.4871  0.2137 -0.1339
 6654TIP3   OH241376   4.515   4.186   3.996 -0.5287  0.5242 -0.3975
 6654TIP3    H141377   4.487   4.115   3.939 -0.2131  0.4013 -0.3979
 6654TIP3    H241378   4.517   4.263   3.939  0.3672  0.2876 -0.6932
 6655TIP3   OH241379   5.400   2.739  14.818  0.1184 -0.4604 -0.7238
 6655TIP3    H141380   5.326   2.697  14.862 -0.0861  0.2830 -0.3498
 6655TIP3    H241381   5.477   2.709  14.866 -0.2931  3.3562  2.8293
 6656TIP3   OH241382   6.948   0.017   4.075  0.0302 -0.1088  0.1274
 6656TIP3    H141383   6.945   0.036   3.981 -2.5138  0.4384  0.2428
 6656TIP3    H241384   7.037  -0.015   4.090  1.6132  2.8663 -1.8393
 6657TIP3   OH241385   2.535   5.552   4.435  0.4094 -0.2240 -0.1888
 6657TIP3    H141386   2.603   5.493   4.403  0.4001  0.0378 -0.7026
 6657TIP3    H241387   2.467   5.549   4.368  0.7131  0.8877 -0.5714
 6658TIP3   OH241388   6.183   6.706   0.377 -0.0688  0.3188 -0.2616
 6658TIP3    H141389   6.272   6.672   0.389  0.0207  0.6718  0.1189
 6658TIP3    H241390   6.186   6.794   0.416 -0.8186 -0.0168  0.5822
 6659TIP3   OH241391   1.437   5.277  14.259  0.4963 -0.5643 -0.3818
 6659TIP3    H141392   1.499   5.208  14.285  1.3923  0.1322 -0.6027
 6659TIP3    H241393   1.425   5.329  14.339  0.5354 -0.4501 -0.4494
 6660TIP3   OH241394   4.136   0.028  12.596 -0.0820  0.1485  0.5776
 6660TIP3    H141395   4.121  -0.027  12.674  0.3451 -0.1267  0.4669
 6660TIP3    H241396   4.116   0.117  12.626 -0.3445 -0.0085  0.8817
 6661TIP3   OH241397   1.077   6.604   3.611  0.8139  0.1347 -0.3162
 6661TIP3    H141398   1.045   6.553   3.685  1.9603 -2.4346 -1.4511
 6661TIP3    H241399   1.011   6.593   3.543  0.7841  0.6740 -0.3763
 6662TIP3   OH241400   3.887   0.938   0.218  0.1160  0.2256 -0.6740
 6662TIP3    H141401   3.963   0.881   0.204 -0.3643 -0.7092  0.2952
 6662TIP3    H241402   3.829   0.886   0.274 -0.9491  1.1715 -0.8688
 6663TIP3   OH241403   4.674   6.931  12.377 -0.1077  0.1017  0.3638
 6663TIP3    H141404   4.724   6.975  12.446  1.3561 -2.2209  0.8796
 6663TIP3    H241405   4.657   6.844  12.411 -0.6862 -0.6110 -1.5999
 6664TIP3   OH241406   0.802   4.076   3.276  0.0772  0.2359 -0.7815
 6664TIP3    H141407   0.896   4.071   3.290  0.1792  1.7071 -0.7665
 6664TIP3    H241408   0.791   4.071   3.181  0.3159  1.6311 -0.8991
 6665TIP3   OH241409   5.797   4.909  14.822  0.2277 -0.4838  0.6427
 6665TIP3    H141410   5.851   4.958  14.884  0.8857  1.0488 -1.0413
 6665TIP3    H241411   5.802   4.960  14.741 -2.1321 -1.3927 -0.1544
 6666TIP3   OH241412   5.358   6.005  15.385  0.4773 -0.1186  0.1095
 6666TIP3    H141413   5.404   6.088  15.375  0.6155 -0.0306  1.3248
 6666TIP3    H241414   5.424   5.945  15.420 -0.3957  0.1665  2.4712
 6667TIP3   OH241415   3.563   6.924  13.513  0.2367 -0.2639 -0.0139
 6667TIP3    H141416   3.650   6.944  13.546  0.6329 -1.0479 -0.5701
 6667TIP3    H241417   3.549   6.987  13.442  0.4894 -0.3716 -0.1580
 6668TIP3   OH241418   4.558   3.789  11.462 -0.1722  0.3689  0.5206
 6668TIP3    H141419   4.502   3.815  11.389 -1.2108 -0.3697  1.0315
 6668TIP3    H241420   4.553   3.861  11.524 -3.3783 -1.0385  2.1254
 6669TIP3   OH241421   0.255   2.098   4.477 -0.7717 -0.1913 -0.1649
 6669TIP3    H141422   0.231   2.153   4.402  0.0607 -0.9766 -1.0320
 6669TIP3    H241423   0.177   2.046   4.494 -0.9323 -0.0795 -0.5512
 6670TIP3   OH241424   2.013   2.145  11.246 -0.6470  0.0630  0.1214
 6670TIP3    H141425   2.006   2.138  11.151  1.4454 -0.4383 -0.0396
 6670TIP3    H241426   2.052   2.062  11.274  1.2092  1.1960  1.0838
 6671TIP3   OH241427   1.576   0.676  12.357 -0.7159 -0.0316 -0.6018
 6671TIP3    H141428   1.615   0.725  12.430  0.0359 -1.8280  0.2613
 6671TIP3    H241429   1.481   0.684  12.371 -0.5827 -0.2508  0.5124
 6672TIP3   OH241430   3.070   5.515  14.024 -0.7548 -0.4870 -0.6371
 6672TIP3    H141431   3.163   5.522  14.001  0.2298  0.6435  3.0153
 6672TIP3    H241432   3.027   5.581  13.970  0.9735  0.5902 -0.7752
 6673TIP3   OH241433   6.238   4.635  13.274  0.7523 -0.4663  0.1267
 6673TIP3    H141434   6.194   4.645  13.358  0.7755 -2.5071  0.4302
 6673TIP3    H241435   6.271   4.723  13.254 -1.6817  0.7090  0.8323
 6674TIP3   OH241436   4.104   4.957   0.607  0.0462  0.4144 -0.2431
 6674TIP3    H141437   4.135   4.903   0.680  1.2638  0.4475 -0.7090
 6674TIP3    H241438   4.178   5.014   0.587  0.2107 -0.4259 -2.3098
 6675TIP3   OH241439   5.951   2.835  12.680  0.0990  0.3802  0.1867
 6675TIP3    H141440   6.015   2.764  12.673  0.7245  1.0708 -1.6127
 6675TIP3    H241441   5.940   2.849  12.774  1.3246 -0.8704  0.5437
 6676TIP3   OH241442   0.537   3.132   1.996  0.4470 -0.0740 -0.6613
 6676TIP3    H141443   0.597   3.086   1.937  0.5511  1.1758 -1.5726
 6676TIP3    H241444   0.450   3.117   1.958  0.3749 -0.3402 -0.3938
 6677TIP3   OH241445   3.499   6.671   0.341  0.2725 -0.5885  0.2301
 6677TIP3    H141446   3.471   6.672   0.433  0.6921 -0.1620  0.3578
 6677TIP3    H241447   3.544   6.754   0.329  0.1066 -0.5853 -0.4023
 6678TIP3   OH241448   2.345   1.609  10.360  0.2234 -0.7478  0.2029
 6678TIP3    H141449   2.413   1.545  10.339  0.3342 -0.0703 -1.6852
 6678TIP3    H241450   2.348   1.616  10.456  1.8907 -1.7124  0.2647
 6679TIP3   OH241451   7.127   0.880  15.263  0.1537  0.1300  0.3028
 6679TIP3    H141452   7.032   0.878  15.273  0.3517  0.6202  2.8514
 6679TIP3    H241453   7.160   0.814  15.324  1.5104  1.6521  1.3223
 6680TIP3   OH241454   6.466   5.128  11.055  0.5092 -0.3346 -0.1099
 6680TIP3    H141455   6.446   5.163  11.142 -0.2353 -2.3524  0.5823
 6680TIP3    H241456   6.395   5.160  10.999  0.5775  0.3510  0.1863
 6681TIP3   OH241457   2.577   6.192  12.574 -0.5867  0.3152  0.3588
 6681TIP3    H141458   2.648   6.229  12.627 -0.2857 -0.5496  0.5894
 6681TIP3    H241459   2.601   6.099  12.564 -0.0588  0.6645 -2.2379
 6682TIP3   OH241460   6.392   4.475  14.286  0.0530  0.4520  0.0133
 6682TIP3    H141461   6.369   4.383  14.274  1.9551  0.0498 -0.9179
 6682TIP3    H241462   6.322   4.523  14.243 -1.6049 -0.4664  1.5376
 6683TIP3   OH241463   1.593   4.251  12.300 -0.6006  0.0910  0.3108
 6683TIP3    H141464   1.646   4.231  12.222 -0.0856 -0.3164  0.7589
 6683TIP3    H241465   1.508   4.277  12.264 -0.8884 -1.6284 -0.3599
 6684TIP3   OH241466   1.103   2.035  12.752  0.2014 -0.0253  0.2479
 6684TIP3    H141467   1.147   2.046  12.836  1.7959 -1.2748 -0.3655
 6684TIP3    H241468   1.073   1.944  12.752  1.2377 -0.3925 -0.9543
 6685TIP3   OH241469   7.024   2.484   1.893 -0.0491  0.3173 -0.3221
 6685TIP3    H141470   7.070   2.539   1.956 -0.5120  1.1852 -0.7368
 6685TIP3    H241471   7.090   2.464   1.826 -0.1637  1.2233 -0.7071
 6686TIP3   OH241472   0.888   3.691  15.144  0.6164 -0.5134 -0.1050
 6686TIP3    H141473   0.811   3.663  15.193  1.0693  1.6735  2.0407
 6686TIP3    H241474   0.961   3.644  15.186  0.8222  0.0847  0.2170
 6687TIP3   OH241475   3.416   5.301   1.093  0.0906 -0.2880 -0.2742
 6687TIP3    H141476   3.354   5.373   1.105  0.7400  0.6699 -2.2750
 6687TIP3    H241477   3.386   5.233   1.154 -2.4743  0.3963 -0.6610
 6688TIP3   OH241478   2.933   1.375  14.429 -0.7227  0.6205 -0.2293
 6688TIP3    H141479   2.947   1.281  14.417  0.5110  0.6384  0.8586
 6688TIP3    H241480   2.845   1.390  14.395 -0.5938 -0.7485 -1.2992
 6689TIP3   OH241481   5.616   7.021   3.038 -0.1971 -0.0483  0.1002
 6689TIP3    H141482   5.601   6.927   3.036 -0.0082 -0.0784 -2.3927
 6689TIP3    H241483   5.530   7.060   3.023  0.1011  0.0699 -1.4852
 6690TIP3   OH241484   6.316   3.943   0.411  0.1530  0.1134  0.4862
 6690TIP3    H141485   6.258   4.017   0.393  1.5056  1.5541  1.7059
 6690TIP3    H241486   6.319   3.894   0.329 -1.8764  0.6146  0.0686
 6691TIP3   OH241487   0.925   0.822   3.872  0.2975  0.0740  0.0146
 6691TIP3    H141488   0.949   0.751   3.931 -1.9487 -0.3272  0.5312
 6691TIP3    H241489   0.907   0.896   3.930  3.1305  1.3496 -0.5370
 6692TIP3   OH241490   6.279   4.759  12.035 -0.3730  0.1853 -0.4071
 6692TIP3    H141491   6.250   4.850  12.032 -3.2403 -0.5659  1.0982
 6692TIP3    H241492   6.336   4.754  12.113  1.2494  0.9797 -1.4859
 6693TIP3   OH241493   6.989   0.731   2.594  0.4574  0.3355  0.3152
 6693TIP3    H141494   6.967   0.810   2.545 -3.0022 -1.0022 -0.6156
 6693TIP3    H241495   6.950   0.746   2.681 -2.7975 -1.2446 -0.7046
 6694TIP3   OH241496   7.085   4.596  15.479 -0.3254  0.4201  0.2002
 6694TIP3    H141497   7.071   4.591  15.573 -1.4539 -0.2589  0.0209
 6694TIP3    H241498   7.179   4.588  15.468 -0.2963 -1.1576  1.1970
 6695TIP3   OH241499   5.459   6.754   2.734  0.0655 -0.4319  0.2584
 6695TIP3    H141500   5.484   6.674   2.688  3.2097  1.0385 -0.8678
 6695TIP3    H241501   5.508   6.750   2.817  1.2617  0.8235 -0.3489
 6696TIP3   OH241502   0.824   1.971   9.974  0.0183 -0.1589 -0.2046
 6696TIP3    H141503   0.805   2.014   9.891  1.5545 -0.8942 -0.9759
 6696TIP3    H241504   0.915   1.994   9.994 -0.2797 -0.0913  1.2329
 6697TIP3   OH241505   3.202   4.171  13.101  0.3375 -0.0330  1.1510
 6697TIP3    H141506   3.196   4.079  13.126 -1.1230 -0.4881 -0.6253
 6697TIP3    H241507   3.115   4.192  13.067  1.4345  1.1631 -1.1359
 6698TIP3   OH241508   4.838   1.188  13.931  0.8975  0.0891  0.0567
 6698TIP3    H141509   4.842   1.217  14.022  1.5011  1.4319 -0.3741
 6698TIP3    H241510   4.760   1.230  13.895  1.7666  1.2395 -0.5643
 6699TIP3   OH241511   3.631   5.262  12.932  0.1726  0.2517  0.5045
 6699TIP3    H141512   3.629   5.355  12.906 -1.5913 -0.2832 -1.5758
 6699TIP3    H241513   3.544   5.245  12.968  0.1992 -0.7741  0.1119
 6700TIP3   OH241514   4.772   2.548   2.424  0.0981 -0.3799 -0.6600
 6700TIP3    H141515   4.729   2.559   2.340 -0.6731 -0.5186 -0.2909
 6700TIP3    H241516   4.727   2.608   2.483 -0.6155 -1.6184  0.0964
 6701TIP3   OH241517   1.327   1.545  13.562  0.2734 -0.0825 -0.6333
 6701TIP3    H141518   1.393   1.599  13.606 -1.0674  1.0939  0.0452
 6701TIP3    H241519   1.377   1.479  13.515  1.9392  0.9623 -0.4235
 6702TIP3   OH241520   3.569   5.661  11.427 -0.0633  0.3564 -0.3806
 6702TIP3    H141521   3.496   5.717  11.400 -1.4689  1.3821  4.5141
 6702TIP3    H241522   3.641   5.722  11.443 -0.1018  0.2103  0.4300
 6703TIP3   OH241523   1.685   3.832  11.561 -0.3940  0.8265 -0.4427
 6703TIP3    H141524   1.607   3.859  11.513 -1.2749 -0.0191  0.4909
 6703TIP3    H241525   1.711   3.910  11.611  1.9857  2.5839 -3.9795
 6704TIP3   OH241526   4.989   5.331  15.372 -0.3760  0.3343 -0.5167
 6704TIP3    H141527   4.991   5.350  15.278  0.2812 -0.4205 -0.6596
 6704TIP3    H241528   5.054   5.390  15.410  2.0187 -1.8084 -1.0222
 6705TIP3   OH241529   2.860   5.474   9.922  0.7663  0.2458 -0.3711
 6705TIP3    H141530   2.767   5.466   9.905  0.9412 -2.2074 -0.4725
 6705TIP3    H241531   2.893   5.530   9.851 -0.8675  2.8802  0.8111
 6706TIP3   OH241532   3.063   4.333  12.784 -0.1693  0.3421 -0.3011
 6706TIP3    H141533   3.151   4.304  12.805  0.0606 -0.4747 -2.2287
 6706TIP3    H241534   3.008   4.257  12.801  0.1185 -0.5903 -3.1239
 6707TIP3   OH241535   1.467   2.964  11.776  0.2241  0.5949  0.3525
 6707TIP3    H141536   1.421   3.024  11.834 -0.0107  1.9559 -1.1647
 6707TIP3    H241537   1.419   2.969  11.693  0.7922 -0.9625 -0.1149
 6708TIP3   OH241538   5.484   4.823  15.189 -0.7705 -0.4978  0.1171
 6708TIP3    H141539   5.457   4.889  15.252  1.4587 -1.9382  2.8012
 6708TIP3    H241540   5.449   4.741  15.223  0.8743 -1.3907 -0.2266
 6709TIP3   OH241541   2.326   5.320  12.021  0.2068 -0.3142  0.7677
 6709TIP3    H141542   2.281   5.404  12.023 -1.3394 -1.1225  1.7113
 6709TIP3    H241543   2.387   5.324  12.095  0.3011  0.0452  0.6728
 6710TIP3   OH241544   6.904   1.841  14.745 -0.0981  0.3999  0.3855
 6710TIP3    H141545   6.900   1.753  14.706 -1.6089  0.8243 -0.4755
 6710TIP3    H241546   6.917   1.900  14.671  0.6636  0.9483  0.9352
 6711TIP3   OH241547   1.453   6.922  11.709 -0.0158 -0.2967 -0.2608
 6711TIP3    H141548   1.541   6.890  11.731 -0.5142 -0.4973  1.6014
 6711TIP3    H241549   1.464   6.966  11.625  1.8765 -0.3063 -0.0608
 6712TIP3   OH241550   3.014   5.444   3.340  0.3685  0.3018 -0.0891
 6712TIP3    H141551   2.970   5.408   3.262  1.7745 -0.3311 -0.6180
 6712TIP3    H241552   2.948   5.437   3.409 -1.7270  2.8865 -1.6178
 6713TIP3   OH241553   6.689   5.320  10.476  0.0024  0.0419 -0.0449
 6713TIP3    H141554   6.758   5.261  10.504 -1.1014 -1.0544  0.4878
 6713TIP3    H241555   6.721   5.359  10.395  1.3653 -0.1716  0.3787
 6714TIP3   OH241556   5.635   5.583  13.139 -0.5732 -0.4819 -0.3216
 6714TIP3    H141557   5.646   5.593  13.044  0.5659  0.3847 -0.1271
 6714TIP3    H241558   5.672   5.497  13.158  1.2061  0.2164 -0.4111
 6715TIP3   OH241559   2.272   2.330   2.823  0.3115 -0.3854 -0.1115
 6715TIP3    H141560   2.176   2.326   2.821  0.1801  1.7346 -0.5447
 6715TIP3    H241561   2.292   2.389   2.896  1.1862  0.7078 -1.1964
 6716TIP3   OH241562   4.162   2.219   1.695 -0.2028  0.8286 -0.4566
 6716TIP3    H141563   4.088   2.169   1.730  0.0451  1.3586  0.9005
 6716TIP3    H241564   4.205   2.159   1.634 -1.4911  0.3676 -0.9556
 6717TIP3   OH241565   1.246   6.807   0.937 -0.0360 -0.2134  0.3388
 6717TIP3    H141566   1.303   6.879   0.910  0.6318 -0.6304  0.6059
 6717TIP3    H241567   1.171   6.849   0.978  1.6938  0.3266  3.2235
 6718TIP3   OH241568   0.816   3.130  12.291  0.6895  0.0652  0.1834
 6718TIP3    H141569   0.907   3.141  12.262  0.0644  1.1195 -1.5709
 6718TIP3    H241570   0.822   3.069  12.365  2.8205  0.1872  0.1980
 6719TIP3   OH241571   1.366   4.176  13.739 -0.4400 -0.2707  0.1787
 6719TIP3    H141572   1.415   4.111  13.688 -1.1368 -2.0917  1.6831
 6719TIP3    H241573   1.326   4.233  13.674 -1.1737 -2.3881 -1.3439
 6720TIP3   OH241574   3.299   3.536  14.786 -0.0986 -0.3176  0.4836
 6720TIP3    H141575   3.282   3.450  14.748  2.0053 -0.1830 -0.9150
 6720TIP3    H241576   3.254   3.597  14.728 -0.2814 -0.3752  0.5645
 6721TIP3   OH241577   5.326   2.924  11.025  0.0977 -0.2432  0.2571
 6721TIP3    H141578   5.382   2.981  11.078  0.5745  1.5518 -2.0320
 6721TIP3    H241579   5.237   2.945  11.053  0.2118  2.2610 -0.9907
 6722TIP3   OH241580   2.338   3.136  13.431 -0.1778  0.1123  0.2731
 6722TIP3    H141581   2.397   3.117  13.504  1.7350 -2.3302 -1.7255
 6722TIP3    H241582   2.383   3.204  13.381  0.0225 -0.3855 -0.2310
 6723TIP3   OH241583   4.142   1.555   1.445  0.4473 -0.1518 -0.1804
 6723TIP3    H141584   4.082   1.591   1.380 -0.2470 -2.5331 -0.9599
 6723TIP3    H241585   4.214   1.619   1.450 -1.4512  2.1028 -0.1969
 6724TIP3   OH241586   3.087   2.345  14.799  0.2431  0.4316  0.0640
 6724TIP3    H141587   3.165   2.330  14.852  0.5528  0.5379 -0.3494
 6724TIP3    H241588   3.054   2.430  14.828  1.2766  1.2210 -0.9285
 6725TIP3   OH241589   0.030   3.358   1.002  0.2499 -0.0551 -0.1925
 6725TIP3    H141590   0.106   3.306   1.028  0.9598  0.4284 -1.2568
 6725TIP3    H241591   0.064   3.446   0.989 -0.1836 -0.1263 -2.0747
 6726TIP3   OH241592   0.671   6.976   1.671 -0.2017  0.4903  0.1514
 6726TIP3    H141593   0.720   6.922   1.734 -0.2351  0.6762  0.3391
 6726TIP3    H241594   0.628   7.042   1.725 -2.5536 -1.0255  0.2648
 6727TIP3   OH241595   1.147   5.658   5.235 -0.5436  0.1893  0.0190
 6727TIP3    H141596   1.232   5.702   5.245 -1.5013  2.1057  0.1842
 6727TIP3    H241597   1.131   5.617   5.320  0.3170 -0.4052 -0.0938
 6728TIP3   OH241598   0.806   6.029   1.201  0.4715 -0.0125  0.5209
 6728TIP3    H141599   0.897   6.040   1.174  0.0790  0.3981 -0.6880
 6728TIP3    H241600   0.783   6.112   1.243  0.6227 -0.0982  0.7826
 6729TIP3   OH241601   5.483   3.982  10.366 -0.2679 -0.0369 -0.0410
 6729TIP3    H141602   5.520   4.070  10.367  0.8784 -0.4259  3.1570
 6729TIP3    H241603   5.547   3.929  10.318 -0.2617  0.5830 -0.7360
 6730TIP3   OH241604   0.111   2.717   1.758 -0.1118  0.2058 -0.4009
 6730TIP3    H141605   0.050   2.753   1.822  0.7503  0.3485  0.3723
 6730TIP3    H241606   0.071   2.635   1.729 -0.1912 -0.2164  0.8520
 6731TIP3   OH241607   1.020   1.878  13.953  0.0665  0.1218 -0.3113
 6731TIP3    H141608   1.041   1.788  13.929 -0.4839 -0.0682 -0.1024
 6731TIP3    H241609   1.102   1.926  13.942  0.3087 -0.3617 -0.6310
 6732TIP3   OH241610   1.468   0.494  12.820  0.0265  0.1983  0.3077
 6732TIP3    H141611   1.532   0.482  12.750  0.3612  2.1354  0.2459
 6732TIP3    H241612   1.383   0.483  12.777  0.2520 -1.9085  0.2973
 6733TIP3   OH241613   2.555   2.812   4.348  0.0508  0.4325  0.4070
 6733TIP3    H141614   2.526   2.741   4.290 -0.5298  0.3909  0.7349
 6733TIP3    H241615   2.559   2.889   4.292 -1.9800  0.7314  0.5885
 6734TIP3   OH241616   0.884   2.604  11.728  0.1096  0.0554  0.2732
 6734TIP3    H141617   0.877   2.562  11.814 -0.5056 -0.6036 -0.0917
 6734TIP3    H241618   0.818   2.672  11.730  0.9776  0.9174  0.7933
 6735TIP3   OH241619   0.147   3.472  15.305  0.2717 -0.0554 -0.1154
 6735TIP3    H141620   0.151   3.566  15.322 -1.6015  0.3695 -1.6499
 6735TIP3    H241621   0.209   3.433  15.367 -0.5098  1.9667  2.0629
 6736TIP3   OH241622   3.285   6.647  10.894 -0.3110  0.5394  0.0006
 6736TIP3    H141623   3.261   6.671  10.983  0.8628  0.6085  0.3157
 6736TIP3    H241624   3.306   6.553  10.899 -0.6089  0.4531 -0.2880
 6737TIP3   OH241625   6.721   2.051   1.585  0.0264 -0.0887  0.3549
 6737TIP3    H141626   6.632   2.078   1.563  0.1557 -1.7048 -2.6630
 6737TIP3    H241627   6.777   2.111   1.536  0.5996  0.1354  1.2587
 6738TIP3   OH241628   5.134   0.132   1.008  0.1766  0.2016 -0.0200
 6738TIP3    H141629   5.127   0.100   1.098 -1.9720 -0.9087 -0.5086
 6738TIP3    H241630   5.100   0.060   0.954 -1.3830  1.9050 -1.4562
 6739TIP3   OH241631   6.206   4.943  14.642  0.2721  0.1416  0.3120
 6739TIP3    H141632   6.161   4.986  14.715 -1.2707 -0.1649 -0.4195
 6739TIP3    H241633   6.278   4.895  14.684  0.5427  1.4417  1.4083
 6740TIP3   OH241634   1.518   0.914  12.530  0.1750 -0.5499 -0.6383
 6740TIP3    H141635   1.478   0.933  12.615  0.6565 -1.8256 -0.0991
 6740TIP3    H241636   1.467   0.966  12.467 -1.0865 -0.6531  0.2601
 6741TIP3   OH241637   1.860   7.101   3.271 -0.7495 -0.4605 -0.1975
 6741TIP3    H141638   1.951   7.127   3.256 -0.8740  0.4049  0.4780
 6741TIP3    H241639   1.854   7.013   3.234  0.9679 -1.4459  1.6426
 6742TIP3   OH241640   4.572   2.265  12.982 -0.2450  0.3675 -0.2699
 6742TIP3    H141641   4.591   2.188  12.928 -1.8834 -2.0985  2.3746
 6742TIP3    H241642   4.656   2.287  13.022 -0.0799 -1.3344  0.4067
 6743TIP3   OH241643   2.957   3.007   1.032 -0.8592 -0.2056  0.4255
 6743TIP3    H141644   2.994   2.958   1.106  1.4032  1.1857  0.2978
 6743TIP3    H241645   2.971   2.951   0.956  0.0921 -0.1487  0.5468
 6744TIP3   OH241646   2.362   0.682  15.062 -0.6835  0.7716  0.0670
 6744TIP3    H141647   2.416   0.602  15.067 -2.3948 -0.3490  2.4372
 6744TIP3    H241648   2.327   0.681  14.973  2.2375  0.9670 -1.2051
 6745TIP3   OH241649   1.264   0.740  14.281 -0.3223 -0.5831 -0.2455
 6745TIP3    H141650   1.302   0.820  14.319 -0.3013 -0.0312 -1.3871
 6745TIP3    H241651   1.283   0.672  14.346 -0.1748  0.2937  0.6708
 6746TIP3   OH241652   6.172   2.036   2.841 -0.0695  0.0403 -0.3701
 6746TIP3    H141653   6.263   2.009   2.846  0.1903  1.1284  1.3280
 6746TIP3    H241654   6.160   2.099   2.912 -2.6139 -1.4074  0.6191
 6747TIP3   OH241655   1.992   1.645   3.512 -0.1503 -0.1695  0.6110
 6747TIP3    H141656   2.043   1.717   3.475 -0.1550 -0.0860  0.7704
 6747TIP3    H241657   2.014   1.570   3.456  0.1902 -0.1464  0.7121
 6748TIP3   OH241658   5.868   1.747  14.651  0.3061  0.0135  1.0040
 6748TIP3    H141659   5.799   1.786  14.598  0.8977 -2.2324 -1.6479
 6748TIP3    H241660   5.822   1.706  14.724 -0.6596  2.0662  1.6343
 6749TIP3   OH241661   2.102   0.413   9.391  0.0247 -0.2744 -0.4409
 6749TIP3    H141662   2.058   0.492   9.422 -1.0172 -1.6991  1.9726
 6749TIP3    H241663   2.132   0.370   9.471  2.9625 -1.0372 -1.8180
 6750TIP3   OH241664   3.125   3.127  10.777 -0.0825  0.2793 -0.3556
 6750TIP3    H141665   3.171   3.208  10.798  0.2402 -0.1306  0.5535
 6750TIP3    H241666   3.191   3.058  10.786 -0.9077 -0.3536  1.2656
 6751TIP3   OH241667   3.406   4.392   2.402  1.1907 -0.1257 -0.5160
 6751TIP3    H141668   3.359   4.467   2.438  2.3468  0.4852 -0.2370
 6751TIP3    H241669   3.494   4.398   2.440  1.4780 -1.2851 -0.9546
 6752TIP3   OH241670   2.871   0.593   1.961 -0.1447  0.2050  0.4719
 6752TIP3    H141671   2.906   0.543   1.887  0.3165 -0.7281  1.2909
 6752TIP3    H241672   2.936   0.662   1.976  0.3941 -0.3441  0.7538
 6753TIP3   OH241673   5.327   2.871   9.690  0.3465  0.0773  0.1492
 6753TIP3    H141674   5.422   2.856   9.684  0.4866  0.8502  0.3785
 6753TIP3    H241675   5.305   2.916   9.608  0.5194  1.5938  0.9003
 6754TIP3   OH241676   3.367   1.723   1.844  0.0704  0.5775  0.5447
 6754TIP3    H141677   3.405   1.797   1.892  1.7825 -1.0215  1.8321
 6754TIP3    H241678   3.312   1.679   1.907 -2.3587  1.6374 -0.7142
 6755TIP3   OH241679   0.133   2.724  15.131 -0.7003 -0.1573  0.2000
 6755TIP3    H141680   0.110   2.793  15.194  1.3948 -0.0523  0.9525
 6755TIP3    H241681   0.166   2.772  15.055 -2.4049 -0.3078 -0.6833
 6756TIP3   OH241682   3.253   5.891  14.057  0.0136  0.2646 -0.0218
 6756TIP3    H141683   3.305   5.912  14.134 -1.3234 -1.0030  1.2827
 6756TIP3    H241684   3.269   5.799  14.040 -1.4255 -0.0489  0.1498
 6757TIP3   OH241685   6.725   4.671  14.658  0.5035  0.1734  0.1495
 6757TIP3    H141686   6.723   4.759  14.621 -1.6457  0.7002  1.3758
 6757TIP3    H241687   6.649   4.627  14.620  1.1856 -0.9647  0.0512
 6758TIP3   OH241688   6.255   1.375  11.697  0.6230 -0.5132 -0.0815
 6758TIP3    H141689   6.344   1.390  11.663  0.5360 -0.2462 -0.1962
 6758TIP3    H241690   6.209   1.457  11.680 -0.6158 -1.6866 -3.0569
 6759TIP3   OH241691   4.034   6.209  10.416 -0.2906 -0.1698 -0.3051
 6759TIP3    H141692   4.014   6.140  10.480  1.1292  0.7120  1.1366
 6759TIP3    H241693   4.082   6.275  10.465 -3.1274  2.7913 -1.1802
 6760TIP3   OH241694   2.937   7.035   5.645 -0.0837 -0.2150  0.0052
 6760TIP3    H141695   2.878   7.068   5.578 -1.2645 -0.6037  0.8218
 6760TIP3    H241696   2.968   7.114   5.691 -1.6054 -0.0943  0.8910
 6761TIP3   OH241697   2.828   5.897  10.436  0.3764 -0.7860 -0.4758
 6761TIP3    H141698   2.736   5.872  10.432  0.7003 -1.9232 -1.0875
 6761TIP3    H241699   2.833   5.979  10.386 -0.3543 -0.5007 -0.1030
 6762TIP3   OH241700   2.650   0.000   0.812 -0.6681  0.4907 -0.2005
 6762TIP3    H141701   2.642  -0.091   0.784  0.5041  0.6467 -1.1224
 6762TIP3    H241702   2.664  -0.004   0.906 -1.0516 -0.2535 -0.1688
 6763TIP3   OH241703   6.868   6.774   2.369 -0.5041 -0.1717  0.5818
 6763TIP3    H141704   6.844   6.776   2.276 -1.0395  1.4613  0.7095
 6763TIP3    H241705   6.963   6.768   2.369 -0.3088  1.9913 -0.1723
 6764TIP3   OH241706   3.284   7.001   2.190 -0.7730 -0.0689  0.4732
 6764TIP3    H141707   3.254   7.088   2.163  0.6926  0.0657 -0.8526
 6764TIP3    H241708   3.359   7.018   2.248 -1.6374 -0.4465  1.7519
 6765TIP3   OH241709   3.497   3.147  11.213  0.5954  0.6009  1.2467
 6765TIP3    H141710   3.527   3.114  11.298  0.8764 -1.8421  0.2821
 6765TIP3    H241711   3.423   3.091  11.190  0.9959  0.7107 -0.4488
 6766TIP3   OH241712   6.703   5.022  12.939 -0.3256 -0.7452  0.0452
 6766TIP3    H141713   6.776   4.972  12.901  0.1329  1.3165 -2.0377
 6766TIP3    H241714   6.744   5.081  13.001 -0.6008 -1.4249  0.8946
 6767TIP3   OH241715   1.601   5.693  13.580  0.2621 -0.1808  0.3977
 6767TIP3    H141716   1.595   5.732  13.667 -1.7571 -1.2640  0.7893
 6767TIP3    H241717   1.685   5.646  13.581 -0.4252 -1.4783  2.3612
 6768TIP3   OH241718   6.846   1.220   9.416  0.0454  0.2060  0.1137
 6768TIP3    H141719   6.762   1.249   9.453  0.0966 -0.1727  0.5337
 6768TIP3    H241720   6.828   1.208   9.323 -0.4371 -0.1248  0.2440
 6769TIP3   OH241721   4.581   4.566  10.527 -0.0785 -0.3684  0.4588
 6769TIP3    H141722   4.665   4.609  10.541 -0.2107  0.8014 -1.8627
 6769TIP3    H241723   4.535   4.621  10.463 -2.8743 -0.6579  2.0317
 6770TIP3   OH241724   6.721   0.926  11.525  0.1197 -0.3813 -0.4387
 6770TIP3    H141725   6.813   0.907  11.508  0.4321  1.2800 -0.7756
 6770TIP3    H241726   6.674   0.884  11.453  0.7794  0.2274 -1.2385
 6771TIP3   OH241727   2.550   7.079  13.509 -0.6174 -0.0857  0.3747
 6771TIP3    H141728   2.627   7.023  13.519 -2.1968 -2.7007 -1.0635
 6771TIP3    H241729   2.488   7.047  13.574 -1.0995  0.8605  0.3984
 6772TIP3   OH241730   0.934   2.087   2.835 -0.0539 -0.7151  0.2268
 6772TIP3    H141731   0.851   2.083   2.883 -0.6411 -0.4361 -0.7408
 6772TIP3    H241732   0.930   2.015   2.772  0.2470 -0.4354 -0.1207
 6773TIP3   OH241733   4.117   3.326   0.262 -0.4553 -0.1693  0.2322
 6773TIP3    H141734   4.146   3.301   0.175  0.5242 -0.8567  0.7351
 6773TIP3    H241735   4.175   3.399   0.286  1.4609 -1.9800  1.5115
 6774TIP3   OH241736   1.067   4.702  12.051 -0.2860 -0.1280 -0.5228
 6774TIP3    H141737   1.095   4.627  12.105  2.9063  1.6975  0.6814
 6774TIP3    H241738   0.979   4.721  12.081 -0.6462 -2.4911  0.1531
 6775TIP3   OH241739   3.200   0.214  12.929  0.6607  0.3681 -0.4819
 6775TIP3    H141740   3.174   0.238  13.018  0.8613 -0.6958 -0.1198
 6775TIP3    H241741   3.119   0.187  12.886  0.6885  0.0796 -0.3542
 6776TIP3   OH241742   3.228   3.761   2.259  0.5310  0.1137  0.4111
 6776TIP3    H141743   3.198   3.851   2.247  1.1994  0.1847 -0.9037
 6776TIP3    H241744   3.268   3.738   2.175 -0.0770 -1.5854  0.5697
 6777TIP3   OH241745   2.741   6.564   5.582 -0.5994 -0.1248  0.1368
 6777TIP3    H141746   2.717   6.633   5.644 -0.1955 -0.4500  0.6739
 6777TIP3    H241747   2.735   6.483   5.633 -0.4724 -0.4238 -0.3127
 6778TIP3   OH241748   5.197   6.604  13.508  0.0441  0.4722  0.5196
 6778TIP3    H141749   5.124   6.637  13.455  0.8020 -0.8209 -1.4172
 6778TIP3    H241750   5.160   6.531  13.558 -0.0239 -0.1626 -0.4360
 6779TIP3   OH241751   4.499   2.910   1.173  0.6970  0.7196  0.2414
 6779TIP3    H141752   4.428   2.958   1.216 -0.0975 -1.4833  1.5641
 6779TIP3    H241753   4.529   2.847   1.239  0.8744 -1.3946 -1.7285
 6780TIP3   OH241754   5.328   3.610   2.172  0.2701  0.4702  0.4137
 6780TIP3    H141755   5.276   3.551   2.227 -1.2878  0.3414 -1.1217
 6780TIP3    H241756   5.412   3.618   2.218 -0.1524 -1.4320  1.6168
 6781TIP3   OH241757   7.042   4.086   0.368  0.0849 -0.4972  0.2569
 6781TIP3    H141758   7.135   4.105   0.384 -0.0283  1.0520 -0.6771
 6781TIP3    H241759   7.042   4.032   0.289  0.2153 -1.0793  0.6498
 6782TIP3   OH241760   3.169   3.332  13.048 -0.3094 -0.0664  0.1639
 6782TIP3    H141761   3.180   3.426  13.062 -1.3664 -0.0970  1.4633
 6782TIP3    H241762   3.088   3.311  13.094 -1.4147 -1.1975 -2.1389
 6783TIP3   OH241763   2.160   4.599  13.982 -0.4608 -0.4204 -0.7433
 6783TIP3    H141764   2.100   4.626  14.051 -0.6928  0.8469 -1.4257
 6783TIP3    H241765   2.108   4.603  13.902  0.6638  1.3311 -1.4386
 6784TIP3   OH241766   0.715   3.984  12.997 -0.0963  0.0589 -0.2170
 6784TIP3    H141767   0.753   3.897  13.001 -0.6260 -0.1801 -0.3197
 6784TIP3    H241768   0.686   3.993  12.906  2.1340  1.2841 -0.8882
 6785TIP3   OH241769   3.863   0.511  15.083 -0.2892  0.0234 -0.2210
 6785TIP3    H141770   3.850   0.473  14.996 -0.1920 -0.8782  0.1416
 6785TIP3    H241771   3.786   0.567  15.097  0.3831  1.3082 -1.4399
 6786TIP3   OH241772   4.765   1.463   0.508 -0.3668 -0.8744 -0.1443
 6786TIP3    H141773   4.706   1.390   0.488 -0.9136 -0.3415 -0.5006
 6786TIP3    H241774   4.715   1.519   0.568 -0.0464 -0.6582 -0.0739
 6787TIP3   OH241775   0.086   6.579  11.631 -0.0664 -0.1266  0.1282
 6787TIP3    H141776   0.092   6.665  11.672 -1.4445  1.8426 -3.3770
 6787TIP3    H241777   0.175   6.560  11.602  0.2030  0.2415  0.6953
 6788TIP3   OH241778   3.721   2.974  11.802 -0.1906  0.0400 -0.2134
 6788TIP3    H141779   3.761   3.031  11.737  0.8925  1.2074  1.4241
 6788TIP3    H241780   3.671   2.911  11.750  0.7817  0.7996 -2.1740
 6789TIP3   OH241781   6.954   3.865  14.074 -0.1944 -0.3876 -0.0958
 6789TIP3    H141782   6.966   3.804  14.146  1.8706 -0.0439 -0.0833
 6789TIP3    H241783   7.024   3.843  14.012  0.2378  1.5599 -0.3541
 6790TIP3   OH241784   2.853   4.315  15.145  0.1424  0.3778 -0.6269
 6790TIP3    H141785   2.851   4.291  15.053 -1.7508  2.0455 -1.1006
 6790TIP3    H241786   2.909   4.392  15.150 -0.8807  1.1475 -0.6634
 6791TIP3   OH241787   2.582   4.179   0.379 -0.1338  0.0974  0.4075
 6791TIP3    H141788   2.578   4.237   0.455 -0.6123 -0.5581  0.8886
 6791TIP3    H241789   2.658   4.123   0.396 -1.5016 -1.5136  1.4932
 6792TIP3   OH241790   0.246   5.085  11.448 -0.0969 -0.0473  0.5808
 6792TIP3    H141791   0.208   5.028  11.515 -0.7266  0.6693  0.8579
 6792TIP3    H241792   0.270   5.165  11.495 -0.0515  0.2592  0.0545
 6793TIP3   OH241793   6.073   1.285  10.011  0.1098 -0.5600  0.6281
 6793TIP3    H141794   6.068   1.197   9.974  1.3894 -1.1813  1.8301
 6793TIP3    H241795   6.157   1.286  10.058 -0.3887  0.9371  1.5480
 6794TIP3   OH241796   0.620   2.709  14.468 -0.1795 -0.0722  0.0810
 6794TIP3    H141797   0.662   2.789  14.500  1.0899 -1.2334  1.4502
 6794TIP3    H241798   0.609   2.654  14.545  1.4061 -2.2852 -1.1421
 6795TIP3   OH241799   2.870   7.080  14.333 -0.3320 -0.5302 -0.1519
 6795TIP3    H141800   2.814   7.149  14.369 -0.3432 -1.6855  2.2312
 6795TIP3    H241801   2.868   7.095  14.238 -1.0465  2.1576  0.1917
 6796TIP3   OH241802   0.822   6.753  14.641 -0.0776  0.2721 -0.1286
 6796TIP3    H141803   0.739   6.732  14.597 -0.6450  0.4892  0.8264
 6796TIP3    H241804   0.879   6.782  14.570 -0.5953 -0.5180 -0.8938
 6797TIP3   OH241805   5.610   3.572   0.220  0.2134  0.2643  0.2404
 6797TIP3    H141806   5.529   3.611   0.186  0.0992  0.8571  1.1419
 6797TIP3    H241807   5.596   3.478   0.214 -0.7092  0.3550  0.7193
 6798TIP3   OH241808   4.137   0.600   5.001  0.2890 -0.8407 -0.4776
 6798TIP3    H141809   4.140   0.544   4.924 -1.5206 -2.5456  0.5890
 6798TIP3    H241810   4.159   0.687   4.969 -1.5116 -1.2662 -3.1614
 6799TIP3   OH241811   6.112   5.094   0.876 -0.0243  0.2553 -0.6426
 6799TIP3    H141812   6.140   5.062   0.790 -0.7831  1.2217 -1.2679
 6799TIP3    H241813   6.182   5.155   0.902  0.9438 -1.1197  0.1222
 6800TIP3   OH241814   5.037   3.862  11.628  0.2564 -0.4241  0.5984
 6800TIP3    H141815   4.945   3.889  11.640  0.6308  0.8589  0.7309
 6800TIP3    H241816   5.031   3.772  11.596 -1.0974  0.1429 -0.8886
 6801TIP3   OH241817   2.999   2.532  12.892 -0.0559  0.1020 -0.0872
 6801TIP3    H141818   3.025   2.606  12.948  2.8921 -1.8462  1.3773
 6801TIP3    H241819   3.071   2.523  12.830 -0.3730 -1.4991 -0.2629
 6802TIP3   OH241820   3.033   0.605   1.391 -0.4810  0.3440 -0.0561
 6802TIP3    H141821   3.065   0.692   1.368  0.0561  0.2100  0.1908
 6802TIP3    H241822   2.937   0.613   1.385 -0.6910  1.9392  3.4535
 6803TIP3   OH241823   2.315   4.043  10.156  0.0183 -0.1270 -0.4165
 6803TIP3    H141824   2.244   3.991  10.192  0.2485 -0.7781 -0.8909
 6803TIP3    H241825   2.353   3.989  10.087  2.4996 -0.8137  1.3433
 6804TIP3   OH241826   3.406   4.843  12.415  0.5918  0.0266 -0.1689
 6804TIP3    H141827   3.388   4.803  12.500  0.9172 -1.2882 -0.7038
 6804TIP3    H241828   3.327   4.826  12.363  1.2186 -1.0293 -0.7945
 6805TIP3   OH241829   6.704   6.424   4.192  0.6017  0.1222 -0.0950
 6805TIP3    H141830   6.798   6.435   4.207  0.4272 -0.0691  1.2665
 6805TIP3    H241831   6.672   6.514   4.181  0.9905  0.1656 -1.0042
 6806TIP3   OH241832   5.969   0.263  12.383  0.1072 -0.4599  0.6726
 6806TIP3    H141833   5.986   0.356  12.375  0.4277 -0.5646  0.0372
 6806TIP3    H241834   5.874   0.254  12.373  0.0298 -0.1674  1.1409
 6807TIP3   OH241835   1.311   6.346  12.897  0.0417  0.6859 -0.1607
 6807TIP3    H141836   1.328   6.381  12.985 -0.1926  2.1467 -0.6546
 6807TIP3    H241837   1.396   6.349  12.853 -0.3371  2.7258 -0.8698
 6808TIP3   OH241838   3.598   3.388   1.860 -0.0414  0.4829 -0.0486
 6808TIP3    H141839   3.572   3.360   1.948 -2.6977 -0.3187 -1.0178
 6808TIP3    H241840   3.564   3.320   1.802  1.3713  1.1612 -1.7587
 6809TIP3   OH241841   5.595   6.489  14.840  0.2798 -0.0447  0.4209
 6809TIP3    H141842   5.501   6.509  14.845  0.4446  0.7854  0.4867
 6809TIP3    H241843   5.607   6.447  14.755 -0.4923 -2.1875  1.3141
 6810TIP3   OH241844   4.207   0.498  12.865  0.3508  0.6121  0.5130
 6810TIP3    H141845   4.151   0.428  12.899 -0.0766  1.1936  1.0334
 6810TIP3    H241846   4.271   0.513  12.934 -0.0446  1.2709  0.7422
 6811TIP3   OH241847   3.602   0.188   0.526 -0.4885 -0.1934 -0.3368
 6811TIP3    H141848   3.623   0.258   0.587  0.1218  1.2988 -2.1458
 6811TIP3    H241849   3.619   0.107   0.574 -1.8954  0.8408  2.0716
 6812TIP3   OH241850   2.180   2.028  13.850  0.1324  0.1327 -0.3720
 6812TIP3    H141851   2.156   2.100  13.792 -0.8832 -0.8438 -1.2173
 6812TIP3    H241852   2.161   2.061  13.938 -1.5577  0.4728 -0.8227
 6813TIP3   OH241853   6.232   0.160  13.744  0.0662  0.0128 -0.1454
 6813TIP3    H141854   6.186   0.105  13.809  1.6430 -0.7919  0.3440
 6813TIP3    H241855   6.188   0.140  13.661 -2.1413  1.2254  0.6398
 6814TIP3   OH241856   3.837   6.900  13.215 -0.4436 -0.2617 -0.1880
 6814TIP3    H141857   3.758   6.896  13.161 -2.1465  0.1661  2.1216
 6814TIP3    H241858   3.827   6.979  13.268  0.3500 -1.3984  1.8035
 6815TIP3   OH241859   6.693   6.318   0.121  0.3867  0.6571 -0.3327
 6815TIP3    H141860   6.695   6.406   0.085 -0.7646  1.3202  1.0722
 6815TIP3    H241861   6.777   6.307   0.165  0.5610  1.0294 -0.5769
 6816TIP3   OH241862   1.619   1.300  12.450 -0.7262 -0.0381  0.2095
 6816TIP3    H141863   1.640   1.386  12.412 -1.1571 -0.4019 -0.9090
 6816TIP3    H241864   1.673   1.239  12.401  0.8685 -0.2612  2.1708
 6817TIP3   OH241865   1.782   2.877  10.884  0.1176 -0.0137  0.2110
 6817TIP3    H141866   1.817   2.945  10.826  1.6629 -0.6723  0.3205
 6817TIP3    H241867   1.818   2.898  10.970  1.7548 -1.6742  0.0032
 6818TIP3   OH241868   5.343   5.208   9.892 -0.2982  0.3015 -0.2253
 6818TIP3    H141869   5.382   5.125   9.921  0.2768  0.6076 -0.1196
 6818TIP3    H241870   5.407   5.245   9.832 -0.6679  0.5540 -0.4713
 6819TIP3   OH241871   5.631   4.562  10.939  0.1466 -0.0298 -0.0735
 6819TIP3    H141872   5.695   4.528  11.002  1.7793  3.1650  0.2420
 6819TIP3    H241873   5.680   4.574  10.858 -0.6455  0.3844 -0.5073
 6820TIP3   OH241874   0.458   2.699   0.256  0.0651  0.0043  0.5202
 6820TIP3    H141875   0.542   2.735   0.286 -0.0017  0.7099 -0.1107
 6820TIP3    H241876   0.423   2.766   0.197 -0.8291 -0.3924  0.5808
 6821TIP3   OH241877   3.907   1.291  11.893 -0.1742  0.0327  0.1607
 6821TIP3    H141878   3.982   1.317  11.841  1.5142 -2.2974  1.2708
 6821TIP3    H241879   3.910   1.348  11.970  1.2476 -0.8334  0.7874
 6822TIP3   OH241880   5.296   0.523   9.778 -0.3455  0.4595 -0.0063
 6822TIP3    H141881   5.291   0.504   9.871  0.3319  1.9652  0.3772
 6822TIP3    H241882   5.270   0.615   9.771 -0.4296  0.3523 -1.3042
 6823TIP3   OH241883   1.540   4.003  14.720 -0.3400 -0.2959 -0.0592
 6823TIP3    H141884   1.530   3.917  14.761  0.0922 -0.2797  0.0834
 6823TIP3    H241885   1.488   3.997  14.639 -3.1315  0.4148  1.5201
 6824TIP3   OH241886   4.870   0.746   1.400  0.4672 -0.5314 -0.5607
 6824TIP3    H141887   4.905   0.835   1.397 -0.3688 -0.1965 -0.7701
 6824TIP3    H241888   4.898   0.712   1.485  1.7408 -0.4828 -0.9476
 6825TIP3   OH241889   2.202   1.864  12.400 -0.0816  0.2582  0.0636
 6825TIP3    H141890   2.107   1.868  12.394 -0.0795  2.9792  0.6867
 6825TIP3    H241891   2.220   1.854  12.494  0.1993  2.1050  0.2543
 6826TIP3   OH241892   4.921   2.598  11.904 -0.2860  0.4483 -0.7228
 6826TIP3    H141893   4.946   2.561  11.989  0.7805  1.7485 -0.4346
 6826TIP3    H241894   4.963   2.683  11.901 -0.6974  0.6434 -2.3740
 6827TIP3   OH241895   2.868   0.383  14.726 -0.1218 -0.2874  0.2254
 6827TIP3    H141896   2.896   0.416  14.641 -2.0615  0.0065 -0.3503
 6827TIP3    H241897   2.878   0.288  14.719 -0.1472 -0.2561 -0.2832
 6828TIP3   OH241898   1.654   1.964   2.028 -0.4846 -0.4982 -0.0680
 6828TIP3    H141899   1.729   1.946   1.972 -0.0588 -0.8963  0.6200
 6828TIP3    H241900   1.685   2.028   2.091 -1.2873  0.8272 -0.9601
 6829TIP3   OH241901   1.917   1.209   2.444 -0.1418  0.3721 -0.4623
 6829TIP3    H141902   1.922   1.210   2.348  0.4177 -0.2558 -0.4415
 6829TIP3    H241903   1.973   1.282   2.472 -0.6564  0.8379 -0.6185
 6830TIP3   OH241904   1.761   6.934   5.034  0.1199  0.1911 -0.0894
 6830TIP3    H141905   1.789   6.985   5.109 -1.3527  0.9573 -0.0320
 6830TIP3    H241906   1.739   6.848   5.070 -0.4246  0.5062  0.3378
 6831TIP3   OH241907   6.683   4.114  13.418  0.2529  0.1021 -0.4159
 6831TIP3    H141908   6.614   4.148  13.475 -0.6016 -0.9270 -0.8087
 6831TIP3    H241909   6.678   4.169  13.340 -1.3012 -1.0112 -1.1589
 6832TIP3   OH241910   3.073   6.676   0.996  0.1612  0.0658 -0.3366
 6832TIP3    H141911   3.102   6.757   1.038  0.7017  0.2290 -0.9997
 6832TIP3    H241912   3.150   6.645   0.949 -0.2414 -0.4690 -0.6552
 6833TIP3   OH241913   2.418   3.343   1.796  0.1435 -0.4121  0.2387
 6833TIP3    H141914   2.463   3.407   1.851 -1.1827  1.2747 -0.5403
 6833TIP3    H241915   2.462   3.349   1.711 -1.3178  1.0775 -0.4587
 6834TIP3   OH241916   1.728   1.570   1.442 -0.3224 -0.1658 -0.0796
 6834TIP3    H141917   1.665   1.559   1.370  0.0402 -1.7685 -0.2040
 6834TIP3    H241918   1.694   1.514   1.512 -0.3925  0.9753  0.8304
 6835TIP3   OH241919   3.522   1.488  13.204 -0.0238 -0.1107 -0.0358
 6835TIP3    H141920   3.522   1.463  13.112  0.7564  1.3094 -0.4507
 6835TIP3    H241921   3.457   1.558  13.209  1.9558  1.8253 -0.1374
 6836TIP3   OH241922   6.357   3.287  11.281 -0.4293 -0.2961  0.6853
 6836TIP3    H141923   6.400   3.335  11.352 -0.5887 -0.7723  1.1139
 6836TIP3    H241924   6.426   3.232  11.245  0.0541  1.0897 -0.5847
 6837TIP3   OH241925   1.860   3.094   2.690 -0.4272  0.4621  0.0599
 6837TIP3    H141926   1.824   3.006   2.676  0.7790 -0.0114 -0.2897
 6837TIP3    H241927   1.914   3.085   2.769  0.2214  0.7020 -0.3425
 6838TIP3   OH241928   1.380   2.173   4.626 -0.0580  0.2192  0.3264
 6838TIP3    H141929   1.291   2.154   4.657  0.0107  1.7104  1.5063
 6838TIP3    H241930   1.372   2.256   4.579  0.9395  1.1175  1.6812
 6839TIP3   OH241931   2.908   0.464   2.775 -0.0185  0.1891  0.0116
 6839TIP3    H141932   3.003   0.452   2.771  0.2186 -0.1378  3.5366
 6839TIP3    H241933   2.874   0.378   2.801 -1.0444  0.7672  0.6767
 6840TIP3   OH241934   1.581   2.988   3.152 -0.0457 -0.4146  0.4059
 6840TIP3    H141935   1.592   3.041   3.230  2.5984 -0.0263 -0.1604
 6840TIP3    H241936   1.508   3.028   3.106 -0.1429  0.7635  1.5304
 6841TIP3   OH241937   1.394   2.739  11.440  0.3583  0.0732  0.3448
 6841TIP3    H141938   1.385   2.814  11.381 -0.1942  2.2837  3.0416
 6841TIP3    H241939   1.347   2.765  11.519  1.2806 -2.6107  1.8983
 6842TIP3   OH241940   3.372   6.819  11.093 -0.1912 -0.5173  0.4613
 6842TIP3    H141941   3.460   6.782  11.089  0.1714  0.3362  0.3680
 6842TIP3    H241942   3.336   6.787  11.175 -0.1144 -1.5576  0.1094
 6843TIP3   OH241943   3.589   1.960   4.660 -0.2592  0.0949 -0.0242
 6843TIP3    H141944   3.609   1.871   4.633  1.9525  0.9747 -1.6317
 6843TIP3    H241945   3.674   2.001   4.674 -1.0337  2.6543 -1.9333
 6844TIP3   OH241946   5.743   4.251  10.160 -0.2547 -0.1431 -0.2602
 6844TIP3    H141947   5.704   4.310  10.225  0.9817  0.5210 -0.0874
 6844TIP3    H241948   5.735   4.298  10.077  1.2033  0.5416 -0.0423
 6845TIP3   OH241949   2.922   2.982  14.999  0.1905  0.6099 -0.2837
 6845TIP3    H141950   3.003   2.990  14.948  0.4130 -0.1264 -0.0665
 6845TIP3    H241951   2.923   3.057  15.058  0.7342  0.5850 -0.2545
 6846TIP3   OH241952   5.714   6.535  10.296  0.0498 -0.4033 -0.7009
 6846TIP3    H141953   5.679   6.455  10.336  1.2923 -0.8960 -0.5468
 6846TIP3    H241954   5.773   6.504  10.227  2.7476  0.2077  1.1504
 6847TIP3   OH241955   5.012   3.371  11.987 -0.7138  0.0865 -0.4423
 6847TIP3    H141956   5.042   3.404  11.903  0.4963  0.9948  0.3049
 6847TIP3    H241957   5.005   3.449  12.042 -1.4704 -0.4884  0.3133
 6848TIP3   OH241958   2.560   5.860   1.541  0.1764 -0.3489  0.3334
 6848TIP3    H141959   2.531   5.800   1.610 -3.8786  2.4464  1.3891
 6848TIP3    H241960   2.495   5.850   1.472  0.4050  1.5118 -0.2040
 6849TIP3   OH241961   5.097   3.777  14.454 -0.3402 -0.5822 -0.2394
 6849TIP3    H141962   5.115   3.732  14.536  1.0658 -0.6054 -0.5326
 6849TIP3    H241963   5.086   3.869  14.479  0.8370 -0.4698 -0.0987
 6850TIP3   OH241964   0.923   4.639   0.180  0.1126  0.6074  0.3340
 6850TIP3    H141965   0.953   4.552   0.154 -0.7219 -0.0393  1.4742
 6850TIP3    H241966   0.894   4.680   0.098 -0.6367 -0.6397 -0.0454
 6851TIP3   OH241967   4.193   6.141  14.978  0.8057  0.2244  0.1849
 6851TIP3    H141968   4.224   6.073  14.918  2.2575  0.5862  0.4835
 6851TIP3    H241969   4.138   6.198  14.923  1.3207  0.0072 -0.5670
 6852TIP3   OH241970   2.255   1.516  11.952 -0.2951 -0.1301  0.1152
 6852TIP3    H141971   2.317   1.533  11.881 -0.8058 -1.6001 -0.7301
 6852TIP3    H241972   2.178   1.478  11.908 -0.5546 -1.2205  1.4501
 6853TIP3   OH241973   1.579   3.550  13.902  0.5203  0.0442  0.3516
 6853TIP3    H141974   1.641   3.552  13.974  1.3069 -1.2591 -0.2668
 6853TIP3    H241975   1.608   3.620  13.844  2.2040 -1.3251 -0.5368
 6854TIP3   OH241976   5.376   6.650  11.918  0.8477 -0.4057 -0.3893
 6854TIP3    H141977   5.438   6.723  11.915 -0.7435  1.0806  0.5964
 6854TIP3    H241978   5.338   6.648  11.830  0.0427  0.7896 -0.0919
 6855TIP3   OH241979   5.667   4.137   2.015  0.2780 -0.3021  0.1374
 6855TIP3    H141980   5.602   4.200   1.983  0.6636  0.7484  1.3256
 6855TIP3    H241981   5.618   4.056   2.028 -0.2367 -0.2823 -1.4075
 6856TIP3   OH241982   0.801   5.777   0.344  0.2246 -0.2156 -0.9682
 6856TIP3    H141983   0.802   5.854   0.287 -1.2178  1.1684  0.7786
 6856TIP3    H241984   0.740   5.717   0.301 -0.5414  0.6428 -1.1117
 6857TIP3   OH241985   0.239   0.706  13.967 -0.2413 -0.3702 -0.2230
 6857TIP3    H141986   0.242   0.793  13.927  1.8798 -0.4313 -0.3329
 6857TIP3    H241987   0.241   0.723  14.061 -0.1259 -0.2907 -0.2403
 6858TIP3   OH241988   0.671   3.197   4.319  0.4345  0.3168  0.2451
 6858TIP3    H141989   0.585   3.228   4.290 -0.2473 -1.5876  0.1373
 6858TIP3    H241990   0.655   3.154   4.403  0.8630 -1.9436 -0.7588
 6859TIP3   OH241991   5.370   3.294  13.791 -0.0440  0.1783  0.0431
 6859TIP3    H141992   5.442   3.237  13.765 -1.1581  0.1967 -3.6783
 6859TIP3    H241993   5.391   3.379  13.751 -1.5764  0.5068 -0.1322
 6860TIP3   OH241994   5.981   7.113   9.786 -0.2734  0.1301 -0.0590
 6860TIP3    H141995   5.982   7.203   9.819 -0.7898  0.2859 -0.4538
 6860TIP3    H241996   5.979   7.122   9.691 -1.0595 -0.2886 -0.0882
 6861TIP3   OH241997   6.090   7.047  15.331  0.9272  0.1106  0.0666
 6861TIP3    H141998   6.146   6.982  15.374  0.2871 -0.3239  0.2521
 6861TIP3    H241999   6.025   6.995  15.285 -1.1469  0.6169  2.2535
 6862TIP3   OH242000   2.640   0.999   4.631  0.2732 -0.6061  0.1924
 6862TIP3    H142001   2.662   0.996   4.724  0.1756 -1.0443  0.2052
 6862TIP3    H242002   2.713   0.953   4.589  0.0483 -0.8851  0.1057
 6863TIP3   OH242003   6.320   2.767  12.041  0.0518 -0.8033 -0.5622
 6863TIP3    H142004   6.295   2.767  12.134 -0.5923 -2.8877 -0.6893
 6863TIP3    H242005   6.341   2.676  12.022  0.8036 -0.2937 -2.3222
 6864TIP3   OH242006   4.142   4.472   3.931  0.1256 -0.2644 -0.1815
 6864TIP3    H142007   4.157   4.482   4.025  1.7880  1.6097 -0.5859
 6864TIP3    H242008   4.050   4.446   3.925  0.0248 -0.6020  1.9556
 6865TIP3   OH242009   3.829   2.650  11.492 -0.4167 -0.4868 -0.3837
 6865TIP3    H142010   3.793   2.658  11.581 -0.8475 -0.0982 -0.5911
 6865TIP3    H242011   3.773   2.706  11.439  0.5046  0.1324 -0.7095
 6866TIP3   OH242012   5.068   3.406   2.016  0.0826 -0.3045  0.6171
 6866TIP3    H142013   5.061   3.373   1.926 -1.4632 -0.5326  0.7832
 6866TIP3    H242014   5.029   3.337   2.069 -3.3816  1.6536  0.9721
 6867TIP3   OH242015   0.861   6.872  11.749  0.1094  0.7121 -0.1300
 6867TIP3    H142016   0.925   6.800  11.752 -0.7225 -0.2958 -2.9044
 6867TIP3    H242017   0.892   6.934  11.815  2.3668 -0.9702  0.5547
 6868TIP3   OH242018   4.933   4.491   1.993 -0.0589 -0.6916 -0.2122
 6868TIP3    H142019   4.894   4.573   2.022 -1.9584 -1.6199  0.0203
 6868TIP3    H242020   4.866   4.449   1.939  0.2205 -2.8094  0.9638
 6869TIP3   OH242021   5.511   3.376   1.030  0.4308  0.3271  0.2419
 6869TIP3    H142022   5.558   3.306   1.075  1.1459 -0.1208 -1.1618
 6869TIP3    H242023   5.444   3.403   1.092  0.3418 -1.3896  0.9474
 6870TIP3   OH242024   4.636   4.859  12.362 -0.3031 -0.1032 -0.1361
 6870TIP3    H142025   4.687   4.841  12.283  0.3598 -1.1115  0.5060
 6870TIP3    H242026   4.695   4.840  12.434 -1.4982 -1.0555  0.6329
 6871TIP3   OH242027   5.568   7.097  13.976  0.6812 -0.8082 -0.3394
 6871TIP3    H142028   5.562   7.013  13.931  1.2446  0.2739 -2.5463
 6871TIP3    H242029   5.506   7.154  13.930  2.3417  0.7530 -0.7310
 6872TIP3   OH242030   4.868   0.688   0.965 -0.4107 -0.3202  0.1903
 6872TIP3    H142031   4.862   0.783   0.954  0.5238 -0.2715 -0.0197
 6872TIP3    H242032   4.960   0.672   0.988 -0.2846 -1.2627 -0.8462
 6873TIP3   OH242033   3.546   1.688  11.463  0.4986 -0.8292 -1.1231
 6873TIP3    H142034   3.606   1.670  11.390  2.3104 -0.9469  0.3328
 6873TIP3    H242035   3.541   1.606  11.511  0.0083 -0.5081 -0.6177
 6874TIP3   OH242036   2.192   2.286  14.539 -0.5093 -0.4197  0.3627
 6874TIP3    H142037   2.239   2.205  14.518 -1.7498 -0.9451 -0.5433
 6874TIP3    H242038   2.249   2.356  14.507 -0.6113 -1.0672 -1.3360
 6875TIP3   OH242039   5.559   3.718   3.458 -0.4496 -0.0080 -0.6055
 6875TIP3    H142040   5.467   3.739   3.445 -0.5755 -0.3414 -0.2849
 6875TIP3    H242041   5.581   3.758   3.543 -0.2796  0.1350 -0.7165
 6876TIP3   OH242042   5.556   5.600   2.778  0.0566 -0.1594 -0.0271
 6876TIP3    H142043   5.582   5.670   2.838  2.1499 -1.0852  0.2431
 6876TIP3    H242044   5.463   5.587   2.794  0.1658  0.9127  1.6491
 6877TIP3   OH242045   3.556   1.677  11.829  0.6201  0.0386 -0.0868
 6877TIP3    H142046   3.580   1.738  11.759  1.2900 -1.3908 -1.1602
 6877TIP3    H242047   3.544   1.593  11.784  1.5301 -1.0261  1.5751
 6878TIP3   OH242048   4.693   0.391   2.213  0.0573 -0.2141  0.4106
 6878TIP3    H142049   4.660   0.336   2.284  0.9249  0.2688  1.2058
 6878TIP3    H242050   4.781   0.417   2.241  0.5218 -0.2249 -0.9610
 6879TIP3   OH242051   4.653   5.234  11.891 -0.4232 -0.1514  0.1271
 6879TIP3    H142052   4.717   5.166  11.911  0.7276  0.7223 -0.4587
 6879TIP3    H242053   4.587   5.190  11.838  1.7955 -0.2761 -2.8021
 6880TIP3   OH242054   0.940   2.276   4.562  0.1769  0.2289 -0.3500
 6880TIP3    H142055   0.847   2.262   4.544 -0.1491 -0.1428  1.4107
 6880TIP3    H242056   0.942   2.310   4.651  1.7742 -0.5931 -0.0337
 6881TIP3   OH242057   4.113   0.328   3.959 -0.2700  0.0466 -0.0039
 6881TIP3    H142058   4.197   0.327   4.005 -1.1839  0.4035  1.7738
 6881TIP3    H242059   4.106   0.241   3.920  0.8877 -0.0067 -0.1255
 6882TIP3   OH242060   4.197   5.312  12.936  0.6839  0.5045 -0.3195
 6882TIP3    H142061   4.143   5.235  12.957  1.5160 -0.2867 -0.9688
 6882TIP3    H242062   4.250   5.325  13.015  1.2173 -0.1993 -0.5481
 6883TIP3   OH242063   3.457   4.456  11.934  0.0926  0.0883  0.0401
 6883TIP3    H142064   3.531   4.399  11.954  1.8601  2.2201 -0.0068
 6883TIP3    H242065   3.383   4.417  11.980  0.9962 -2.6064 -0.6112
 6884TIP3   OH242066   3.275   3.062  11.936 -0.2695  0.5396  0.0775
 6884TIP3    H142067   3.363   3.073  11.901  0.2903  0.5627  1.4355
 6884TIP3    H242068   3.251   2.972  11.912 -0.6660  1.1186 -1.9114
 6885TIP3   OH242069   2.041   5.571  11.767 -0.1235 -0.1840 -0.1931
 6885TIP3    H142070   2.061   5.583  11.675 -1.2692  1.6814 -0.2590
 6885TIP3    H242071   1.946   5.563  11.770  0.0457 -3.6074  0.5728
 6886TIP3   OH242072   6.826   2.270  11.329  0.2039  0.0431  0.7107
 6886TIP3    H142073   6.836   2.363  11.348 -1.3168  0.3091  0.3056
 6886TIP3    H242074   6.761   2.240  11.392 -1.1211 -0.1853 -0.7048
 6887TIP3   OH242075   1.027   3.241   5.525  0.1080  0.3664 -0.2051
 6887TIP3    H142076   0.968   3.316   5.518  0.4263  0.7403  0.8810
 6887TIP3    H242077   1.115   3.278   5.511  0.2157  0.0776 -0.3057
 6888TIP3   OH242078   5.565   2.764  12.703  0.1363 -0.3092 -1.0789
 6888TIP3    H142079   5.591   2.846  12.744  1.2154 -1.2236  0.1405
 6888TIP3    H242080   5.604   2.696  12.758 -0.8401 -1.6495 -1.9794
 6889TIP3   OH242081   0.751   6.915  14.311 -0.3479 -0.4012  0.2189
 6889TIP3    H142082   0.738   6.822  14.293 -0.8511 -0.0279 -1.5032
 6889TIP3    H242083   0.673   6.958  14.277  0.1144  0.7086  0.4962
 6890TIP3   OH242084   2.044   3.104  12.338 -0.1228 -0.0731 -0.1948
 6890TIP3    H142085   2.108   3.057  12.392  1.7247  0.1594 -2.0869
 6890TIP3    H242086   2.020   3.180  12.390  0.1216 -0.8383  1.0942
 6891TIP3   OH242087   0.087   1.883   3.573  0.5860  0.5135 -0.2046
 6891TIP3    H142088   0.008   1.829   3.575  0.7114  0.2163 -1.8674
 6891TIP3    H242089   0.098   1.912   3.663 -0.2619 -1.1113  0.4692
 6892TIP3   OH242090   1.616   3.583  10.951 -0.3189 -0.0395  0.7637
 6892TIP3    H142091   1.548   3.576  11.018 -0.1313 -0.7318  0.8895
 6892TIP3    H242092   1.605   3.504  10.898  0.3764 -0.1528  0.7814
 6893TIP3   OH242093   3.038   3.512  12.316 -0.2262 -0.2710 -0.5186
 6893TIP3    H142094   3.024   3.545  12.227 -0.5677  1.0091 -0.0175
 6893TIP3    H242095   3.131   3.492  12.321  0.4264  2.4846 -0.2921
 6894TIP3   OH242096   2.838   1.094  10.194  1.0136  0.2276  0.2685
 6894TIP3    H142097   2.898   1.138  10.135  1.0996  1.2361  1.0790
 6894TIP3    H242098   2.839   1.003  10.165 -1.3035  1.1252 -3.2605
 6895TIP3   OH242099   3.950   4.831   3.700 -0.6330 -0.1999 -1.1800
 6895TIP3    H142100   3.926   4.741   3.721 -1.4069  0.3231  0.3661
 6895TIP3    H242101   4.042   4.827   3.675  0.0365 -1.1271  1.2200
 6896TIP3   OH242102   5.228   5.698  10.662  0.3301  0.4737 -0.1045
 6896TIP3    H142103   5.221   5.639  10.587 -0.1404  1.2007 -0.6483
 6896TIP3    H242104   5.137   5.723  10.681  0.1387 -1.5923  2.2907
 6897TIP3   OH242105   5.459   2.627   0.765  0.2017  0.5777 -0.1655
 6897TIP3    H142106   5.538   2.582   0.735  0.3266  0.8957 -0.3303
 6897TIP3    H242107   5.471   2.637   0.859 -1.2051 -2.4212  0.4345
 6898TIP3   OH242108   4.942   0.817   0.133  0.1229  0.4748  0.1573
 6898TIP3    H142109   4.956   0.778   0.219  0.2068  1.5164  0.6204
 6898TIP3    H242110   4.961   0.910   0.144 -0.8464  0.8019 -0.7487
 6899TIP3   OH242111   0.584   4.760  12.725 -0.0556 -0.5688 -0.1297
 6899TIP3    H142112   0.522   4.728  12.790 -1.6416 -0.6809 -1.6431
 6899TIP3    H242113   0.621   4.839  12.765 -1.6852 -0.1013  0.5473
 6900TIP3   OH242114   2.083   2.752   2.454 -0.2281 -0.0776 -0.0807
 6900TIP3    H142115   1.990   2.771   2.445 -0.1725 -0.4914 -1.8305
 6900TIP3    H242116   2.120   2.771   2.368  0.9097 -2.0015 -0.0764
 6901TIP3   OH242117   2.561   5.261  13.472  0.4191  0.8613 -0.2683
 6901TIP3    H142118   2.566   5.181  13.524  1.8399  0.9167 -0.2788
 6901TIP3    H242119   2.499   5.240  13.402  0.2555  0.0152  0.1139
 6902TIP3   OH242120   6.620   0.998  10.400  0.2480  0.6266 -0.3022
 6902TIP3    H142121   6.582   0.977  10.485  2.3352  2.7658  1.3001
 6902TIP3    H242122   6.560   1.061  10.361 -0.6468 -0.2526 -0.3743
 6903TIP3   OH242123   2.142   6.576   5.511 -0.3300 -0.1927  0.1120
 6903TIP3    H142124   2.196   6.505   5.476 -0.8027  0.2073 -1.4876
 6903TIP3    H242125   2.065   6.532   5.548  0.9567 -0.7531  2.2722
 6904TIP3   OH242126   3.939   5.095  10.883 -0.0851  0.1243 -0.2006
 6904TIP3    H142127   3.944   5.187  10.857 -0.8241  0.3797  0.5349
 6904TIP3    H242128   3.945   5.046  10.800  0.2885  0.8216 -0.5947
 6905TIP3   OH242129   6.831   1.971  13.147  0.0388 -0.2299  0.4748
 6905TIP3    H142130   6.783   1.974  13.064  2.2283  1.0556 -0.8867
 6905TIP3    H242131   6.917   1.937  13.122  1.4919  2.2283  1.7227
 6906TIP3   OH242132   1.630   4.962  11.846  0.7280 -0.8770  0.0023
 6906TIP3    H142133   1.714   4.917  11.859  0.1522 -3.3866 -3.5137
 6906TIP3    H242134   1.654   5.047  11.808  1.6742 -0.3145  1.7369
 6907TIP3   OH242135   2.002   2.387  15.474  0.1557 -0.4474  0.5788
 6907TIP3    H142136   1.951   2.370  15.554 -3.6860  1.6607 -1.1301
 6907TIP3    H242137   2.009   2.301  15.432  1.1726 -1.3811  2.5138
 6908TIP3   OH242138   6.106   1.832  10.721  0.7319 -0.0877 -0.0296
 6908TIP3    H142139   6.162   1.902  10.755  1.0209  0.0946 -0.8616
 6908TIP3    H242140   6.161   1.786  10.659 -0.2410  0.5379 -1.4088
 6909TIP3   OH242141   0.946   7.101  10.882  0.7864  0.1575 -0.0054
 6909TIP3    H142142   0.936   7.193  10.908  3.2925  1.3705 -2.7095
 6909TIP3    H242143   1.039   7.084  10.892  0.6632 -1.4957 -1.3294
 6910TIP3   OH242144   4.568   0.640  10.316 -0.0126  0.0776  0.0988
 6910TIP3    H142145   4.597   0.687  10.238  1.5506 -1.4942 -0.3271
 6910TIP3    H242146   4.617   0.557  10.314 -0.4639 -0.3074  2.3774
 6911TIP3   OH242147   4.055   1.954   0.399  0.0868  0.0741  0.1701
 6911TIP3    H142148   3.960   1.964   0.393 -0.1431 -1.1787  1.3067
 6911TIP3    H242149   4.082   1.927   0.311 -1.0345 -2.4467  0.5113
 6912TIP3   OH242150   1.375   4.332  13.961 -0.5756  0.3328 -0.1764
 6912TIP3    H142151   1.378   4.269  13.890  0.8116  0.6618 -0.4498
 6912TIP3    H242152   1.366   4.417  13.918 -2.1372  0.3657  0.1732
 6913TIP3   OH242153   1.442   2.799  12.715 -0.3106 -0.0174 -0.9110
 6913TIP3    H142154   1.483   2.886  12.714  0.3406 -0.3151 -0.7208
 6913TIP3    H242155   1.443   2.771  12.623  0.1466 -0.1275 -0.8745
 6914TIP3   OH242156   2.869   1.866  14.853 -0.7659 -0.6273 -0.2418
 6914TIP3    H142157   2.874   1.959  14.874 -0.7671 -0.6930  0.0575
 6914TIP3    H242158   2.777   1.851  14.831 -0.9764 -0.7638  0.7082
 6915TIP3   OH242159   0.516   5.411   1.761 -0.1092  0.2247 -0.3069
 6915TIP3    H142160   0.540   5.493   1.716  0.4143 -0.2096 -0.8341
 6915TIP3    H242161   0.449   5.437   1.824 -0.2910  0.9872 -0.7970
 6916TIP3   OH242162   6.381   6.222  15.360 -0.1954  0.6059 -0.6028
 6916TIP3    H142163   6.438   6.163  15.410  2.6363  2.2422 -1.6218
 6916TIP3    H242164   6.336   6.166  15.297  0.0279 -0.8214  0.4677
 6917TIP3   OH242165   7.117   3.607  13.007 -0.6032 -0.4462 -0.0591
 6917TIP3    H142166   7.030   3.570  12.996 -0.6285 -0.4894  0.2670
 6917TIP3    H242167   7.101   3.701  13.020 -0.5746 -0.3965 -0.3631
 6918TIP3   OH242168   6.496   0.983  15.181 -0.5834  0.2606  0.1321
 6918TIP3    H142169   6.433   0.977  15.109 -1.5888  0.4695  0.9613
 6918TIP3    H242170   6.533   0.895  15.187 -0.1774  0.3573 -0.9067
 6919TIP3   OH242171   0.324   2.117  11.548 -0.2213  0.1442 -0.2623
 6919TIP3    H142172   0.371   2.037  11.524 -1.6115 -0.2797 -1.8373
 6919TIP3    H242173   0.255   2.124  11.481 -0.9829  1.9180  0.6524
 6920TIP3   OH242174   3.843   6.574  12.353  0.5982  0.3927 -0.0981
 6920TIP3    H142175   3.889   6.535  12.428 -0.5720 -0.5368  0.1713
 6920TIP3    H242176   3.895   6.651  12.330  1.3290  0.3373  1.2658
 6921TIP3   OH242177   2.176   7.060   3.743  0.9305 -0.7166  0.1117
 6921TIP3    H142178   2.233   6.983   3.743  0.6943 -0.9606 -2.3486
 6921TIP3    H242179   2.090   7.026   3.719  0.3213  0.0497  1.1161
 6922TIP3   OH242180   1.905   3.857   0.876  0.4121  0.1581 -0.0835
 6922TIP3    H142181   1.887   3.796   0.947  3.0295 -2.0292 -1.1406
 6922TIP3    H242182   1.850   3.828   0.804  0.6600 -0.1074 -0.1663
 6923TIP3   OH242183   1.965   6.922   2.006  0.1059 -0.2954  0.4284
 6923TIP3    H142184   2.017   6.938   2.085  0.5807  0.5059 -0.0273
 6923TIP3    H242185   1.937   6.831   2.014 -0.2071 -0.1159  1.7211
 6924TIP3   OH242186   5.598   0.148  10.201 -0.0249 -0.3397  0.1111
 6924TIP3    H142187   5.655   0.074  10.221 -0.8009 -0.9755  0.0404
 6924TIP3    H242188   5.541   0.116  10.131 -0.0683  0.4807 -0.2402
 6925TIP3   OH242189   6.695   3.188  15.180  0.4348 -0.7812  0.1779
 6925TIP3    H142190   6.694   3.098  15.147  1.7079 -0.8014  0.1259
 6925TIP3    H242191   6.657   3.182  15.267  0.1953 -1.3185  0.0410
 6926TIP3   OH242192   7.037   4.550  10.851 -0.1166 -0.2370  0.2882
 6926TIP3    H142193   6.943   4.536  10.848 -0.2849  0.6618  1.0291
 6926TIP3    H242194   7.058   4.553  10.945  0.4092  1.0798  0.1480
 6927TIP3   OH242195   3.499   3.148   3.694 -0.0616  0.6258  0.3758
 6927TIP3    H142196   3.515   3.122   3.784 -1.3885  1.0675  0.7681
 6927TIP3    H242197   3.563   3.217   3.677  2.0557 -1.3050  0.0264
 6928TIP3   OH242198   5.104   6.012  14.673  0.0771 -0.3737  0.0057
 6928TIP3    H142199   5.043   6.083  14.691  0.5103  0.7194 -2.3485
 6928TIP3    H242200   5.186   6.041  14.713 -0.3785 -0.7969  1.2717
 6929TIP3   OH242201   0.195   2.310  11.938 -0.2530 -0.3208 -0.1004
 6929TIP3    H142202   0.257   2.365  11.889  0.8979 -0.4858  1.1137
 6929TIP3    H242203   0.232   2.222  11.932 -0.2583 -0.3878  0.8103
 6930TIP3   OH242204   3.310   3.412  13.810 -0.5598 -0.3005  0.3382
 6930TIP3    H142205   3.371   3.457  13.752 -1.6395 -1.6440 -2.0043
 6930TIP3    H242206   3.326   3.319  13.795  0.1349 -0.7717  3.4178
 6931TIP3   OH242207   5.759   3.767  14.600  0.4035  0.5552  0.1111
 6931TIP3    H142208   5.826   3.799  14.661  0.5207  0.8750 -0.1834
 6931TIP3    H242209   5.742   3.677  14.628  0.8306  0.5303  0.2955
 6932TIP3   OH242210   3.812   5.180  11.553 -0.1248  0.2185  0.3778
 6932TIP3    H142211   3.716   5.173  11.546 -0.0046 -0.4752 -0.8880
 6932TIP3    H242212   3.834   5.260  11.505  0.0263 -0.3593 -0.5530
 6933TIP3   OH242213   0.752   2.869  11.627 -0.4728  0.0277  0.1237
 6933TIP3    H142214   0.716   2.878  11.539 -0.9460 -1.5136  0.1379
 6933TIP3    H242215   0.770   2.959  11.654 -1.9252  0.6603 -0.8648
 6934TIP3   OH242216   5.141   0.526  10.936 -0.3931  0.5289 -0.2233
 6934TIP3    H142217   5.057   0.568  10.916 -0.9272 -0.6327 -0.5226
 6934TIP3    H242218   5.124   0.432  10.923  0.9398  0.2750 -0.2262
 6935TIP3   OH242219   0.869   6.644  14.286  0.3109 -0.0598 -0.8192
 6935TIP3    H142220   0.859   6.594  14.205  0.2164  0.5840 -1.2071
 6935TIP3    H242221   0.918   6.585  14.344  0.3377 -0.5424 -1.3215
 6936TIP3   OH242222   4.847   1.413   9.975 -0.2760 -0.4172  0.2961
 6936TIP3    H142223   4.798   1.331   9.974 -1.8604  0.4858 -0.4715
 6936TIP3    H242224   4.780   1.481   9.963  1.2878  0.8149 -2.0754
 6937TIP3   OH242225   3.998   1.982  11.985 -0.1993 -0.0590  0.0794
 6937TIP3    H142226   3.998   1.998  11.891  0.1629  0.8880  0.2276
 6937TIP3    H242227   4.091   1.971  12.007 -0.2163  0.5044  0.4465
 6938TIP3   OH242228   1.605   4.832  13.197  0.0894 -0.6462  0.0731
 6938TIP3    H142229   1.562   4.746  13.193  0.6151 -1.0736  2.2912
 6938TIP3    H242230   1.593   4.861  13.288  1.5392  0.7765 -0.1383
 6939TIP3   OH242231   3.621   6.122  14.570  0.2031  0.4528  0.3660
 6939TIP3    H142232   3.604   6.028  14.581  1.1695  0.0361 -1.3531
 6939TIP3    H242233   3.713   6.127  14.546  0.4665  1.9657  1.5777
 6940TIP3   OH242234   4.293   1.696   5.453 -0.0710  0.2777  0.3678
 6940TIP3    H142235   4.336   1.738   5.527  0.4465  1.3336 -0.5134
 6940TIP3    H242236   4.200   1.706   5.471  0.0364 -0.2752  1.3095
 6941TIP3   OH242237   4.858   5.097   1.051  0.3010  0.4773 -0.1620
 6941TIP3    H142238   4.770   5.131   1.066  0.9171  1.2196  2.0538
 6941TIP3    H242239   4.858   5.010   1.090 -0.1624 -0.6947 -2.5431
 6942TIP3   OH242240   1.640   2.817  15.305 -0.0890 -0.0035  0.0732
 6942TIP3    H142241   1.584   2.892  15.282 -1.5214 -1.4090 -1.2605
 6942TIP3    H242242   1.672   2.838  15.393 -3.4118  0.5640  1.3158
 6943TIP3   OH242243   3.715   3.173   3.372 -0.3665  0.3734  0.3334
 6943TIP3    H142244   3.738   3.223   3.450  1.8161  2.0173 -1.2502
 6943TIP3    H242245   3.624   3.147   3.387 -0.8448  2.7617  2.3356
 6944TIP3   OH242246   4.068   5.761   0.301  0.4849  0.9228 -0.2117
 6944TIP3    H142247   4.117   5.722   0.373 -1.1626  1.6023  1.3368
 6944TIP3    H242248   4.049   5.687   0.242  3.0402  0.6070 -0.7259
 6945TIP3   OH242249   5.039   3.786   9.538 -0.3728 -0.6154  0.3265
 6945TIP3    H142250   4.956   3.779   9.490 -0.6757 -0.1531  0.7766
 6945TIP3    H242251   5.013   3.803   9.629  0.2184  0.7496  0.2692
 6946TIP3   OH242252   1.473   0.121   2.781  0.3507 -0.0061 -0.3232
 6946TIP3    H142253   1.466   0.031   2.811 -2.0719 -0.0397 -0.7621
 6946TIP3    H242254   1.399   0.166   2.822  2.3055  2.1941  1.0714
 6947TIP3   OH242255   1.028   0.662   4.451 -0.4043  0.2027  0.5161
 6947TIP3    H142256   1.021   0.718   4.528 -1.0171 -0.2667  0.8098
 6947TIP3    H242257   1.115   0.622   4.458  0.2562  1.5138  0.0169
 6948TIP3   OH242258   4.360   0.987  14.240  0.4904  0.2278 -0.2411
 6948TIP3    H142259   4.285   1.021  14.289  0.7321  0.5350 -0.0841
 6948TIP3    H242260   4.392   0.914  14.293 -1.2788 -1.6332 -1.5636
 6949TIP3   OH242261   5.523   5.779   1.777 -0.1916  0.1102  0.4707
 6949TIP3    H142262   5.455   5.815   1.720  0.5273 -0.6036 -0.8775
 6949TIP3    H242263   5.549   5.697   1.736  2.3252  0.9156  0.2342
 6950TIP3   OH242264   6.451   6.827   2.598  0.2342 -0.5179 -0.6391
 6950TIP3    H142265   6.381   6.869   2.547  0.0470  0.6353  0.5178
 6950TIP3    H242266   6.416   6.741   2.619 -1.1481  0.2684  0.4577
 6951TIP3   OH242267   3.261   5.325   3.883 -0.4569  0.0132  0.2351
 6951TIP3    H142268   3.341   5.299   3.929 -0.7793  0.2794  0.9604
 6951TIP3    H242269   3.195   5.263   3.914 -0.7920  0.5101  0.5253
 6952TIP3   OH242270   3.824   2.354  13.011  0.3211  0.2273 -0.3213
 6952TIP3    H142271   3.911   2.377  13.041  1.1030 -0.8506 -1.6552
 6952TIP3    H242272   3.838   2.300  12.934 -1.5451  0.9963 -1.2856
 6953TIP3   OH242273   3.367   3.302  14.396  0.1460  0.5143  0.2541
 6953TIP3    H142274   3.385   3.307  14.490  0.4597 -0.1600  0.2324
 6953TIP3    H242275   3.445   3.338  14.354 -0.4965  2.0008  0.2670
 6954TIP3   OH242276   6.055   5.799   3.628  0.2962 -0.2269  0.2681
 6954TIP3    H142277   6.151   5.795   3.623  0.2095 -0.9773 -2.1347
 6954TIP3    H242278   6.030   5.714   3.664  0.5063 -0.7531 -0.7748
 6955TIP3   OH242279   4.207   3.237  15.487  0.2061 -0.1699 -0.2196
 6955TIP3    H142280   4.175   3.296  15.419  1.1475  1.3884  0.6233
 6955TIP3    H242281   4.290   3.275  15.514  0.1150 -1.0547  1.4285
 6956TIP3   OH242282   1.933   6.140  14.550 -0.0981  0.1944 -0.8690
 6956TIP3    H142283   2.013   6.098  14.519  0.3826 -1.1153  1.9124
 6956TIP3    H242284   1.874   6.136  14.475  1.8069 -0.4335 -2.4284
 6957TIP3   OH242285   0.076   6.833  10.093  0.4976 -0.7749 -0.3248
 6957TIP3    H142286   0.132   6.909  10.109 -0.4632 -0.0926 -0.0872
 6957TIP3    H242287   0.062   6.796  10.180 -0.9725  0.2144 -0.0946
 6958TIP3   OH242288   3.864   1.493  12.657 -0.2902  0.4635 -0.0549
 6958TIP3    H142289   3.943   1.482  12.709 -0.0495 -0.7041 -0.6367
 6958TIP3    H242290   3.891   1.471  12.567 -0.7812  2.0556 -0.6247
 6959TIP3   OH242291   5.582   5.668  11.843  0.0619 -0.2764 -0.4498
 6959TIP3    H142292   5.653   5.679  11.906  1.3281 -0.2469 -1.8369
 6959TIP3    H242293   5.510   5.720  11.879  1.6197  1.9570 -0.3228
 6960TIP3   OH242294   2.688   5.005  10.286  0.0735  0.0499 -1.0217
 6960TIP3    H142295   2.665   4.936  10.349  0.6747  0.1926 -0.6374
 6960TIP3    H242296   2.717   4.957  10.208  0.8368 -0.1512 -0.6290
 6961TIP3   OH242297   5.673   3.525  12.641 -0.1122  0.3430 -0.1559
 6961TIP3    H142298   5.711   3.594  12.695 -0.2928 -0.6804  1.3391
 6961TIP3    H242299   5.638   3.571  12.565 -1.7956  2.1735  1.5842
 6962TIP3   OH242300   1.313   0.009  12.333  0.1162  0.4748  0.3452
 6962TIP3    H142301   1.246  -0.015  12.397 -0.4365  0.7872 -0.1109
 6962TIP3    H242302   1.392   0.024  12.386  0.1353 -0.9805  0.7715
 6963TIP3   OH242303   6.424   0.221  13.056 -0.1784  0.1170 -0.2064
 6963TIP3    H142304   6.471   0.191  12.978 -2.0691 -2.0494 -0.6224
 6963TIP3    H242305   6.490   0.225  13.125  1.2770  0.7982 -1.5827
 6964TIP3   OH242306   6.846   0.593   1.730 -0.1410  0.2323 -0.4053
 6964TIP3    H142307   6.802   0.678   1.724  0.7994  0.7359 -0.3060
 6964TIP3    H242308   6.894   0.584   1.648 -0.3680 -0.2867 -0.4877
 6965TIP3   OH242309   3.849   0.926   2.630 -0.4696  0.2199 -0.0514
 6965TIP3    H142310   3.764   0.949   2.669 -0.7408 -1.1918  0.2635
 6965TIP3    H242311   3.910   0.925   2.704 -0.7655 -1.4240  0.2069
 6966TIP3   OH242312   4.699   3.635  12.430  0.0140 -0.5994 -0.0868
 6966TIP3    H142313   4.721   3.558  12.377 -0.5754 -1.4338  0.8322
 6966TIP3    H242314   4.777   3.690  12.425 -0.2475 -0.3452 -2.2924
 6967TIP3   OH242315   1.884   3.180  12.131 -0.5925  0.0584  0.0265
 6967TIP3    H142316   1.948   3.138  12.187 -1.0721  1.2167  1.5141
 6967TIP3    H242317   1.877   3.123  12.055  0.3319 -1.3840  0.9843
 6968TIP3   OH242318   2.155   4.522   3.789 -0.3087  0.3128  0.5810
 6968TIP3    H142319   2.155   4.590   3.721  0.2768 -0.3263 -0.0733
 6968TIP3    H242320   2.104   4.560   3.860  0.4900  1.6835  0.4594
 6969TIP3   OH242321   6.402   2.281   1.691 -0.3086  0.0250  0.0661
 6969TIP3    H142322   6.388   2.349   1.625  0.8535 -0.5614 -0.8190
 6969TIP3    H242323   6.362   2.202   1.654 -0.2984 -0.1366  0.3938
 6970TIP3   OH242324   6.938   1.342   2.589 -0.1421  0.3615  0.0789
 6970TIP3    H142325   6.980   1.284   2.653  1.8152  0.2472 -1.2220
 6970TIP3    H242326   6.932   1.427   2.634  1.7576  0.4409  0.2747
 6971TIP3   OH242327   4.910   5.189  11.362  0.2210 -0.2048 -0.2322
 6971TIP3    H142328   4.978   5.126  11.342 -0.2286 -0.4989 -0.8797
 6971TIP3    H242329   4.883   5.169  11.451  0.4657 -0.5601 -0.2386
 6972TIP3   OH242330   1.819   6.886  11.522  0.1412 -0.3626 -0.2203
 6972TIP3    H142331   1.766   6.849  11.593  2.7771 -1.0091  1.5928
 6972TIP3    H242332   1.820   6.980  11.540 -0.2185 -0.3716 -0.1430
 6973TIP3   OH242333   0.707   3.654  12.152 -0.0327  0.1348  0.2223
 6973TIP3    H142334   0.698   3.664  12.057 -0.6882 -0.0214  0.2627
 6973TIP3    H242335   0.784   3.706  12.174  0.1354  0.1615 -0.3964
 6974TIP3   OH242336   4.866   4.332  14.498 -0.1825 -0.0385 -0.6952
 6974TIP3    H142337   4.837   4.382  14.422 -1.5460 -1.4612 -1.1767
 6974TIP3    H242338   4.957   4.309  14.480  0.9340  3.2162  0.1084
 6975TIP3   OH242339   0.497   4.811  14.951  0.5288  0.2628  0.0455
 6975TIP3    H142340   0.564   4.746  14.970  0.5900  0.9796  2.7207
 6975TIP3    H242341   0.546   4.889  14.925  0.8760  0.8629  2.2340
 6976TIP3   OH242342   5.785   2.390  13.312 -0.5082  0.0436  0.2192
 6976TIP3    H142343   5.861   2.333  13.318 -0.1823  0.5036  0.5014
 6976TIP3    H242344   5.784   2.438  13.395 -0.2373  1.1211 -0.3794
 6977TIP3   OH242345   4.340   1.211   0.459 -0.2119  0.2293  0.0451
 6977TIP3    H142346   4.260   1.208   0.510 -0.5667 -1.7448 -0.5615
 6977TIP3    H242347   4.312   1.198   0.368  0.4982  2.7817 -0.6116
 6978TIP3   OH242348   2.001   6.591  11.147  0.3116 -0.1389  0.3535
 6978TIP3    H142349   1.998   6.627  11.236 -0.1801  0.0616  0.2589
 6978TIP3    H242350   1.924   6.533  11.142  1.6491 -2.0510  0.8519
 6979TIP3   OH242351   4.219   3.219   0.938  0.5391  0.3278  0.3842
 6979TIP3    H142352   4.180   3.305   0.954 -0.5643  0.2439 -1.5372
 6979TIP3    H242353   4.145   3.164   0.911  1.3802 -0.9879  0.6611
 6980TIP3   OH242354   3.565   6.329  11.663 -0.5098  0.0703 -0.0265
 6980TIP3    H142355   3.478   6.356  11.635 -0.0039  1.0833 -0.6482
 6980TIP3    H242356   3.571   6.356  11.755 -0.6387  0.5324 -0.1539
 6981TIP3   OH242357   5.170   6.059   3.653  0.4586 -0.3079 -0.0801
 6981TIP3    H142358   5.184   5.992   3.720 -0.7356 -2.7497 -2.1250
 6981TIP3    H242359   5.242   6.047   3.592 -0.8407 -1.2304 -1.5288
 6982TIP3   OH242360   3.645   6.602  11.557 -0.4413 -0.5323 -0.0311
 6982TIP3    H142361   3.583   6.665  11.593 -0.9903 -1.2558  0.3134
 6982TIP3    H242362   3.626   6.520  11.603  0.5641 -0.8427 -0.1484
 6983TIP3   OH242363   1.400   1.573   1.408 -0.0053 -0.3236 -0.7264
 6983TIP3    H142364   1.402   1.511   1.481  0.6268 -0.6872 -1.0390
 6983TIP3    H242365   1.411   1.659   1.448 -0.2669 -0.4659 -0.3446
 6984TIP3   OH242366   4.242   6.757  11.697 -0.3494  0.2901 -0.4110
 6984TIP3    H142367   4.249   6.824  11.765  0.5420  0.9047 -1.0711
 6984TIP3    H242368   4.311   6.780  11.635 -1.9916  0.5633 -2.2305
 6985TIP3   OH242369   6.431   2.849   2.548  0.1001  0.1516 -0.1188
 6985TIP3    H142370   6.372   2.786   2.590 -0.7846  0.0775 -1.4145
 6985TIP3    H242371   6.372   2.912   2.505  0.9692  1.6304  0.7663
 6986TIP3   OH242372   5.903   2.023   1.120  0.3943 -0.0294  0.1157
 6986TIP3    H142373   5.973   1.960   1.099  0.7074  0.2026  0.4516
 6986TIP3    H242374   5.913   2.092   1.054  1.1864  0.5493  0.8228
 6987TIP3   OH242375   4.382   4.905  11.565 -0.4187 -0.0234 -0.1629
 6987TIP3    H142376   4.366   4.974  11.500  1.7544 -0.2572 -1.0477
 6987TIP3    H242377   4.308   4.845  11.556 -0.6400  0.4401 -1.7961
 6988TIP3   OH242378   6.185   2.339  12.784 -0.6156 -0.3003  0.1845
 6988TIP3    H142379   6.109   2.327  12.840  0.4757  0.6764  1.9639
 6988TIP3    H242380   6.191   2.258  12.733 -2.2585 -0.7772  0.6969
 6989TIP3   OH242381   4.458   3.600   3.068 -0.4642 -0.0290  0.1482
 6989TIP3    H142382   4.510   3.644   3.000 -1.8491  0.7434 -0.4537
 6989TIP3    H242383   4.426   3.520   3.026  1.0368 -1.0448  0.8507
 6990TIP3   OH242384   3.138   1.663   1.691  0.1051  0.0556  0.7403
 6990TIP3    H142385   3.161   1.595   1.628  1.4318  0.1793  1.0483
 6990TIP3    H242386   3.219   1.677   1.741 -1.1378 -0.7773  3.1824
 6991TIP3   OH242387   2.909   5.735   0.676 -0.5971 -0.5576 -0.1428
 6991TIP3    H142388   2.976   5.681   0.635  0.9965  0.5991  0.8157
 6991TIP3    H242389   2.869   5.783   0.603  2.1203  1.4042 -0.4889
 6992TIP3   OH242390   2.078   1.299   4.202  0.6074  0.2641  0.8228
 6992TIP3    H142391   2.055   1.281   4.110 -0.8082  1.0076  1.0000
 6992TIP3    H242392   2.164   1.260   4.213 -0.2838 -2.1623 -0.1077
 6993TIP3   OH242393   1.482   6.213  10.907 -0.1912  0.2785  0.1824
 6993TIP3    H142394   1.524   6.140  10.861 -1.5597 -0.4793  0.0637
 6993TIP3    H242395   1.534   6.225  10.986  0.9720  0.2225 -0.5523
 6994TIP3   OH242396   4.187   2.025  10.901  0.8489 -0.1792 -0.3999
 6994TIP3    H142397   4.123   1.957  10.881  0.4534  0.2353 -0.5866
 6994TIP3    H242398   4.141   2.083  10.962  0.8119  0.4687 -1.0294
 6995TIP3   OH242399   3.826   1.639  10.111 -0.1447  0.1064  0.4976
 6995TIP3    H142400   3.830   1.546  10.135 -0.4684 -0.0922 -0.1891
 6995TIP3    H242401   3.740   1.650  10.072 -0.3579  0.8484  1.1534
 6996TIP3   OH242402   5.369   6.863   2.347  0.2402 -0.3231  0.5977
 6996TIP3    H142403   5.352   6.780   2.390  1.5749 -0.9167  0.0403
 6996TIP3    H242404   5.283   6.893   2.316 -0.2294 -1.5806  0.6429
 6997TIP3   OH242405   1.982   0.112   1.728  0.3480 -0.2553  0.3651
 6997TIP3    H142406   1.894   0.149   1.725  0.2971 -0.4420 -1.9411
 6997TIP3    H242407   2.039   0.189   1.732  0.1331  0.0132 -1.0574
 6998TIP3   OH242408   1.772   3.552   1.414 -0.3345  0.4037  0.0538
 6998TIP3    H142409   1.793   3.534   1.323  2.1776  2.4573  0.1233
 6998TIP3    H242410   1.691   3.603   1.410  0.5386  1.7907 -1.2247
 6999TIP3   OH242411   6.152   3.369  12.547  0.1363  0.2926 -0.0359
 6999TIP3    H142412   6.135   3.430  12.475 -0.0430 -1.6034 -1.6601
 6999TIP3    H242413   6.069   3.323  12.559  0.9166 -1.2864 -0.4750
 7000TIP3   OH242414   2.765   6.755  11.891  0.2792  0.0965  0.7564
 7000TIP3    H142415   2.859   6.738  11.888 -0.0836 -2.0697  0.0817
 7000TIP3    H242416   2.725   6.676  11.856 -1.8557  0.5065  2.0695
 7001TIP3   OH242417   2.545   4.312   9.547  0.0033 -0.4037  0.1606
 7001TIP3    H142418   2.557   4.294   9.640 -1.4740  0.2192  0.5121
 7001TIP3    H242419   2.517   4.229   9.509 -0.7961 -0.3394  0.5762
 7002TIP3   OH242420   5.590   4.037   0.676  0.4064 -0.5933  0.2886
 7002TIP3    H142421   5.570   4.103   0.610 -2.5746 -1.0783  0.5455
 7002TIP3    H242422   5.614   3.959   0.626  1.7186  0.0079 -0.0673
 7003TIP3   OH242423   4.840   4.050  12.258  0.1432  0.3890 -0.1774
 7003TIP3    H142424   4.850   4.109  12.333 -2.0232 -0.1019  0.5513
 7003TIP3    H242425   4.746   4.036  12.250  0.4081 -0.6605 -2.1686
 7004TIP3   OH242426   0.779   2.688  10.706  0.5365 -0.3023 -0.0328
 7004TIP3    H142427   0.866   2.715  10.676  0.9884 -0.9582  0.6333
 7004TIP3    H242428   0.772   2.725  10.794 -1.1176  2.3287 -1.1701
 7005TIP3   OH242429   2.108   2.537  11.459  0.4645  0.1186 -0.0272
 7005TIP3    H142430   2.021   2.508  11.433  1.3070 -2.3875 -0.3816
 7005TIP3    H242431   2.094   2.622  11.500 -2.1636 -0.3216  0.1593
 7006TIP3   OH242432   4.503   2.639  10.331  0.5523  0.1015 -0.7167
 7006TIP3    H142433   4.456   2.561  10.362  1.3867  0.3167  1.2404
 7006TIP3    H242434   4.589   2.606  10.304 -0.0091 -0.0131 -2.4595
 7007TIP3   OH242435   4.682   2.474  10.951  0.3554  0.4509  0.6651
 7007TIP3    H142436   4.732   2.554  10.967  0.8942  0.5364 -1.2595
 7007TIP3    H242437   4.724   2.409  11.008  3.7456  0.1325 -1.9005
 7008TIP3   OH242438   2.850   6.282   1.299  0.7176 -0.1002 -0.3354
 7008TIP3    H142439   2.892   6.353   1.251 -1.2850  1.9163  0.6747
 7008TIP3    H242440   2.841   6.211   1.235  1.3574  1.1404 -1.8503
 7009TIP3   OH242441   5.157   2.054   4.895  0.0024  0.2818 -0.3970
 7009TIP3    H142442   5.217   2.109   4.946  0.1568  0.1811 -0.4683
 7009TIP3    H242443   5.072   2.067   4.936 -0.0733  1.0109 -0.7564
 7010TIP3   OH242444   2.929   1.350   1.479  0.3489  0.5302  0.7735
 7010TIP3    H142445   2.983   1.425   1.505 -0.9823  1.5809  0.6043
 7010TIP3    H242446   2.869   1.386   1.413 -0.5155 -0.6113  0.9203
 7011TIP3   OH242447   5.986   2.367  15.407  0.9361 -0.1398  0.4474
 7011TIP3    H142448   6.043   2.424  15.458  1.7921 -0.7406  0.1903
 7011TIP3    H242449   6.022   2.370  15.318 -0.1472  0.3897  0.0204
 7012TIP3   OH242450   1.948   1.806  11.946  0.1266  0.2050  0.1667
 7012TIP3    H142451   1.997   1.800  11.864 -0.1756 -0.7069  0.0449
 7012TIP3    H242452   2.002   1.760  12.010 -0.9580 -1.6565 -0.1750
 7013TIP3   OH242453   3.773   5.440  14.276  0.2030 -0.7322 -0.5651
 7013TIP3    H142454   3.761   5.427  14.182 -0.4064  0.6556 -0.7028
 7013TIP3    H242455   3.684   5.445  14.311  0.3993  0.3632 -0.1749
 7014TIP3   OH242456   3.221   0.081  14.870  0.6623 -0.5579 -0.2564
 7014TIP3    H142457   3.195   0.163  14.912 -0.2122  0.3250 -2.4237
 7014TIP3    H242458   3.178   0.013  14.922 -0.9725  0.5321 -0.1204
 7015TIP3   OH242459   4.346   0.832  13.851  0.2558 -0.8215 -0.0172
 7015TIP3    H142460   4.341   0.776  13.773 -2.4346  0.3030 -0.7708
 7015TIP3    H242461   4.391   0.911  13.821 -0.0133 -0.7439 -0.2279
 7016TIP3   OH242462   1.161   0.856   2.442 -0.1677  0.0122 -0.9313
 7016TIP3    H142463   1.098   0.796   2.482 -0.5670  0.5158 -0.8063
 7016TIP3    H242464   1.200   0.804   2.371 -0.5998 -0.3577 -0.9055
 7017TIP3   OH242465   0.780   2.557  12.867 -0.3169  0.1855  0.4074
 7017TIP3    H142466   0.697   2.565  12.819  0.0478  2.1970  0.0282
 7017TIP3    H242467   0.810   2.468  12.849 -1.4621  0.0525 -0.9895
 7018TIP3   OH242468   0.964   2.365  14.396  0.0211 -0.1857  0.3573
 7018TIP3    H142469   0.978   2.459  14.407 -0.5073 -0.0704  0.1050
 7018TIP3    H242470   1.044   2.324  14.429  0.4160  0.3722  0.1024
 7019TIP3   OH242471   4.536   2.364   4.485  0.1887  0.4039 -0.1377
 7019TIP3    H142472   4.550   2.275   4.517  0.4208  0.2798 -0.5697
 7019TIP3    H242473   4.625   2.398   4.470  0.0943  0.5673 -0.3400
 7020TIP3   OH242474   6.285   6.697  10.041 -0.4404 -0.6637  0.4005
 7020TIP3    H142475   6.357   6.650  10.083 -0.3269 -1.2800 -0.4341
 7020TIP3    H242476   6.327   6.751   9.974 -0.5922  0.4978  1.2233
 7021TIP3   OH242477   6.363   3.245  12.205 -0.0676  0.0095  0.1054
 7021TIP3    H142478   6.451   3.242  12.242  0.3464  1.9045 -0.6002
 7021TIP3    H242479   6.305   3.222  12.277  0.9442 -0.3701  0.8209
 7022TIP3   OH242480   2.409   0.690  14.708  0.0398 -0.5383 -0.1506
 7022TIP3    H142481   2.462   0.628  14.659  0.6471 -1.3370  1.4558
 7022TIP3    H242482   2.320   0.654  14.703  0.2106 -0.9716 -0.1106
 7023TIP3   OH242483   1.549   1.754  10.765 -0.5973  0.2005  0.0323
 7023TIP3    H142484   1.565   1.674  10.813 -1.7139 -0.3862 -0.5217
 7023TIP3    H242485   1.522   1.817  10.832  2.5184  0.8640  0.8023
 7024TIP3   OH242486   6.427   0.435  10.793  0.1041  0.4163  0.0565
 7024TIP3    H142487   6.448   0.522  10.826  0.0343 -0.0259  1.3057
 7024TIP3    H242488   6.511   0.398  10.766  0.0166  1.2145 -1.3907
 7025TIP3   OH242489   2.450   0.444  13.225  0.1635 -0.4756 -0.1376
 7025TIP3    H142490   2.451   0.372  13.289 -2.6021  0.0852  0.6929
 7025TIP3    H242491   2.401   0.514  13.268  0.0863  0.7509 -2.0817
 7026TIP3   OH242492   4.652   6.596   5.566 -0.2529 -0.7169  0.0575
 7026TIP3    H142493   4.601   6.675   5.581 -0.1486 -0.7801  0.8089
 7026TIP3    H242494   4.587   6.528   5.547 -0.2681 -0.1715 -2.0024
 7027TIP3   OH242495   5.127   2.611  10.372  0.5835  0.6057 -0.3284
 7027TIP3    H142496   5.154   2.632  10.283 -0.0247  0.9841 -0.4344
 7027TIP3    H242497   5.128   2.694  10.419  1.7385  0.2806  0.2677
 7028TIP3   OH242498   3.070   6.860   1.459 -0.5100  0.1030  0.0526
 7028TIP3    H142499   2.995   6.825   1.411  0.0922 -0.1312 -0.7450
 7028TIP3    H242500   3.135   6.790   1.455 -0.7447 -0.2888  2.0068
 7029TIP3   OH242501   0.065   3.310   2.283 -0.0281  0.1484  0.2981
 7029TIP3    H142502   0.072   3.377   2.351 -0.3519 -0.8495  1.3364
 7029TIP3    H242503   0.103   3.351   2.205  2.6219  0.4917  1.6508
 7030TIP3   OH242504   1.115   3.241  11.710  0.1988  0.0979 -0.6213
 7030TIP3    H142505   1.023   3.222  11.728  0.0615 -0.3713 -1.7083
 7030TIP3    H242506   1.113   3.322  11.658  0.3857  0.0555 -0.6961
 7031TIP3   OH242507   0.679   1.737  11.599 -0.2083 -0.3381  0.2129
 7031TIP3    H142508   0.652   1.645  11.602 -2.0411  0.1701  0.3590
 7031TIP3    H242509   0.688   1.756  11.505 -1.8312 -0.1510  0.0666
 7032TIP3   OH242510   5.033   3.653  10.245  0.1639  0.2630 -0.0940
 7032TIP3    H142511   5.061   3.726  10.300 -1.0336  2.1300 -1.8052
 7032TIP3    H242512   4.970   3.692  10.183 -2.0446 -2.5881  0.1258
 7033TIP3   OH242513   0.846   5.099  11.835 -0.2279 -0.2058  0.0387
 7033TIP3    H142514   0.940   5.078  11.832 -0.1177  0.3370 -0.4832
 7033TIP3    H242515   0.803   5.014  11.836  0.2966 -0.4700  1.3329
 7034TIP3   OH242516   3.130   4.996  13.502  0.0320  0.0182 -0.0097
 7034TIP3    H142517   3.214   4.977  13.544  0.4172  0.7959 -0.4127
 7034TIP3    H242518   3.083   5.050  13.566  0.0684  0.0571 -0.0158
 7035TIP3   OH242519   1.988   5.404  12.945  0.5643  0.4132  1.1459
 7035TIP3    H142520   1.916   5.390  12.883  1.1522 -1.6579  0.8561
 7035TIP3    H242521   1.960   5.359  13.024  2.5512 -2.8746  0.1788
 7036TIP3   OH242522   0.560   1.278  10.768  0.2456  0.1007 -0.0809
 7036TIP3    H142523   0.483   1.239  10.811  0.0871 -0.0107 -0.4658
 7036TIP3    H242524   0.571   1.362  10.812  0.1877 -0.0855  0.2986
 7037TIP3   OH242525   7.158   6.679   3.782 -0.0229  0.1191 -0.3078
 7037TIP3    H142526   7.209   6.600   3.767 -1.0490 -0.4938 -0.6855
 7037TIP3    H242527   7.222   6.750   3.780  1.0345 -0.7464  0.8062
 7038TIP3   OH242528   2.992   1.727  14.420  0.5916  0.3439  0.4452
 7038TIP3    H142529   3.021   1.717  14.511  0.3414 -0.1297  0.4730
 7038TIP3    H242530   3.072   1.747  14.372  0.7498  0.4458  0.7466
 7039TIP3   OH242531   1.191   6.489  11.027  0.3627 -0.1189  0.6868
 7039TIP3    H142532   1.115   6.433  11.042 -1.6827  2.0819 -0.8252
 7039TIP3    H242533   1.264   6.442  11.068 -1.6377 -2.6827  1.5456
 7040TIP3   OH242534   2.199   6.134  10.691 -0.0979  0.2508  0.4671
 7040TIP3    H142535   2.136   6.064  10.704  0.6351 -0.3626  0.8215
 7040TIP3    H242536   2.150   6.203  10.647 -1.2511  0.1875  1.6169
 7041TIP3   OH242537   1.116   3.524  11.211 -0.1255 -0.2610 -0.6170
 7041TIP3    H142538   1.148   3.451  11.264 -0.3374 -0.1309 -0.3048
 7041TIP3    H242539   1.030   3.495  11.179 -0.5257  0.1204  0.0859
 7042TIP3   OH242540   4.844   4.702  10.498  0.0977 -0.7352  0.1426
 7042TIP3    H142541   4.906   4.629  10.490  0.9271  0.0592 -0.9479
 7042TIP3    H242542   4.879   4.755  10.570  0.6577 -0.3269 -0.4223
 7043TIP3   OH242543   5.219   4.235   9.814  0.2797  0.4021 -0.1514
 7043TIP3    H142544   5.207   4.330   9.809 -0.6370  0.2536 -1.7761
 7043TIP3    H242545   5.190   4.203   9.728 -0.5905 -1.4698  0.7843
 7044TIP3   OH242546   5.141   0.716   2.512 -0.4472 -0.5212  0.0160
 7044TIP3    H142547   5.138   0.653   2.440 -1.0245  0.5794 -0.9581
 7044TIP3    H242548   5.051   0.720   2.544 -0.0489 -1.6254  1.4064
 7045TIP3   OH242549   1.882   6.320  12.703 -0.0704  0.1643  0.4173
 7045TIP3    H142550   1.939   6.322  12.779 -0.0688  1.1817  0.3999
 7045TIP3    H242551   1.891   6.231  12.669  1.5698  0.3199  0.3571
 7046TIP3   OH242552   0.701   4.751  13.384  0.2398  0.1049  0.1057
 7046TIP3    H142553   0.682   4.658  13.374 -1.4648  0.1995  1.9611
 7046TIP3    H242554   0.797   4.756  13.385  0.4249 -2.0035  2.6178
 7047TIP3   OH242555   0.570   2.832  10.863  0.6572  0.3436  0.6538
 7047TIP3    H142556   0.627   2.867  10.795  0.6910  0.3519  0.6868
 7047TIP3    H242557   0.583   2.737  10.861  0.0156  0.2611  0.0667
 7048TIP3   OH242558   3.534   5.348  11.422  0.0747 -0.3111  0.2091
 7048TIP3    H142559   3.474   5.377  11.353  1.2047  1.0197 -0.2506
 7048TIP3    H242560   3.609   5.406  11.415  1.7642 -2.3534  0.3316
 7049TIP3   OH242561   4.476   5.729  12.978 -0.4554 -0.4680  0.6052
 7049TIP3    H142562   4.391   5.710  13.017 -1.5170 -1.3191 -1.8821
 7049TIP3    H242563   4.473   5.823  12.959 -0.5877 -0.3770  1.0606
 7050TIP3   OH242564   0.471   4.343  14.561 -0.0611 -0.3393 -0.1597
 7050TIP3    H142565   0.384   4.333  14.524  0.1746 -0.4609 -0.6916
 7050TIP3    H242566   0.530   4.333  14.486  0.3863  0.2625  0.1025
 7051TIP3   OH242567   3.924   4.749  13.253  0.0382  0.1426  0.2491
 7051TIP3    H142568   3.995   4.810  13.237  0.0038  0.1884  0.2697
 7051TIP3    H242569   3.880   4.740  13.168  1.5843 -1.8246 -0.4055
 7052TIP3   OH242570   6.610   0.152  13.230  0.1356 -0.3091 -0.3825
 7052TIP3    H142571   6.581   0.235  13.270 -3.0316 -0.8521 -1.2676
 7052TIP3    H242572   6.616   0.091  13.304 -0.3279  0.0217 -0.0663
 7053TIP3   OH242573   6.579   3.551  11.433 -0.6436  0.1888  0.2277
 7053TIP3    H142574   6.508   3.499  11.471 -0.4415 -0.9350 -0.8728
 7053TIP3    H242575   6.654   3.534  11.491  0.2870 -3.2884 -1.6860
 7054TIP3   OH242576   5.355   0.053  13.284 -0.6907  0.1024 -0.0551
 7054TIP3    H142577   5.359  -0.030  13.331  0.5166  0.4780  0.5185
 7054TIP3    H242578   5.320   0.116  13.348  0.8379  0.5858  0.3423
 7055TIP3   OH242579   6.929   1.511  15.119 -0.3730  0.1676 -0.1618
 7055TIP3    H142580   6.835   1.524  15.131 -0.3339 -0.4869  1.0955
 7055TIP3    H242581   6.968   1.543  15.200  0.3873 -0.5164 -0.2391
 7056TIP3   OH242582   4.355   6.605   0.377  0.0378  0.1505  0.5670
 7056TIP3    H142583   4.449   6.607   0.395 -0.1692 -0.7268  1.8373
 7056TIP3    H242584   4.327   6.519   0.406 -1.4040  0.9115  1.5519
 7057TIP3   OH242585   5.310   4.284   0.671 -0.4603 -0.4253 -0.4306
 7057TIP3    H142586   5.293   4.191   0.688 -1.1524 -0.1848  0.2167
 7057TIP3    H242587   5.291   4.295   0.578 -0.6321 -0.8711 -0.4512
 7058TIP3   OH242588   0.886   3.129  13.104  0.7276  0.3502  0.5446
 7058TIP3    H142589   0.892   3.222  13.084  0.6252  0.4857  1.1102
 7058TIP3    H242590   0.929   3.120  13.189 -0.9996  0.2301  1.4491
 7059TIP3   OH242591   4.087   3.239   3.803  0.1910 -0.6654 -0.3371
 7059TIP3    H142592   4.025   3.202   3.740  0.3955 -0.5397 -0.6144
 7059TIP3    H242593   4.033   3.267   3.877 -0.3182  1.1156 -1.3357
 7060TIP3   OH242594   1.104   1.105   9.409  0.4681 -0.1312  0.1521
 7060TIP3    H142595   1.197   1.098   9.388  0.3174 -0.1908 -0.5183
 7060TIP3    H242596   1.074   1.014   9.413  0.5667 -0.1404  1.0119
 7061TIP3   OH242597   4.130   5.026  11.072  0.1934 -0.3029  0.3580
 7061TIP3    H142598   4.101   4.942  11.108  0.1082 -0.5072 -0.1841
 7061TIP3    H242599   4.064   5.050  11.007 -1.3069  1.5619  2.4137
 7062TIP3   OH242600   2.599   0.245   0.680  0.2954  0.0382  0.2007
 7062TIP3    H142601   2.606   0.159   0.720  0.7307  0.0647  0.1882
 7062TIP3    H242602   2.620   0.231   0.588 -0.2024  0.0633  0.0778
 7063TIP3   OH242603   3.144   3.983  13.554  0.5057 -0.6967 -0.2943
 7063TIP3    H142604   3.164   4.049  13.488 -0.2604 -0.8883 -0.7449
 7063TIP3    H242605   3.051   3.962  13.539  0.2861 -0.6888  0.8965
 7064TIP3   OH242606   5.819   4.663   5.961 -0.1731  0.1685 -0.1514
 7064TIP3    H142607   5.859   4.699   6.040 -0.7801 -1.3418  0.8675
 7064TIP3    H242608   5.861   4.578   5.949  0.7079  0.8032 -2.1208
 7065TIP3   OH242609   3.876   6.414  10.172 -0.0335 -0.2036 -0.5580
 7065TIP3    H142610   3.783   6.438  10.165 -0.1254 -0.9478 -2.9268
 7065TIP3    H242611   3.874   6.320  10.190  0.2191 -0.4227 -1.6056
 7066TIP3   OH242612   6.234   5.263  15.018  0.1217 -0.0818 -0.0611
 7066TIP3    H142613   6.292   5.336  14.999  0.1449 -0.0047  0.2941
 7066TIP3    H242614   6.159   5.302  15.063  0.3914 -0.3451  0.6217
 7067TIP3   OH242615   7.013   3.933  11.860  0.2251  0.7037  0.6464
 7067TIP3    H142616   6.982   3.890  11.780 -1.3340 -0.9257  2.0108
 7067TIP3    H242617   7.011   4.026  11.840 -0.1725  0.3383 -1.1914
 7068TIP3   OH242618   0.271   3.118  15.311 -0.2148 -0.2701 -0.2520
 7068TIP3    H142619   0.201   3.165  15.264 -0.2668 -0.8739 -0.7896
 7068TIP3    H242620   0.288   3.172  15.387 -1.5632 -0.3080  0.1071
 7069TIP3   OH242621   6.552   1.230  11.206  0.7083  0.3804  0.3818
 7069TIP3    H142622   6.476   1.172  11.216 -1.3576  3.0273  1.5314
 7069TIP3    H242623   6.523   1.295  11.142  2.1126  1.3417  0.6975
 7070TIP3   OH242624   4.439   3.028  13.024 -0.4176 -0.0762  0.2733
 7070TIP3    H142625   4.462   2.980  12.944 -1.9773 -0.1454 -0.1607
 7070TIP3    H242626   4.468   3.118  13.007  0.1539 -0.3014  0.0360
 7071TIP3   OH242627   3.711   2.535  13.306  1.1435 -0.6608 -0.0267
 7071TIP3    H142628   3.731   2.564  13.395  0.2165  0.6652 -0.2147
 7071TIP3    H242629   3.747   2.605  13.250 -0.8657  0.0574 -0.5188
 7072TIP3   OH242630   2.899   6.043  14.402 -0.2352 -0.4017  0.0979
 7072TIP3    H142631   2.986   6.004  14.406 -0.3370 -1.2710 -3.0186
 7072TIP3    H242632   2.913   6.127  14.358 -0.8337 -0.0244  0.6198
 7073TIP3   OH242633   2.952   1.834  13.160 -0.0891  0.5581  0.1461
 7073TIP3    H142634   2.873   1.781  13.164 -0.7837  1.6063  0.6800
 7073TIP3    H242635   3.020   1.773  13.132 -1.4120  0.0112 -2.1315
 7074TIP3   OH242636   7.086   4.800  12.065 -0.0128 -0.2821  0.4418
 7074TIP3    H142637   7.164   4.805  12.010 -0.5834 -0.9587 -0.4535
 7074TIP3    H242638   7.062   4.891  12.080 -0.5078 -0.0813 -1.4157
 7075TIP3   OH242639   5.395   2.547  15.193  0.5467  0.4796  0.2380
 7075TIP3    H142640   5.450   2.584  15.261  2.1512 -1.7409  0.2518
 7075TIP3    H242641   5.447   2.476  15.155 -1.0841  0.3236 -1.9309
 7076TIP3   OH242642   6.234   0.776  11.867 -0.2582  0.2541  0.4693
 7076TIP3    H142643   6.286   0.696  11.853  0.7115  0.7737  0.9831
 7076TIP3    H242644   6.187   0.789  11.785 -2.4035 -2.2104  1.1620
 7077TIP3   OH242645   5.825   6.524  11.046 -0.3620  0.0979  0.7606
 7077TIP3    H142646   5.783   6.515  10.960 -0.8780  2.6440  0.6738
 7077TIP3    H242647   5.869   6.440  11.059  0.2919 -0.1712 -2.2763
 7078TIP3   OH242648   6.713   3.615   4.698 -0.4533  0.7695 -0.5699
 7078TIP3    H142649   6.667   3.627   4.615 -0.4343  1.7567 -0.4450
 7078TIP3    H242650   6.689   3.527   4.725 -0.6258  0.5059 -1.5196
 7079TIP3   OH242651   4.582   2.001  12.896  0.3463  0.0560  0.0835
 7079TIP3    H142652   4.646   1.967  12.833  0.1008  0.6137 -0.4730
 7079TIP3    H242653   4.524   1.927  12.912  1.0543 -0.4280  0.5133
 7080TIP3   OH242654   0.596   3.441  13.673  0.6803  0.2675 -0.1504
 7080TIP3    H142655   0.534   3.428  13.601  2.3386  1.2689 -1.8450
 7080TIP3    H242656   0.557   3.395  13.746 -1.5641  0.0023 -1.4142
 7081TIP3   OH242657   6.962   1.008  14.849  0.4021  0.0435 -0.3947
 7081TIP3    H142658   6.955   1.101  14.874 -0.4247  0.6440 -2.6086
 7081TIP3    H242659   7.046   1.002  14.805 -0.4702  0.2996 -2.1809
 7082TIP3   OH242660   2.022   1.297  12.584 -0.5748  0.1009  0.3480
 7082TIP3    H142661   2.050   1.266  12.670  1.2767 -4.4601 -1.5801
 7082TIP3    H242662   2.099   1.341  12.548 -0.6385  0.1173  0.2314
 7083TIP3   OH242663   6.675   6.768  11.150  0.3188 -0.3443  0.4940
 7083TIP3    H142664   6.716   6.828  11.212 -0.0708 -1.6494  2.0881
 7083TIP3    H242665   6.616   6.715  11.204 -1.4075 -0.3597 -1.2921
 7084TIP3   OH242666   3.773   4.712   0.690 -0.1188 -1.0577  0.0421
 7084TIP3    H142667   3.773   4.780   0.623 -0.5962 -0.6439  0.4444
 7084TIP3    H242668   3.755   4.759   0.772  0.9776 -1.4816  0.5397
 7085TIP3   OH242669   1.771   3.820  11.300 -1.1931  0.2600 -0.3566
 7085TIP3    H142670   1.748   3.838  11.391  0.2940 -0.2974  0.1521
 7085TIP3    H242671   1.774   3.906  11.258 -0.3299  0.6690  0.5157
 7086TIP3   OH242672   0.087   1.177  12.063  0.0734 -0.2363  0.0697
 7086TIP3    H142673   0.042   1.107  12.110  1.5719 -1.5955 -0.3919
 7086TIP3    H242674   0.173   1.183  12.106 -0.3795  2.0833  0.7748
 7087TIP3   OH242675   6.259   6.285  14.730 -0.6218 -0.3172  0.0515
 7087TIP3    H142676   6.257   6.379  14.750 -2.3652 -0.5869  1.3396
 7087TIP3    H242677   6.215   6.278  14.645 -1.7308 -0.1054  0.6064
 7088TIP3   OH242678   2.781   5.493   2.140 -0.0375 -0.5192  0.5145
 7088TIP3    H142679   2.732   5.440   2.202  0.0325 -1.5459 -0.2877
 7088TIP3    H242680   2.746   5.469   2.055  0.0333  0.6892  0.1201
 7089TIP3   OH242681   4.413   2.923  11.703  0.5427 -0.1661 -0.8794
 7089TIP3    H142682   4.472   2.989  11.665  0.9517  0.6667  1.0874
 7089TIP3    H242683   4.456   2.839  11.684  1.8521  0.3644 -0.3758
 7090TIP3   OH242684   6.141   5.037   4.092  0.3179  0.0669 -0.5925
 7090TIP3    H142685   6.210   5.092   4.055 -1.6529  2.7124 -0.6265
 7090TIP3    H242686   6.074   5.033   4.024  0.2901 -2.3171 -0.5081
 7091TIP3   OH242687   4.149   0.228  10.865 -0.3495  0.6333  0.4341
 7091TIP3    H142688   4.158   0.285  10.941  1.4678  1.2134 -0.1618
 7091TIP3    H242689   4.211   0.263  10.801 -0.3566 -1.0430 -0.5524
 7092TIP3   OH242690   6.849   0.053  10.052 -0.3581  0.1978 -0.0072
 7092TIP3    H142691   6.864   0.094   9.967  1.0723  0.6695  0.4440
 7092TIP3    H242692   6.773  -0.004  10.038  0.7168 -0.8623 -1.9921
 7093TIP3   OH242693   1.371   4.016  13.343 -0.4724 -0.3563 -0.1139
 7093TIP3    H142694   1.317   4.094  13.353 -0.5476 -0.6417  2.2507
 7093TIP3    H242695   1.407   4.023  13.255 -1.7208  1.5244 -0.5360
 7094TIP3   OH242696   5.689   4.650   2.979  0.5608 -0.3863  0.3714
 7094TIP3    H142697   5.660   4.628   3.068  0.5155  0.1822  0.5018
 7094TIP3    H242698   5.685   4.745   2.976 -0.8395 -0.4606 -0.7268
 7095TIP3   OH242699   5.471   5.579  10.822  0.0329  0.2247  0.1213
 7095TIP3    H142700   5.387   5.618  10.844 -0.0418  1.0563 -1.4931
 7095TIP3    H242701   5.528   5.604  10.895 -0.9502  0.1677  0.9308
 7096TIP3   OH242702   5.647   1.869  14.544  0.0334 -0.3053 -0.2994
 7096TIP3    H142703   5.605   1.886  14.628  2.2055 -2.3759  1.3432
 7096TIP3    H242704   5.575   1.846  14.485 -1.6159  1.8896  0.7270
 7097TIP3   OH242705   5.737   4.899   4.768  0.2746 -0.3799  0.3057
 7097TIP3    H142706   5.733   4.865   4.857  0.3250 -0.8912  0.1165
 7097TIP3    H242707   5.821   4.868   4.734 -0.7622 -2.2136 -0.7113
 7098TIP3   OH242708   3.845   2.785  11.963 -0.1424 -0.4490 -0.1529
 7098TIP3    H142709   3.787   2.840  11.911  0.1431  2.1233  2.0420
 7098TIP3    H242710   3.787   2.741  12.025  0.0779  1.9435  1.8870
 7099TIP3   OH242711   6.854   0.587   9.610 -0.6158  0.2442 -0.1126
 7099TIP3    H142712   6.762   0.565   9.626 -0.4151  0.5209  1.5353
 7099TIP3    H242713   6.869   0.666   9.662  0.5167  0.3253 -0.5389
 7100TIP3   OH242714   3.250   1.574  10.623 -0.3553  0.3295 -0.1076
 7100TIP3    H142715   3.278   1.611  10.539  0.2722 -0.9026 -0.4677
 7100TIP3    H242716   3.327   1.527  10.655 -1.1416 -0.7518  0.2521
 7101TIP3   OH242717   1.221   4.956  11.579  0.2422  0.0618  0.2890
 7101TIP3    H142718   1.132   4.923  11.572 -0.1191  0.9420  0.5540
 7101TIP3    H242719   1.211   5.051  11.585  1.2381  0.2311 -0.4092
 7102TIP3   OH242720   0.042   4.909  15.325  0.1619 -0.1415 -0.8292
 7102TIP3    H142721   0.090   4.852  15.266  0.2571  0.2601 -1.1483
 7102TIP3    H242722   0.046   4.995  15.283 -0.6975 -0.0697 -0.7800
 7103TIP3   OH242723   4.935   6.861   1.951 -0.5454 -0.0087 -0.4172
 7103TIP3    H142724   4.854   6.811   1.965  0.4479 -1.7485 -0.6222
 7103TIP3    H242725   4.914   6.919   1.878 -1.7575 -0.0999 -0.1635
 7104TIP3   OH242726   0.278   1.820   4.616 -0.0444  0.0069  0.0644
 7104TIP3    H142727   0.240   1.754   4.557  0.0690 -0.4265  0.4706
 7104TIP3    H242728   0.370   1.826   4.590 -0.0298 -0.0713  0.0991
 7105TIP3   OH242729   1.188   6.701   4.277 -0.0536 -0.1500 -0.8467
 7105TIP3    H142730   1.255   6.769   4.270  1.2792 -1.2710  0.2639
 7105TIP3    H242731   1.235   6.624   4.311 -1.6214 -1.4391 -1.4349
 7106TIP3   OH242732   2.561   6.813  12.062 -0.0667 -0.7609 -0.1350
 7106TIP3    H142733   2.648   6.789  12.030 -0.6093 -1.3396 -1.2411
 7106TIP3    H242734   2.533   6.737  12.112 -0.1310 -0.7671 -0.1805
 7107TIP3   OH242735   0.946   3.361  13.567 -0.6627 -0.0805  0.0672
 7107TIP3    H142736   1.001   3.439  13.567 -1.7741  0.7975 -2.2198
 7107TIP3    H242737   0.925   3.347  13.659 -0.5656  2.4525  0.5628
 7108TIP3   OH242738   6.087   4.891   9.922  0.0282 -0.0711  0.4294
 7108TIP3    H142739   6.179   4.870   9.935  0.2141  1.0762  1.0500
 7108TIP3    H242740   6.065   4.952   9.993 -0.0559  3.1018 -2.1082
 7109TIP3   OH242741   5.939   0.549  11.540  0.0548  0.2750 -0.2963
 7109TIP3    H142742   5.948   0.539  11.635 -2.2745 -0.7239 -0.0970
 7109TIP3    H242743   5.972   0.466  11.505  1.1622  0.7492 -0.3980
 7110TIP3   OH242744   1.708   2.725  10.526  0.1553 -0.1945  0.3153
 7110TIP3    H142745   1.690   2.804  10.475  2.3181  1.7398  2.3043
 7110TIP3    H242746   1.672   2.745  10.613  0.2717 -1.6394  0.7147
 7111TIP3   OH242747   4.325   3.395   3.838  0.3320 -0.0378  0.7590
 7111TIP3    H142748   4.260   3.383   3.907  1.9563 -0.6762  2.2313
 7111TIP3    H242749   4.408   3.370   3.878  1.5103  0.7572 -1.0666
 7112TIP3   OH242750   1.563   5.842   2.010 -0.2723 -0.6377 -0.5750
 7112TIP3    H142751   1.654   5.856   1.984  0.4941 -1.0065  1.6800
 7112TIP3    H242752   1.561   5.752   2.044 -1.3900 -0.4989 -0.2183
 7113TIP3   OH242753   2.291   1.300  14.144  0.5491  0.6222  0.5625
 7113TIP3    H142754   2.231   1.360  14.099  1.3942  0.5040 -0.7999
 7113TIP3    H242755   2.378   1.335  14.126  0.9165  0.9978  2.8177
 7114TIP3   OH242756   5.072   5.756   0.635  0.2877 -0.3086  0.0137
 7114TIP3    H142757   5.155   5.718   0.608  0.5608  0.6193 -0.4979
 7114TIP3    H242758   5.072   5.844   0.596 -1.2514 -0.5624 -0.6552
 7115TIP3   OH242759   7.040   4.026  10.998  0.2532  0.0594  0.6188
 7115TIP3    H142760   6.983   3.983  10.935  0.6569 -0.4378  0.5845
 7115TIP3    H242761   7.024   3.981  11.081 -0.6007  1.0004  0.9908
 7116TIP3   OH242762   6.375   7.140   0.694 -0.4042  0.2125  0.3307
 7116TIP3    H142763   6.391   7.093   0.776 -1.9546 -1.1454 -0.0847
 7116TIP3    H242764   6.325   7.218   0.720 -0.0817  0.2731  0.7686
 7117TIP3   OH242765   1.609   6.145   2.738  0.4371  0.3654  0.4792
 7117TIP3    H142766   1.649   6.099   2.664 -1.5836 -1.3797  0.3581
 7117TIP3    H242767   1.557   6.078   2.782 -0.2492  1.9011  2.1248
 7118TIP3   OH242768   2.618   7.139   2.366 -0.2754  0.2739  0.1699
 7118TIP3    H142769   2.682   7.207   2.388 -2.9958  3.8667 -1.7205
 7118TIP3    H242770   2.611   7.086   2.445  2.7442  1.5648  1.4786
 7119TIP3   OH242771   1.288   0.415  12.360 -0.0208  0.3770  0.7648
 7119TIP3    H142772   1.269   0.359  12.435  2.2229  0.6346  1.5995
 7119TIP3    H242773   1.314   0.499  12.398  0.5210  0.7214 -0.3237
 7120TIP3   OH242774   2.679   5.185   5.257 -0.4494 -0.6243  0.4872
 7120TIP3    H142775   2.702   5.251   5.192 -2.7468 -0.0843  0.1263
 7120TIP3    H242776   2.761   5.140   5.276  0.8782  1.2436 -0.4651
 7121TIP3   OH242777   4.153   3.946  13.703 -0.7473  0.0345  0.0404
 7121TIP3    H142778   4.165   4.005  13.629  1.5740 -0.0391  0.2905
 7121TIP3    H242779   4.167   4.002  13.780 -3.2069  0.1301  0.4995
 7122TIP3   OH242780   2.984   5.281  10.304 -0.0746 -0.2595 -0.1651
 7122TIP3    H142781   2.979   5.216  10.233 -1.0996 -0.2940 -0.0873
 7122TIP3    H242782   3.051   5.247  10.362 -0.6474 -1.3133 -0.0903
 7123TIP3   OH242783   0.437   0.428   3.960 -0.3900  0.0444 -0.3889
 7123TIP3    H142784   0.517   0.439   3.907  0.9790 -1.7622  1.1732
 7123TIP3    H242785   0.367   0.459   3.903  1.3532  1.2709 -2.0115
 7124TIP3   OH242786   2.830   4.758  11.742  0.2205  0.4453 -0.3767
 7124TIP3    H142787   2.798   4.691  11.682  0.4338 -1.0526  1.1142
 7124TIP3    H242788   2.911   4.790  11.702  0.2772 -0.4214 -0.9634
 7125TIP3   OH242789   2.502   5.717  10.742  0.5348 -0.3692 -0.3408
 7125TIP3    H142790   2.467   5.735  10.829 -0.0016  1.5247 -0.9022
 7125TIP3    H242791   2.592   5.749  10.745  0.2250  0.5811 -0.7319
 7126TIP3   OH242792   6.686   6.047  14.307  0.2243 -0.4678  0.5821
 7126TIP3    H142793   6.732   6.130  14.297 -0.3417 -0.2549 -0.3701
 7126TIP3    H242794   6.718   5.993  14.234 -0.9627 -0.3312 -0.0688
 7127TIP3   OH242795   6.565   6.773   0.393  0.0827 -0.1824  0.7269
 7127TIP3    H142796   6.515   6.727   0.326  0.8440  0.2476 -0.1692
 7127TIP3    H242797   6.564   6.715   0.468 -1.0555 -0.5419  0.4550
 7128TIP3   OH242798   6.788   3.657  13.747  0.1914 -0.1243 -0.1327
 7128TIP3    H142799   6.772   3.738  13.795 -0.6418 -0.9015  0.9203
 7128TIP3    H242800   6.846   3.684  13.675  0.4397  1.2835  0.5561
 7129TIP3   OH242801   4.518   4.665  15.213 -0.1518  0.1167 -0.8043
 7129TIP3    H142802   4.505   4.646  15.306  1.6925 -1.6319 -0.8308
 7129TIP3    H242803   4.468   4.598  15.167  1.8180 -1.3251 -0.9698
 7130TIP3   OH242804   4.630   0.487  15.241  0.8909 -0.6285  0.1100
 7130TIP3    H142805   4.611   0.424  15.310 -0.1705  0.2036  0.6130
 7130TIP3    H242806   4.652   0.568  15.287  2.6232 -0.6980 -0.5184
 7131TIP3   OH242807   4.979   4.808  14.738  0.2891  0.1309  0.4862
 7131TIP3    H142808   4.936   4.765  14.664 -0.2674 -0.1520  0.9722
 7131TIP3    H242809   5.014   4.890  14.701  0.0174 -0.0043 -0.0838
 7132TIP3   OH242810   3.644   3.652   2.007 -0.2459 -0.7701  0.1330
 7132TIP3    H142811   3.727   3.609   2.025  0.1389 -0.1826 -0.1944
 7132TIP3    H242812   3.652   3.738   2.049 -0.2981 -0.3289 -0.7544
 7133TIP3   OH242813   4.947   0.914  13.310 -0.1553  0.3068  0.1194
 7133TIP3    H142814   4.865   0.865  13.297  1.0808 -1.8149 -0.3052
 7133TIP3    H242815   4.989   0.871  13.384  1.0281  0.6725 -0.3124
 7134TIP3   OH242816   2.032   6.880   1.206  0.2613 -0.3008  0.3487
 7134TIP3    H142817   2.082   6.827   1.269 -0.0191 -0.8111  0.1500
 7134TIP3    H242818   1.966   6.820   1.172  0.8456 -0.2344 -0.9534
 7135TIP3   OH242819   5.230   2.357  15.271  0.7230 -0.2459  0.6620
 7135TIP3    H142820   5.296   2.423  15.247  0.4774 -0.8984 -2.1653
 7135TIP3    H242821   5.266   2.314  15.348  2.8966  0.4526  0.1148
 7136TIP3   OH242822   5.010   3.852  14.205 -0.4209 -0.3270 -0.0431
 7136TIP3    H142823   5.102   3.861  14.179 -0.7864 -0.3554 -1.4447
 7136TIP3    H242824   5.014   3.831  14.298  0.9296  1.3166  0.3293
 7137TIP3   OH242825   0.815   0.575  10.087  0.7584  0.0605  0.0355
 7137TIP3    H142826   0.763   0.631  10.029 -1.6103 -1.7521  0.2530
 7137TIP3    H242827   0.789   0.486  10.063  2.3592 -0.8585  1.5230
 7138TIP3   OH242828   4.330   1.334  13.082  0.3515 -0.8621 -0.0479
 7138TIP3    H142829   4.362   1.397  13.017  0.9390 -0.4954  0.5886
 7138TIP3    H242830   4.381   1.352  13.161 -1.1779 -0.4687  0.9049
 7139TIP3   OH242831   5.392   4.855   3.159  0.5352 -0.3865 -0.2219
 7139TIP3    H142832   5.351   4.768   3.161 -0.6527  0.1636  0.7016
 7139TIP3    H242833   5.468   4.847   3.218  1.0909 -1.0839 -1.0040
 7140TIP3   OH242834   7.074   6.431  12.743 -0.0758 -0.2320  0.0839
 7140TIP3    H142835   7.007   6.418  12.676  1.9376 -0.1456 -2.0396
 7140TIP3    H242836   7.082   6.346  12.786  1.1080 -1.4034 -2.2777
 7141TIP3   OH242837   6.735   3.708  14.244 -0.6060 -0.5312 -0.4465
 7141TIP3    H142838   6.826   3.686  14.260 -1.0118 -0.6761  2.0791
 7141TIP3    H242839   6.726   3.799  14.275 -1.1994 -0.2851 -1.2772
 7142TIP3   OH242840   5.121   4.231  14.725 -0.1026 -0.0173 -0.0070
 7142TIP3    H142841   5.080   4.317  14.723  1.1288  0.6186 -2.6298
 7142TIP3    H242842   5.205   4.246  14.769  0.5295  0.4051 -1.2894
 7143TIP3   OH242843   2.074   4.837   4.584 -0.3843 -0.3407 -0.3390
 7143TIP3    H142844   2.022   4.757   4.593 -0.8606  0.1273  1.8018
 7143TIP3    H242845   2.022   4.904   4.629  0.2272  1.0812 -1.6661
 7144TIP3   OH242846   6.367   0.964   0.072 -0.1388 -0.4597 -0.4122
 7144TIP3    H142847   6.313   1.009   0.007  1.5055  1.7776 -0.3362
 7144TIP3    H242848   6.457   0.988   0.049  0.4965  0.7588  2.8677
 7145TIP3   OH242849   4.002   4.559  12.233  0.2179  0.0874 -0.9776
 7145TIP3    H142850   3.925   4.503  12.222 -0.1345  0.6750 -1.5552
 7145TIP3    H242851   4.072   4.512  12.186  0.3723 -0.7317  0.0352
 7146TIP3   OH242852   3.151   2.826   1.823 -0.6321  0.3392  0.0081
 7146TIP3    H142853   3.136   2.841   1.917 -0.4278 -0.7359  0.2257
 7146TIP3    H242854   3.098   2.750   1.803  0.1535 -0.0800 -0.5113
 7147TIP3   OH242855   1.697   5.448   4.194 -0.0983  0.0174  0.8849
 7147TIP3    H142856   1.629   5.491   4.246 -1.3495 -0.8733  0.0392
 7147TIP3    H242857   1.690   5.488   4.108  1.9553  1.4750  1.2967
 7148TIP3   OH242858   4.491   0.085   2.103  0.1892  0.0658  0.0835
 7148TIP3    H142859   4.571   0.060   2.148  0.0696  1.1587  0.9341
 7148TIP3    H242860   4.502   0.178   2.082 -0.9115  0.2942  0.4009
 7149TIP3   OH242861   0.700   4.368   1.096 -0.1112 -0.0216 -0.1289
 7149TIP3    H142862   0.607   4.384   1.081 -0.0640 -0.6314 -1.1795
 7149TIP3    H242863   0.721   4.293   1.039  1.2755  0.8417 -0.8125
 7150TIP3   OH242864   3.485   2.068   2.261 -0.5626  0.4655 -0.0772
 7150TIP3    H142865   3.403   2.114   2.239  0.4302  2.6411  0.5074
 7150TIP3    H242866   3.477   1.984   2.216 -1.8492  1.7575 -2.5336
 7151TIP3   OH242867   5.522   6.618  10.962 -0.5879 -0.8378 -0.7183
 7151TIP3    H142868   5.476   6.643  11.042  0.5884  0.6205 -0.4626
 7151TIP3    H242869   5.452   6.593  10.901 -1.7213  1.0818 -0.2659
 7152TIP3   OH242870   6.354   5.432  11.525  0.4764 -0.2080 -0.5255
 7152TIP3    H142871   6.289   5.494  11.557  0.9891  0.2746 -0.3853
 7152TIP3    H242872   6.304   5.355  11.500 -0.2221  0.3671 -0.9753
 7153TIP3   OH242873   3.186   0.361   3.508 -0.2506  0.2434  0.4044
 7153TIP3    H142874   3.265   0.403   3.544 -0.5376  1.1161  0.0377
 7153TIP3    H242875   3.115   0.395   3.562 -0.3391 -0.9632  1.0860
 7154TIP3   OH242876   4.218   4.331  15.333  0.6236 -0.5424  0.6319
 7154TIP3    H142877   4.270   4.257  15.365  1.2399 -0.4012 -0.0320
 7154TIP3    H242878   4.182   4.371  15.412  0.6306 -1.2938  1.0243
 7155TIP3   OH242879   5.326   1.900   1.250 -0.3722 -0.3911  0.6801
 7155TIP3    H142880   5.246   1.937   1.287 -0.0986  0.4902  0.4245
 7155TIP3    H242881   5.395   1.958   1.281  0.2444 -1.4334  1.3182
 7156TIP3   OH242882   2.799   1.168   1.627  0.0030 -0.3294  0.5195
 7156TIP3    H142883   2.834   1.125   1.705 -1.7819 -0.7736  1.1256
 7156TIP3    H242884   2.863   1.236   1.605 -0.2648  0.9820  3.4202
 7157TIP3   OH242885   5.229   3.494   3.848  0.1516  0.0839  0.1726
 7157TIP3    H142886   5.252   3.541   3.768 -1.0278  1.6766  0.7228
 7157TIP3    H242887   5.186   3.559   3.902  2.7612 -0.3415  3.0432
 7158TIP3   OH242888   2.114   0.974   5.271 -0.2190 -0.4526 -0.1886
 7158TIP3    H142889   2.139   0.888   5.304  2.4230 -0.0105 -0.8421
 7158TIP3    H242890   2.061   0.955   5.194  0.8012 -1.5215 -0.6588
 7159TIP3   OH242891   6.940   4.919   3.523 -1.0347  0.0225  0.7622
 7159TIP3    H142892   6.871   4.853   3.532 -0.4290 -0.8278 -0.4720
 7159TIP3    H242893   7.016   4.880   3.565 -0.7999  0.1407  0.4458
 7160TIP3   OH242894   2.441   0.465  11.309 -0.1742 -0.1390 -0.0493
 7160TIP3    H142895   2.421   0.519  11.385 -0.7035 -0.0188 -0.2696
 7160TIP3    H242896   2.465   0.527  11.241  0.9308 -0.2785  0.1978
 7161TIP3   OH242897   0.826   1.233   5.285  0.6449  0.5719  0.3395
 7161TIP3    H142898   0.757   1.299   5.275 -0.6006 -0.7088  0.2259
 7161TIP3    H242899   0.845   1.205   5.196 -0.8895 -1.2316  0.5165
 7162TIP3   OH242900   0.118   4.568   9.695  0.2806 -0.2059  0.3454
 7162TIP3    H142901   0.036   4.546   9.740  0.2174  0.1744  0.4134
 7162TIP3    H242902   0.160   4.633   9.752 -0.1731  0.8743 -0.5257
 7163TIP3   OH242903   2.597   0.605   1.920  0.4414  0.4745 -0.1051
 7163TIP3    H142904   2.560   0.537   1.975  1.2473 -0.1632 -0.3176
 7163TIP3    H242905   2.692   0.598   1.934  0.6493  0.4615 -1.3557
 7164TIP3   OH242906   3.003   6.600  11.628  0.6188  0.5855  0.1676
 7164TIP3    H142907   2.999   6.695  11.639  0.8068  0.8052 -1.4844
 7164TIP3    H242908   3.062   6.587  11.555 -0.7079 -0.7250 -0.7237
 7165TIP3   OH242909   3.043   5.615  13.387 -0.0175  0.0222 -0.6437
 7165TIP3    H142910   2.998   5.662  13.457 -0.3257  0.0695 -0.8698
 7165TIP3    H242911   3.126   5.586  13.426  0.3221  1.0312 -0.6032
 7166TIP3   OH242912   3.644   6.684  13.040 -0.5484 -0.3088 -0.1286
 7166TIP3    H142913   3.709   6.614  13.052 -0.7717 -0.5263 -0.1940
 7166TIP3    H242914   3.684   6.742  12.975 -1.0188 -1.1882 -1.2484
 7167TIP3   OH242915   2.436   4.910  12.949 -0.3395  0.5772 -0.5037
 7167TIP3    H142916   2.414   4.965  13.024  0.5739  1.2312 -0.6984
 7167TIP3    H242917   2.449   4.972  12.877 -0.4541  0.0097 -1.0222
 7168TIP3   OH242918   4.292   1.961  14.247  0.2128 -0.8995  0.2154
 7168TIP3    H142919   4.261   1.870  14.254  0.4522 -0.8762  2.1783
 7168TIP3    H242920   4.383   1.957  14.276  0.4601 -0.1433 -0.4413
 7169TIP3   OH242921   0.368   0.396   9.587  0.7137  0.4548  0.3887
 7169TIP3    H142922   0.428   0.468   9.606  1.8281  0.0771 -1.4845
 7169TIP3    H242923   0.297   0.437   9.536 -0.0831  0.6908  1.6433
 7170TIP3   OH242924   5.107   2.835   3.118 -0.7792 -0.3036 -0.0017
 7170TIP3    H142925   5.170   2.867   3.053  1.3854 -0.9495  1.6483
 7170TIP3    H242926   5.063   2.913   3.150  1.2494  0.5854  0.8012
 7171TIP3   OH242927   6.576   4.227   5.292 -0.0716  0.4830  0.2345
 7171TIP3    H142928   6.522   4.239   5.215  0.8705 -0.9557 -0.7054
 7171TIP3    H242929   6.634   4.303   5.293 -0.3821  0.7309 -0.2121
 7172TIP3   OH242930   5.252   1.434  11.841  0.3433  0.5270 -0.0301
 7172TIP3    H142931   5.313   1.508  11.841  0.1170  0.7189  0.5983
 7172TIP3    H242932   5.249   1.406  11.749 -0.3328  1.9389 -0.4708
 7173TIP3   OH242933   3.907   2.126  14.726  0.2148 -0.0269  0.2633
 7173TIP3    H142934   3.900   2.163  14.638  0.0636  0.1299  0.3419
 7173TIP3    H242935   3.996   2.090  14.729 -0.4629 -1.9009 -0.6720
 7174TIP3   OH242936   0.385   1.182  13.054  0.1690 -0.6630  0.1248
 7174TIP3    H142937   0.386   1.098  13.007  1.3780  0.1487 -1.4154
 7174TIP3    H242938   0.459   1.176  13.114  1.0942 -0.2463 -0.9273
 7175TIP3   OH242939   5.465   4.246   1.841  0.4386 -0.1555 -0.1347
 7175TIP3    H142940   5.499   4.333   1.862 -1.4245  0.5651  0.1243
 7175TIP3    H242941   5.378   4.244   1.881  0.5533 -2.2801  0.1376
 7176TIP3   OH242942   5.371   2.809  10.567  0.2287  0.0004  0.1051
 7176TIP3    H142943   5.407   2.897  10.556 -0.6184  0.3064 -0.3145
 7176TIP3    H242944   5.288   2.811  10.519  0.6201 -1.2937 -0.6715
 7177TIP3   OH242945   3.044   1.386  10.515  0.3895  0.1691 -0.4999
 7177TIP3    H142946   3.093   1.311  10.549 -0.4759 -1.1000 -1.9213
 7177TIP3    H242947   3.072   1.459  10.569  1.6697 -1.0691  0.5980
 7178TIP3   OH242948   1.749   1.592  11.376 -0.1410  0.5549 -0.1837
 7178TIP3    H142949   1.670   1.636  11.410  0.6083  0.7908  1.3547
 7178TIP3    H242950   1.765   1.633  11.292  0.7178  3.5686  1.3015
 7179TIP3   OH242951   3.514   5.112   2.509  0.0615 -0.0392 -0.3845
 7179TIP3    H142952   3.563   5.187   2.543  0.2732 -0.9657  1.5131
 7179TIP3    H242953   3.525   5.117   2.414  0.1409  2.2477 -0.3198
 7180TIP3   OH242954   1.965   6.607  10.152 -0.3616  0.2631  0.2260
 7180TIP3    H142955   1.971   6.540  10.084  1.8539  0.6493 -0.0477
 7180TIP3    H242956   1.918   6.564  10.224  1.6078 -1.9290  0.3518
 7181TIP3   OH242957   0.452   0.440   0.331 -0.0745  0.4142  0.1330
 7181TIP3    H142958   0.449   0.473   0.421 -1.8728  1.6472 -0.3248
 7181TIP3    H242959   0.519   0.372   0.332  1.1960  1.6184  1.9906
 7182TIP3   OH242960   3.682   6.318   4.857  0.6737  0.6087  0.2057
 7182TIP3    H142961   3.702   6.348   4.945  0.3469  3.3781 -0.5879
 7182TIP3    H242962   3.613   6.376   4.826  0.6885 -0.3629 -1.8535
 7183TIP3   OH242963   6.538   1.403  10.477 -0.2053 -0.1929  0.5406
 7183TIP3    H142964   6.475   1.336  10.452  2.0364 -2.3403  0.3467
 7183TIP3    H242965   6.607   1.356  10.524  0.2643  2.3730  2.6856
 7184TIP3   OH242966   0.288   7.109   3.158 -0.3248  0.2561  0.1943
 7184TIP3    H142967   0.328   7.123   3.244 -0.9411  1.8907  0.2373
 7184TIP3    H242968   0.206   7.064   3.177  0.7471 -1.8368  0.2084
 7185TIP3   OH242969   6.762   2.483   1.814  0.2672 -0.0422 -0.4833
 7185TIP3    H142970   6.857   2.482   1.828  0.2483  0.6269 -0.2749
 7185TIP3    H242971   6.736   2.391   1.820  0.6813 -0.0994  1.0576
 7186TIP3   OH242972   4.872   3.550   1.755 -0.1612  0.5619  0.5478
 7186TIP3    H142973   4.838   3.562   1.666 -0.2915 -0.0227  0.5165
 7186TIP3    H242974   4.834   3.621   1.805  1.3344  1.9985 -0.2527
 7187TIP3   OH242975   4.461   6.814   4.845 -0.5807  0.7428 -0.0211
 7187TIP3    H142976   4.542   6.852   4.879  0.6312 -2.7941  1.6424
 7187TIP3    H242977   4.477   6.801   4.752  1.1462 -0.4987  0.3899
 7188TIP3   OH242978   4.909   1.103  11.816  0.6922  0.4656  0.3413
 7188TIP3    H142979   4.887   1.069  11.903 -0.2279 -1.4479 -0.6019
 7188TIP3    H242980   4.838   1.074  11.760  2.9093 -1.2788 -1.7531
 7189TIP3   OH242981   4.498   3.587  10.470  0.4116  0.0464 -0.8658
 7189TIP3    H142982   4.485   3.666  10.418  1.3136  0.9022  0.1885
 7189TIP3    H242983   4.444   3.521  10.425  0.2367  1.0409 -2.1976
 7190TIP3   OH242984   3.640   2.334  13.547 -0.3507  0.5454  0.2610
 7190TIP3    H142985   3.681   2.411  13.508  0.8363 -0.5822 -0.7764
 7190TIP3    H242986   3.573   2.308  13.484 -0.7264  0.7009  0.5937
 7191TIP3   OH242987   6.637   2.217   3.906 -0.2988 -0.2662 -0.4979
 7191TIP3    H142988   6.670   2.156   3.972  0.9308  1.1952  0.3218
 7191TIP3    H242989   6.714   2.237   3.852 -0.6805  0.5186 -0.7641
 7192TIP3   OH242990   2.101   0.472  10.435  0.4256 -0.2113 -0.5266
 7192TIP3    H142991   2.030   0.417  10.468  0.8591 -0.1858  0.4465
 7192TIP3    H242992   2.153   0.494  10.511  1.5563 -0.3107 -1.2549
 7193TIP3   OH242993   0.807   1.244   0.426  0.4529  0.4381 -0.6737
 7193TIP3    H142994   0.810   1.215   0.517  1.9078 -0.4776 -0.9829
 7193TIP3    H242995   0.729   1.200   0.390 -0.6609  1.5290  0.3257
 7194TIP3   OH242996   6.119   2.806  13.793  0.1184  0.0054 -0.4583
 7194TIP3    H142997   6.185   2.857  13.745 -0.0296  1.0168  0.3708
 7194TIP3    H242998   6.068   2.872  13.840  0.8803 -0.9645  1.8538
 7195TIP3   OH242999   6.274   3.172   5.205  0.1353  0.1254  0.1492
 7195TIP3    H143000   6.324   3.126   5.272  3.6233 -0.3932 -2.4576
 7195TIP3    H243001   6.262   3.260   5.240  0.3475 -0.5491  2.0491
 7196TIP3   OH243002   2.248   4.729  12.209  0.4083  0.2697  0.1840
 7196TIP3    H143003   2.207   4.798  12.158 -1.5614 -1.5204 -0.8111
 7196TIP3    H243004   2.175   4.680  12.247  1.6852 -1.6384  0.3245
 7197TIP3   OH243005   1.374   6.982  12.904  0.5983 -0.0264 -0.4747
 7197TIP3    H143006   1.396   6.969  12.812 -0.1892 -0.4563 -0.6107
 7197TIP3    H243007   1.291   7.028  12.904 -0.0226 -1.1073  0.0031
 7198TIP3   OH243008   2.464   4.300  10.654  0.3925  0.2902  0.0297
 7198TIP3    H143009   2.510   4.250  10.586 -0.3368  0.3893 -0.5570
 7198TIP3    H243010   2.509   4.278  10.735  0.5280 -0.7819 -0.3173
 7199TIP3   OH243011   4.654   2.874  10.349 -0.0051 -0.8814 -0.1099
 7199TIP3    H143012   4.669   2.899  10.441  0.3125 -0.8895 -0.1579
 7199TIP3    H243013   4.570   2.829  10.350  0.5052 -1.8564  0.3622
 7200TIP3   OH243014   2.729   1.756  12.115 -0.0858 -0.6481  0.3434
 7200TIP3    H143015   2.699   1.847  12.121 -0.3770 -0.8021  1.6207
 7200TIP3    H243016   2.776   1.751  12.032  0.5968  0.8701  0.6117
 7201TIP3   OH243017   2.057   6.618  15.093 -0.2445  0.2433  0.4064
 7201TIP3    H143018   2.152   6.626  15.091 -0.2554  0.4406  0.5929
 7201TIP3    H243019   2.037   6.552  15.027  0.0134  0.2771  0.2922
 7202TIP3   OH243020   6.380   5.500   1.051 -0.5745 -0.2772  0.3187
 7202TIP3    H143021   6.355   5.556   1.125 -0.2745 -0.0525  0.2536
 7202TIP3    H243022   6.439   5.435   1.088  1.5376  1.2772 -0.1145
 7203TIP3   OH243023   0.050   0.102  11.457  0.0552 -0.2069  0.4918
 7203TIP3    H143024  -0.012   0.081  11.387 -0.2648  1.3184  0.2707
 7203TIP3    H243025   0.029   0.193  11.481  2.2452  0.4041  0.3308
 7204TIP3   OH243026   6.592   5.091  13.923 -0.0690 -0.3838 -0.4071
 7204TIP3    H143027   6.604   5.062  14.014 -1.9436  1.3750  0.4928
 7204TIP3    H243028   6.517   5.151  13.927  1.7129  2.2426 -2.5660
 7205TIP3   OH243029   5.445   3.996  15.299  0.0195 -0.1774  0.3316
 7205TIP3    H143030   5.483   3.974  15.384  0.9219  0.4761  0.1156
 7205TIP3    H243031   5.387   3.923  15.278 -0.0904 -0.4227  1.4303
 7206TIP3   OH243032   0.570   5.099   2.459  0.0559  0.1209  0.3895
 7206TIP3    H143033   0.656   5.118   2.421  1.5864 -2.5572  2.1484
 7206TIP3    H243034   0.564   5.003   2.458 -2.2204  0.1680  1.7842
 7207TIP3   OH243035   7.105   3.993   5.750 -0.7195  0.0317 -0.4681
 7207TIP3    H143036   7.013   4.015   5.766 -1.3789 -0.0387 -3.4627
 7207TIP3    H243037   7.108   3.898   5.757 -0.6687  0.0948  0.4477
 7208TIP3   OH243038   2.220   0.672   5.187  0.5225  0.2359 -0.2737
 7208TIP3    H143039   2.261   0.618   5.119 -0.0968 -0.2478 -0.2704
 7208TIP3    H243040   2.203   0.612   5.259 -0.4025  0.3735 -0.3635
 7209TIP3   OH243041   5.748   4.586   4.201  0.2267  0.0593  0.4066
 7209TIP3    H143042   5.676   4.647   4.185  0.9696  0.5040 -1.4790
 7209TIP3    H243043   5.777   4.606   4.290 -0.6448  1.2717  0.4470
 7210TIP3   OH243044   0.508   2.744   4.664 -0.5899 -0.2453  0.1661
 7210TIP3    H143045   0.482   2.833   4.689  0.1866  0.3549 -1.0940
 7210TIP3    H243046   0.594   2.732   4.707 -0.9203 -0.5910  0.7462
 7211TIP3   OH243047   6.177   3.896   9.640  0.6764  0.1266  0.3918
 7211TIP3    H143048   6.116   3.827   9.613  1.2418  0.5099 -2.1214
 7211TIP3    H243049   6.129   3.978   9.626  0.4269  0.3415  2.2323
 7212TIP3   OH243050   5.457   3.764   3.103 -0.6173 -0.9285 -0.0708
 7212TIP3    H143051   5.507   3.717   3.036 -0.2601 -1.2865  0.4375
 7212TIP3    H243052   5.435   3.696   3.168 -2.0682 -0.8611 -0.4549
 7213TIP3   OH243053   5.221   4.565   0.307  0.4107  0.0798 -0.6838
 7213TIP3    H143054   5.192   4.582   0.217 -0.7145  3.7599  0.2082
 7213TIP3    H243055   5.141   4.539   0.353 -0.0529  2.6463  0.1156
 7214TIP3   OH243056   1.834   3.332  13.936 -0.2027 -0.6497 -0.2008
 7214TIP3    H143057   1.778   3.254  13.933  0.4235 -1.1224  0.2209
 7214TIP3    H243058   1.821   3.374  13.851 -0.3852 -1.3241 -0.5096
 7215TIP3   OH243059   3.581   0.405   3.193  0.0304  0.3130  0.0337
 7215TIP3    H143060   3.561   0.346   3.120 -1.7588  0.4709  0.3460
 7215TIP3    H243061   3.495   0.433   3.225  0.4805 -2.2514  4.2481
 7216TIP3   OH243062   0.425   0.547  12.746 -0.6345  0.1509 -0.7254
 7216TIP3    H143063   0.463   0.490  12.679  0.4524  1.5379 -1.3310
 7216TIP3    H243064   0.476   0.627  12.741 -3.4000  2.0202 -1.3427
 7217TIP3   OH243065   7.073   5.781  11.898  0.7919 -0.1076  0.3990
 7217TIP3    H143066   7.128   5.832  11.839 -0.0751  0.5402  0.1295
 7217TIP3    H243067   7.119   5.783  11.982  0.2390  2.0737  0.6895
 7218TIP3   OH243068   4.860   1.069   1.557  0.1260 -0.3975 -0.1322
 7218TIP3    H143069   4.882   1.018   1.479 -0.7528 -2.7451  1.0609
 7218TIP3    H243070   4.936   1.057   1.615 -0.1091 -0.3840  0.1786
 7219TIP3   OH243071   2.628   4.111  14.372 -0.0401  0.6903 -0.0423
 7219TIP3    H143072   2.683   4.158  14.434  0.4804 -1.0407  0.8684
 7219TIP3    H243073   2.540   4.115  14.409  0.3587 -0.8468  1.2190
 7220TIP3   OH243074   2.685   2.918  14.214 -0.2280 -0.4729  0.0813
 7220TIP3    H143075   2.619   2.952  14.275 -1.4100 -0.7551 -1.0021
 7220TIP3    H243076   2.635   2.886  14.139  1.2455  1.1794 -1.7273
 7221TIP3   OH243077   2.262   5.382   2.805 -0.1202 -0.3715  0.0347
 7221TIP3    H143078   2.298   5.421   2.725 -0.9808 -0.3072 -0.3340
 7221TIP3    H243079   2.327   5.318   2.831 -0.3543 -1.2433 -1.3907
 7222TIP3   OH243080   1.813   6.132   0.664  0.3919  0.2595  0.5307
 7222TIP3    H143081   1.875   6.156   0.596 -0.2753  1.4102  0.3181
 7222TIP3    H243082   1.735   6.183   0.646 -0.9618 -1.7463  0.3090
 7223TIP3   OH243083   2.804   2.528  14.226  0.5612  0.5634 -0.0913
 7223TIP3    H143084   2.747   2.461  14.262 -0.0121  0.6276 -0.8373
 7223TIP3    H243085   2.892   2.491  14.230  0.3586  0.1316  0.3248
 7224TIP3   OH243086   0.407   4.483   0.603  0.0857 -0.0080 -0.0887
 7224TIP3    H143087   0.322   4.503   0.564  1.1939 -0.0147 -2.7730
 7224TIP3    H243088   0.419   4.389   0.589  0.0883 -0.2195  1.2634
 7225TIP3   OH243089   5.222   2.422  10.577 -0.6158  0.7438 -0.0833
 7225TIP3    H143090   5.169   2.461  10.508 -0.9529  0.5370  0.0565
 7225TIP3    H243091   5.163   2.362  10.622 -0.6558  1.5328  0.9523
 7226TIP3   OH243092   2.295   0.675  10.415  0.0198 -0.0690  0.0814
 7226TIP3    H143093   2.241   0.741  10.372  1.3570  0.0454 -1.5073
 7226TIP3    H243094   2.247   0.593  10.403 -0.3142  0.1880 -0.3671
 7227TIP3   OH243095   1.712   1.700  12.094  0.1929 -0.0461  0.0322
 7227TIP3    H143096   1.618   1.698  12.078 -0.0877  0.0176  1.5720
 7227TIP3    H243097   1.748   1.748  12.019 -0.8486 -1.0664 -1.1648
 7228TIP3   OH243098   3.683   3.484  11.370  0.2457 -0.0851 -0.0095
 7228TIP3    H143099   3.666   3.469  11.277 -0.1130  0.4671 -0.0370
 7228TIP3    H243100   3.767   3.441  11.386 -0.9632 -2.6323  0.0464
 7229TIP3   OH243101   6.177   4.451  13.068  0.7449  0.1452  0.4283
 7229TIP3    H143102   6.236   4.375  13.067  0.9152  0.2439 -1.8046
 7229TIP3    H243103   6.204   4.501  13.145  3.7824  0.2825 -0.5847
 7230TIP3   OH243104   1.413   4.322  13.367 -0.2545 -0.1797 -0.5174
 7230TIP3    H143105   1.445   4.290  13.282 -1.4569 -0.1173 -1.0079
 7230TIP3    H243106   1.318   4.318  13.360 -0.4151  1.5563  0.1619
 7231TIP3   OH243107   6.600   1.985  14.172 -0.2062 -0.6263 -0.4594
 7231TIP3    H143108   6.513   2.026  14.177 -0.6061 -1.5442  0.5621
 7231TIP3    H243109   6.640   2.005  14.256  0.5796 -0.2350 -0.9155
 7232TIP3   OH243110   0.016   5.220  12.271 -0.0067 -0.1601 -0.0755
 7232TIP3    H143111   0.110   5.208  12.266 -0.2930 -2.1849 -2.9496
 7232TIP3    H243112  -0.001   5.296  12.216 -0.1515 -0.9315 -1.1343
 7233TIP3   OH243113   6.710   4.552  10.843  0.8761  0.2276  0.6217
 7233TIP3    H143114   6.688   4.477  10.788 -2.7931  0.1291  1.9399
 7233TIP3    H243115   6.716   4.515  10.931  2.6773  1.0051  0.8718
 7234TIP3   OH243116   5.273   0.296   0.086 -0.1098  0.1171 -0.1771
 7234TIP3    H143117   5.335   0.331   0.150 -2.0205  1.0606  1.2565
 7234TIP3    H243118   5.327   0.275   0.010  1.8893  1.3655  0.7993
 7235TIP3   OH243119   3.288   4.024  11.692  0.1946 -0.2477 -0.0255
 7235TIP3    H143120   3.228   3.997  11.622 -0.7685  0.8270  0.3699
 7235TIP3    H243121   3.260   4.112  11.716  0.9602 -0.3212  1.2380
 7236TIP3   OH243122   2.370   4.198   1.785 -0.4664  0.5517 -0.6363
 7236TIP3    H143123   2.333   4.228   1.868 -1.2212 -0.0137 -0.7591
 7236TIP3    H243124   2.313   4.235   1.718 -0.9394 -0.4842 -0.8214
 7237TIP3   OH243125   5.952   4.545   1.044  0.6270 -0.7263 -0.2753
 7237TIP3    H143126   6.011   4.618   1.028 -0.3656  0.2272  0.2342
 7237TIP3    H243127   5.975   4.514   1.131 -0.2095  0.2584  0.3208
 7238TIP3   OH243128   1.606   6.411   4.184  0.4596  0.0639 -0.4008
 7238TIP3    H143129   1.540   6.372   4.241  0.9606  0.6493  0.6275
 7238TIP3    H243130   1.690   6.386   4.225  0.8104  1.2301 -0.3540
 7239TIP3   OH243131   2.690   3.107   3.898  0.0020 -0.0912 -0.0132
 7239TIP3    H143132   2.755   3.050   3.855 -0.4330 -0.9827  0.4773
 7239TIP3    H243133   2.738   3.187   3.917  1.0420 -0.8087  0.5315
 7240TIP3   OH243134   6.599   5.045  14.925  0.2039 -0.3059  0.4007
 7240TIP3    H143135   6.551   5.088  14.854  0.9979 -0.7031 -0.3948
 7240TIP3    H243136   6.691   5.057  14.902  0.5505  1.1207  2.3018
 7241TIP3   OH243137   1.820   1.578   2.542 -0.3173 -0.3948  0.0600
 7241TIP3    H143138   1.819   1.652   2.603  0.2496 -0.7726  0.5377
 7241TIP3    H243139   1.895   1.526   2.569 -0.8691 -1.2934 -0.1049
 7242TIP3   OH243140   0.859   1.376  14.945 -0.0032 -0.2101  0.6312
 7242TIP3    H143141   0.952   1.366  14.925 -0.0165  0.2268  0.3241
 7242TIP3    H243142   0.815   1.317  14.884  0.1206 -1.1855  1.4633
 7243TIP3   OH243143   4.426   2.374  11.165 -0.1052  0.9417 -0.1484
 7243TIP3    H143144   4.360   2.442  11.170 -0.5849  0.4668  0.0470
 7243TIP3    H243145   4.488   2.406  11.098 -1.4962  0.5743 -1.6856
 7244TIP3   OH243146   4.607   5.723  15.080  0.4342  0.2667 -0.3523
 7244TIP3    H143147   4.633   5.696  15.168  0.1202 -1.4841 -0.7470
 7244TIP3    H243148   4.683   5.702  15.026  1.0693  2.3989 -0.3804
 7245TIP3   OH243149   7.156   0.935  12.182  0.0147 -0.2642 -0.1659
 7245TIP3    H143150   7.177   0.848  12.215  2.6224 -0.1423 -1.2049
 7245TIP3    H243151   7.061   0.936  12.175 -0.3186 -1.9970  2.5071
 7246TIP3   OH243152   0.613   1.710   2.952  0.1758  0.4055  0.0624
 7246TIP3    H143153   0.567   1.756   3.023  0.4431 -0.4270  0.7926
 7246TIP3    H243154   0.601   1.766   2.875 -2.6797 -0.0864  0.0443
 7247TIP3   OH243155   6.561   1.417   2.429 -0.0871  0.0826 -0.2367
 7247TIP3    H143156   6.615   1.401   2.351  1.5930  0.1782  0.8550
 7247TIP3    H243157   6.536   1.329   2.458  0.3381 -0.0217 -0.1757
 7248TIP3   OH243158   3.174   0.956   5.045  0.4587 -0.2803  0.1550
 7248TIP3    H143159   3.201   0.903   4.969  0.4951  0.0976 -0.0968
 7248TIP3    H243160   3.234   1.030   5.045  0.1484 -0.0277  0.2705
 7249TIP3   OH243161   2.593   4.869  11.051  0.2143  0.1908  0.0431
 7249TIP3    H143162   2.684   4.840  11.056  0.3880  0.6913 -0.1871
 7249TIP3    H243163   2.594   4.941  10.988 -0.0281  1.3645  1.3343
 7250TIP3   OH243164   6.937   1.706  12.558 -0.3672  0.4286 -0.0070
 7250TIP3    H143165   6.902   1.745  12.638  0.6963  1.3004  0.0513
 7250TIP3    H243166   7.021   1.749  12.545 -0.3463  0.0106 -1.3868
 7251TIP3   OH243167   2.430   6.695  14.461 -0.4355  0.0525  0.6668
 7251TIP3    H143168   2.418   6.761  14.530  0.7481 -0.2391  1.1789
 7251TIP3    H243169   2.408   6.612  14.503 -1.3653  0.0375  0.1865
 7252TIP3   OH243170   0.495   0.447  15.387  0.2706 -0.3060 -0.6820
 7252TIP3    H143171   0.497   0.407  15.300 -1.1033 -0.3061 -0.7439
 7252TIP3    H243172   0.525   0.377  15.445 -1.7324 -1.3722 -0.8338
 7253TIP3   OH243173   5.334   3.339  15.328 -0.1632 -0.7465  0.1279
 7253TIP3    H143174   5.268   3.395  15.369 -0.0162 -1.5188  1.4612
 7253TIP3    H243175   5.369   3.287  15.399 -0.6104 -2.8950 -1.1266
 7254TIP3   OH243176   5.973   1.564  10.125  0.0058 -0.0572 -0.0952
 7254TIP3    H143177   5.882   1.571  10.096  0.0256 -1.9137 -0.7264
 7254TIP3    H243178   6.008   1.490  10.075  1.2574 -0.7268  1.7024
 7255TIP3   OH243179   0.984   6.463  14.447 -0.7160  0.2568 -0.1534
 7255TIP3    H143180   0.920   6.428  14.510 -0.1153  1.6336  1.2921
 7255TIP3    H243181   1.015   6.386  14.399 -1.8365 -0.7276  0.6502
 7256TIP3   OH243182   1.126   4.667  11.085 -0.1625 -0.0613 -0.4831
 7256TIP3    H143183   1.166   4.582  11.104  0.3454  0.1927 -0.4007
 7256TIP3    H243184   1.185   4.708  11.022 -1.0276 -0.2537 -1.4424
 7257TIP3   OH243185   6.616   2.702   9.269 -0.2212 -0.2390  0.2010
 7257TIP3    H143186   6.665   2.688   9.350  0.3049  1.1754  0.1508
 7257TIP3    H243187   6.544   2.760   9.293 -1.7870 -2.0890  0.2151
 7258TIP3   OH243188   2.187   3.886  10.329  0.5345  0.4575 -0.1257
 7258TIP3    H143189   2.243   3.857  10.401  0.2021  1.8309  0.7159
 7258TIP3    H243190   2.105   3.913  10.371  0.5644  1.8911 -0.9290
 7259TIP3   OH243191   4.676   3.869   5.629  0.3848 -0.0706 -0.2330
 7259TIP3    H143192   4.763   3.882   5.593  0.8011  0.1303  0.7959
 7259TIP3    H243193   4.691   3.841   5.720 -0.6044  1.8737  0.5910
 7260TIP3   OH243194   1.841   0.406   4.623  0.4418 -0.5656  0.0887
 7260TIP3    H143195   1.917   0.462   4.607  0.9018 -1.3871 -0.6406
 7260TIP3    H243196   1.877   0.323   4.652 -0.2865  0.4651  4.7389
 7261TIP3   OH243197   5.319   7.045  11.111  0.5457 -0.1332 -0.2615
 7261TIP3    H143198   5.311   6.954  11.084  0.2044  0.2175 -1.4054
 7261TIP3    H243199   5.353   7.090  11.033 -2.2018  1.2496 -0.7948
 7262TIP3   OH243200   4.301   0.766   2.366  0.3930  0.4834  0.4041
 7262TIP3    H143201   4.332   0.740   2.452 -0.2517  0.9450  0.7841
 7262TIP3    H243202   4.207   0.778   2.376  0.5919  2.6720  0.2102
 7263TIP3   OH243203   0.324   7.042  10.599 -0.5723  0.0199  0.0660
 7263TIP3    H143204   0.373   6.991  10.535 -0.3548 -0.8481  0.8958
 7263TIP3    H243205   0.294   6.977  10.663 -0.3485  0.9215  1.1182
 7264TIP3   OH243206   5.131   1.450   4.419  0.4594 -0.1314  0.5216
 7264TIP3    H143207   5.116   1.418   4.508  1.6760  0.4555  0.9715
 7264TIP3    H243208   5.078   1.529   4.413  1.3653  0.5697  1.2266
 7265TIP3   OH243209   5.662   2.386  14.902 -0.3745 -0.2690  0.3110
 7265TIP3    H143210   5.613   2.400  14.821 -1.5055 -1.1165  0.8241
 7265TIP3    H243211   5.723   2.315  14.881  0.5200  0.6343 -0.2598
 7266TIP3   OH243212   0.912   2.678  10.938 -0.5805 -0.0403 -0.2157
 7266TIP3    H143213   0.901   2.615  10.868 -3.2063  0.0359  0.0254
 7266TIP3    H243214   0.985   2.733  10.910 -1.7900  0.2519 -3.1020
 7267TIP3   OH243215   2.204   0.099   2.816 -0.3659 -0.2348  0.2782
 7267TIP3    H143216   2.265   0.159   2.773 -0.7510 -0.7471 -1.0291
 7267TIP3    H243217   2.259   0.032   2.855  0.0038  0.3968  0.8773
 7268TIP3   OH243218   3.353   6.699  11.939  0.1172 -0.0119  0.2004
 7268TIP3    H143219   3.413   6.758  11.985 -0.8269  0.0786  1.3622
 7268TIP3    H243220   3.304   6.756  11.880  0.0448  0.1773  0.4422
 7269TIP3   OH243221   6.119   0.656  14.594 -0.1083  0.3040 -0.5671
 7269TIP3    H143222   6.206   0.631  14.625 -0.4309 -0.0596  0.0914
 7269TIP3    H243223   6.134   0.706  14.514  0.7109  0.3987 -0.3574
 7270TIP3   OH243224   1.311   1.802  13.315  0.1748  0.1185  0.3180
 7270TIP3    H143225   1.228   1.826  13.273 -0.1590 -2.1212 -0.4459
 7270TIP3    H243226   1.286   1.756  13.394  0.6897 -0.3486  0.2151
 7271TIP3   OH243227   3.751   7.054  15.296 -0.4432  0.4243 -0.1693
 7271TIP3    H143228   3.734   7.065  15.202  1.4297 -0.0596 -0.5976
 7271TIP3    H243229   3.814   7.123  15.317 -0.3488  0.1173  0.5867
 7272TIP3   OH243230   1.998   1.668  12.210 -0.0741  0.1135  0.0943
 7272TIP3    H143231   1.910   1.650  12.176  0.1941 -0.0064 -0.5496
 7272TIP3    H243232   1.999   1.762  12.226 -0.1793  0.1878 -0.3186
 7273TIP3   OH243233   3.414   4.469   3.096  0.3317 -0.6189 -0.1882
 7273TIP3    H143234   3.424   4.416   3.175  1.3250  0.6055  0.5422
 7273TIP3    H243235   3.450   4.554   3.119 -1.1873  0.3974 -1.3348
 7274TIP3   OH243236   0.600   0.698  15.349 -0.4837  0.4730 -0.0405
 7274TIP3    H143237   0.514   0.737  15.331 -1.0104  1.1444  3.3115
 7274TIP3    H243238   0.581   0.606  15.367 -0.3256  0.3693 -0.3929
 7275TIP3   OH243239   0.898   6.784   3.226  0.0515 -0.3998  0.0739
 7275TIP3    H143240   0.871   6.849   3.162 -0.1068 -0.8850 -0.3595
 7275TIP3    H243241   0.831   6.787   3.294  0.9960  1.1723  0.9957
 7276TIP3   OH243242   7.129   3.882   0.681 -0.6841  0.4360 -0.3779
 7276TIP3    H143243   7.094   3.869   0.770 -0.4233  0.1810 -0.3104
 7276TIP3    H243244   7.190   3.809   0.669  0.8959  1.6417  0.0438
 7277TIP3   OH243245   3.477   0.788   0.251  0.1804  0.3819  0.1075
 7277TIP3    H143246   3.420   0.745   0.314  2.4795 -1.8635  0.8767
 7277TIP3    H243247   3.516   0.861   0.298  0.2401  0.0346  0.6020
 7278TIP3   OH243248   5.058   6.104  13.885 -0.1544 -0.2459 -0.5995
 7278TIP3    H143249   5.109   6.024  13.873  1.4529  0.5200  0.5650
 7278TIP3    H243250   5.105   6.170  13.834 -1.5776 -0.0702 -1.7120
 7279TIP3   OH243251   2.082   4.206  10.393  0.1439  0.1365  0.6504
 7279TIP3    H143252   2.070   4.299  10.377 -0.3745 -0.0340  0.0049
 7279TIP3    H243253   2.055   4.163  10.312  2.3359 -0.4774  0.1802
 7280TIP3   OH243254   0.298   3.338   3.365 -1.1508 -0.1696 -0.7056
 7280TIP3    H143255   0.305   3.384   3.448 -0.9543 -1.1949 -0.1303
 7280TIP3    H243256   0.206   3.311   3.360 -1.3711  0.6687 -1.2570
 7281TIP3   OH243257   5.174   1.895  12.349 -0.2082 -0.3851 -0.0514
 7281TIP3    H143258   5.193   1.829  12.416 -4.1117  0.6985  2.4371
 7281TIP3    H243259   5.116   1.850  12.287 -2.3704  0.3235  1.3178
 7282TIP3   OH243260   5.950   3.749   0.435  0.3284  0.0295 -0.1984
 7282TIP3    H143261   5.867   3.723   0.474  0.2751  1.1050  0.4442
 7282TIP3    H243262   5.939   3.732   0.341 -0.0440 -1.2755  0.0718
 7283TIP3   OH243263   7.137   0.305  15.261 -0.5944  0.1565  0.0466
 7283TIP3    H143264   7.096   0.223  15.235  1.4349 -0.6039 -0.9889
 7283TIP3    H243265   7.152   0.296  15.355  2.5437 -2.1765 -0.5113
 7284TIP3   OH243266   3.351   1.696   2.830 -0.2161  0.0152 -0.2121
 7284TIP3    H143267   3.294   1.693   2.907  0.3345  1.5373  0.3059
 7284TIP3    H243268   3.365   1.790   2.814  0.2720 -0.2838 -1.7351
 7285TIP3   OH243269   0.711   3.758   2.083 -0.0281  0.3031  0.3137
 7285TIP3    H143270   0.668   3.751   1.998 -0.6815 -1.5423  0.7453
 7285TIP3    H243271   0.650   3.808   2.137  0.7663  2.2204 -0.4934
 7286TIP3   OH243272   4.351   2.707  10.096 -0.1709 -0.0681  0.4055
 7286TIP3    H143273   4.295   2.630  10.091  1.6654 -1.4158 -0.5983
 7286TIP3    H243274   4.426   2.680  10.149  1.4024  0.3428 -1.4718
 7287TIP3   OH243275   5.234   4.226  10.793  0.1323  0.3072  0.2837
 7287TIP3    H143276   5.306   4.254  10.850 -0.1337  0.0596  0.7421
 7287TIP3    H243277   5.264   4.143  10.756 -0.6852 -0.7931  1.9622
 7288TIP3   OH243278   4.445   0.870   4.878  0.3827  0.5268  0.3292
 7288TIP3    H143279   4.356   0.836   4.873  0.4521  0.0679  1.7417
 7288TIP3    H243280   4.446   0.923   4.958  1.6555 -0.4113  0.9806
 7289TIP3   OH243281   4.559   4.650  14.470 -0.0268  0.0121 -0.5167
 7289TIP3    H143282   4.531   4.614  14.386 -1.7831 -0.7911  0.3539
 7289TIP3    H243283   4.536   4.743  14.465  1.5732  0.4014 -1.5618
 7290TIP3   OH243284   0.160   5.037   3.205 -0.5873  0.4458  0.2563
 7290TIP3    H143285   0.128   5.012   3.292  0.4771  0.4241  0.6561
 7290TIP3    H243286   0.154   5.132   3.204 -1.2946  0.4057  0.0669
 7291TIP3   OH243287   3.484   2.283  10.750 -0.0981  0.0533  0.2710
 7291TIP3    H143288   3.419   2.331  10.698 -0.7446 -0.3141  0.7230
 7291TIP3    H243289   3.461   2.191  10.738 -0.4422 -0.0324  1.4242
 7292TIP3   OH243290   7.162   5.538   5.362  0.2135 -0.3734 -0.4087
 7292TIP3    H143291   7.237   5.479   5.366  0.2520 -0.2555  1.0755
 7292TIP3    H243292   7.162   5.583   5.446 -0.0161  1.5149 -1.3644
 7293TIP3   OH243293   0.500   3.270   0.735 -0.1103  0.5404  0.4983
 7293TIP3    H143294   0.593   3.258   0.754 -0.2943 -1.8099  0.1453
 7293TIP3    H243295   0.499   3.320   0.653  0.9130 -1.0347 -0.5233
 7294TIP3   OH243296   2.943   2.416  15.317  0.4782  0.3367 -0.2656
 7294TIP3    H143297   2.948   2.347  15.383  1.6976  0.8412  0.1943
 7294TIP3    H243298   2.911   2.493  15.365 -4.7863 -0.6752 -1.4579
 7295TIP3   OH243299   4.557   1.934  13.919 -0.0566  0.6606 -0.1337
 7295TIP3    H143300   4.621   1.929  13.989  0.0654 -2.4071 -0.3528
 7295TIP3    H243301   4.527   1.844  13.907 -1.6271  1.4172 -2.5987
 7296TIP3   OH243302   3.871   0.947   5.480 -0.1311  0.0791 -0.0822
 7296TIP3    H143303   3.882   0.881   5.549  0.8587 -0.7432 -0.9818
 7296TIP3    H243304   3.931   1.017   5.504  0.7936 -0.5512 -0.4792
 7297TIP3   OH243305   6.890   2.784   5.422 -0.3978 -0.0366 -0.1461
 7297TIP3    H143306   6.895   2.701   5.373  0.4758 -0.3884  0.5251
 7297TIP3    H243307   6.964   2.781   5.482 -0.0989  1.4442 -0.4165
 7298TIP3   OH243308   1.428   3.036   0.866 -0.0353 -0.3272 -0.3846
 7298TIP3    H143309   1.426   3.007   0.957  0.9261 -0.7921 -0.4977
 7298TIP3    H243310   1.375   2.971   0.819 -0.7604  0.0674 -0.1257
 7299TIP3   OH243311   4.648   1.420  14.264  0.5589 -0.1656 -0.3531
 7299TIP3    H143312   4.617   1.331  14.245 -0.2615 -0.3041  1.4324
 7299TIP3    H243313   4.739   1.420  14.236  0.0615 -0.9577 -2.1540
 7300TIP3   OH243314   4.193   4.281   2.169 -0.3301 -0.2560  0.7173
 7300TIP3    H143315   4.120   4.296   2.229 -0.1130  2.1617  0.4480
 7300TIP3    H243316   4.260   4.344   2.196  0.6351 -0.6298 -0.6866
 7301TIP3   OH243317   3.723   4.531  13.013  0.0778 -0.5021  0.0634
 7301TIP3    H143318   3.741   4.619  12.981 -0.6224 -0.6120 -0.6498
 7301TIP3    H243319   3.741   4.473  12.939 -0.7719 -0.8352  0.1108
 7302TIP3   OH243320   2.800   2.219   1.964  0.5246 -0.2916 -0.4067
 7302TIP3    H143321   2.757   2.135   1.982 -1.5830  0.9216  0.5582
 7302TIP3    H243322   2.795   2.267   2.047 -0.7791  1.8001 -1.6080
 7303TIP3   OH243323   3.995   5.107  12.893 -0.4392  0.2936 -0.4543
 7303TIP3    H143324   3.901   5.089  12.895 -0.3632 -0.0601  1.2372
 7303TIP3    H243325   4.006   5.169  12.821 -1.7393 -0.8240 -1.6681
 7304TIP3   OH243326   2.560   1.762  10.704  0.1098 -0.1830 -0.1237
 7304TIP3    H143327   2.554   1.713  10.786  0.3194 -2.1319 -1.2179
 7304TIP3    H243328   2.532   1.701  10.636  0.8392  1.0552 -1.6256
 7305TIP3   OH243329   4.361   5.850   4.157  0.3631 -0.0022 -0.5884
 7305TIP3    H143330   4.298   5.827   4.088  0.8764 -0.2692 -0.9725
 7305TIP3    H243331   4.387   5.766   4.195  1.7034 -0.0361 -1.5162
 7306TIP3   OH243332   0.206   1.306  10.018 -0.3321  0.8175  0.0846
 7306TIP3    H143333   0.165   1.277   9.936  0.4921  1.0619 -0.4206
 7306TIP3    H243334   0.300   1.293  10.004 -0.1288  1.5787  0.7118
 7307TIP3   OH243335   1.194   5.203   1.542 -0.6198 -0.1666 -0.0896
 7307TIP3    H143336   1.108   5.233   1.571  0.1885 -0.0493  2.4159
 7307TIP3    H243337   1.234   5.166   1.620  1.4361 -0.6670 -1.3055
 7308TIP3   OH243338   2.256   3.092   4.570 -0.2877  0.1371 -0.4594
 7308TIP3    H143339   2.169   3.085   4.531 -0.9331 -2.1486  1.1880
 7308TIP3    H243340   2.290   3.175   4.538 -3.4560  1.5869 -0.4002
 7309TIP3   OH243341   2.455   5.463  14.437 -0.2943 -0.2162  0.3941
 7309TIP3    H143342   2.463   5.556  14.414 -0.8463 -0.2033  0.2382
 7309TIP3    H243343   2.361   5.448  14.444 -0.2040 -0.7374  0.5423
 7310TIP3   OH243344   5.009   6.755  14.788  0.4636 -0.3650 -0.3870
 7310TIP3    H143345   5.091   6.773  14.834  0.8333  2.1238 -1.8595
 7310TIP3    H243346   4.941   6.767  14.855  1.1890 -2.4582  0.8501
 7311TIP3   OH243347   5.404   2.329   2.031 -0.2547 -0.3173  0.5836
 7311TIP3    H143348   5.477   2.339   2.093  0.9840 -0.7212 -0.7707
 7311TIP3    H243349   5.350   2.407   2.046  0.6177  0.1539  1.3945
 7312TIP3   OH243350   7.033   5.380  10.771 -0.3687 -0.2297 -0.4667
 7312TIP3    H143351   6.950   5.418  10.744 -0.0240  0.6821 -0.3093
 7312TIP3    H243352   7.012   5.291  10.799 -0.9435 -0.7589 -2.4339
 7313TIP3   OH243353   0.536   1.314  14.281  0.3766  0.4957 -0.9887
 7313TIP3    H143354   0.612   1.317  14.338 -1.2307 -0.3307  1.3373
 7313TIP3    H243355   0.513   1.406  14.267  0.9887  0.7158 -0.6056
 7314TIP3   OH243356   3.570   5.392   2.141 -0.2527  0.6073 -0.1313
 7314TIP3    H143357   3.557   5.448   2.218  0.6529 -0.4044  0.7876
 7314TIP3    H243358   3.494   5.410   2.086 -0.1215  2.5614  0.2306
 7315TIP3   OH243359   5.628   6.510  12.111 -0.1074 -0.5502 -0.4760
 7315TIP3    H143360   5.534   6.529  12.111  0.2672  1.5679 -1.4021
 7315TIP3    H243361   5.647   6.483  12.021  0.2723 -0.3730 -0.4528
 7316TIP3   OH243362   2.418   4.129   0.755 -0.1914  0.0427  0.2051
 7316TIP3    H143363   2.433   4.195   0.686 -1.5358 -0.1960 -0.3369
 7316TIP3    H243364   2.407   4.180   0.835 -1.8746  0.5566 -0.3157
 7317TIP3   OH243365   3.221   5.301   2.291  0.5271  0.3369  0.4018
 7317TIP3    H143366   3.166   5.309   2.369  0.4050  1.2828  0.2386
 7317TIP3    H243367   3.229   5.391   2.259  1.5206  0.1043 -0.0277
 7318TIP3   OH243368   0.569   1.348   2.183 -0.0052 -0.4992 -0.4969
 7318TIP3    H143369   0.609   1.425   2.143 -1.9423  0.6080 -0.4036
 7318TIP3    H243370   0.607   1.344   2.271 -1.7514  1.9463  0.4697
 7319TIP3   OH243371   3.766   4.615  11.202  0.5837  0.2291 -0.7756
 7319TIP3    H143372   3.826   4.687  11.182 -1.1800  2.0546  0.1686
 7319TIP3    H243373   3.821   4.547  11.240  1.8834  2.4337  1.5144
 7320TIP3   OH243374   5.634   1.475  13.246 -0.5944 -0.4382 -0.5546
 7320TIP3    H143375   5.723   1.507  13.258 -0.2796 -1.7834  1.2140
 7320TIP3    H243376   5.621   1.414  13.319 -2.9693 -0.2638 -0.7466
 7321TIP3   OH243377   2.854   1.925  12.337 -0.6406  0.0022 -0.1960
 7321TIP3    H143378   2.912   1.920  12.262 -0.0034  0.9720  0.2017
 7321TIP3    H243379   2.783   1.983  12.309 -1.3167 -1.0164 -0.6129
 7322TIP3   OH243380   0.496   1.007  14.418 -0.6635  0.7533 -0.4701
 7322TIP3    H143381   0.469   0.942  14.483  0.1673 -1.0496 -1.8360
 7322TIP3    H243382   0.439   1.083  14.434 -1.1413  0.0033  1.6785
 7323TIP3   OH243383   6.466   6.426   3.501  0.1279 -0.3267 -0.2236
 7323TIP3    H143384   6.518   6.490   3.549 -0.6102 -0.3589  0.6734
 7323TIP3    H243385   6.496   6.341   3.535  1.0428 -0.4766 -1.3437
 7324TIP3   OH243386   0.500   2.680  11.501 -0.3903 -0.6972  0.1182
 7324TIP3    H143387   0.534   2.593  11.483  4.6281  1.0345 -0.1432
 7324TIP3    H243388   0.420   2.686  11.449 -0.6403 -4.8377 -0.2876
 7325TIP3   OH243389   3.008   6.155  13.121 -0.7548 -0.0834  0.0296
 7325TIP3    H143390   2.961   6.096  13.063  0.3124  1.0645 -2.1105
 7325TIP3    H243391   2.940   6.213  13.157 -1.3087 -0.0960 -0.9783
 7326TIP3   OH243392   1.426   0.478   5.421 -0.0058 -0.2114  0.0800
 7326TIP3    H143393   1.513   0.515   5.435 -0.3325 -0.1221  2.2502
 7326TIP3    H243394   1.424   0.454   5.328  1.8078  1.0814 -0.3386
 7327TIP3   OH243395   3.025   1.788   2.609 -0.0956  0.3760  0.3019
 7327TIP3    H143396   2.977   1.852   2.663 -1.0199 -1.9191  2.3846
 7327TIP3    H243397   2.996   1.703   2.642  1.7079 -1.1474 -1.8037
 7328TIP3   OH243398   4.138   3.625  11.258 -0.6749  0.1157 -0.0111
 7328TIP3    H143399   4.132   3.658  11.168 -2.5974  1.5482  0.5704
 7328TIP3    H243400   4.199   3.552  11.253 -1.1487 -0.1991 -2.5895
 7329TIP3   OH243401   4.160   4.754  14.086  0.3729  0.1119 -0.1581
 7329TIP3    H143402   4.167   4.779  14.178  0.2662 -0.6982  0.0818
 7329TIP3    H243403   4.068   4.768  14.064  0.7450  2.0330 -0.6794
 7330TIP3   OH243404   5.348   2.325  11.993 -0.0793  0.2464 -0.2297
 7330TIP3    H143405   5.396   2.262  11.938 -0.8989  0.0054 -0.6863
 7330TIP3    H243406   5.287   2.271  12.043 -2.1076  0.7793 -1.9617
 7331TIP3   OH243407   1.311   2.885   0.116 -0.0661 -0.3509  1.0339
 7331TIP3    H143408   1.337   2.804   0.071  0.2820  0.0838  0.4490
 7331TIP3    H243409   1.350   2.877   0.203 -2.5205 -2.2081  2.0981
 7332TIP3   OH243410   2.502   0.982  13.053  0.3138 -0.2034 -0.0408
 7332TIP3    H143411   2.477   0.971  13.144 -0.4475  2.0673  0.0890
 7332TIP3    H243412   2.470   0.903  13.009 -1.0494 -0.4421  1.3153
 7333TIP3   OH243413   0.247   5.532  15.232  0.1003 -0.1317  0.0239
 7333TIP3    H143414   0.287   5.614  15.203 -0.3237 -0.3359 -1.1830
 7333TIP3    H243415   0.245   5.477  15.154 -0.8648 -0.7883  0.4849
 7334TIP3   OH243416   0.543   5.075  10.757 -0.3595  0.5529 -0.0246
 7334TIP3    H143417   0.471   5.139  10.757 -0.5806  0.3382  1.3950
 7334TIP3    H243418   0.574   5.074  10.847  0.7481 -0.1341 -0.3971
 7335TIP3   OH243419   5.870   3.482  15.122  0.2040  0.2245 -0.5184
 7335TIP3    H143420   5.782   3.470  15.156  1.1625  0.4002  2.2510
 7335TIP3    H243421   5.868   3.568  15.079 -0.9565  0.1900 -0.5535
 7336TIP3   OH243422   4.318   5.610   0.422  0.1099  0.3501 -0.6981
 7336TIP3    H143423   4.316   5.550   0.347 -0.6119 -1.8458  0.9643
 7336TIP3    H243424   4.404   5.651   0.418 -0.0408  0.5636 -2.8940
 7337TIP3   OH243425   2.521   2.819  14.012 -0.1186  0.3098  0.4395
 7337TIP3    H143426   2.545   2.765  13.936  0.3564 -1.1068  1.5550
 7337TIP3    H243427   2.443   2.866  13.984 -0.9486 -1.4519 -0.3845
 7338TIP3   OH243428   5.732   5.905   2.572  0.5877  0.2027 -0.1191
 7338TIP3    H143429   5.640   5.928   2.584  0.7598  2.1473 -2.1089
 7338TIP3    H243430   5.773   5.925   2.656 -0.9263 -1.8255  1.2143
 7339TIP3   OH243431   6.335   6.766  12.508 -0.2609 -0.3504 -0.1606
 7339TIP3    H143432   6.385   6.802  12.582 -2.4842 -1.1015  1.8691
 7339TIP3    H243433   6.304   6.843  12.461  0.1711  0.2040  0.4369
 7340TIP3   OH243434   7.144   6.259  13.201 -0.0176  0.0140 -0.3259
 7340TIP3    H143435   7.138   6.221  13.289 -0.4194 -0.0065 -0.3597
 7340TIP3    H243436   7.209   6.328  13.210  1.2606 -1.1219 -0.4228
 7341TIP3   OH243437   0.518   6.138   1.526  0.4816  0.1384  0.7354
 7341TIP3    H143438   0.447   6.133   1.590  0.3648 -0.2590  0.5773
 7341TIP3    H243439   0.566   6.217   1.550 -2.0774  2.5396 -1.2888
 7342TIP3   OH243440   3.872   6.795  11.225 -0.0201 -0.3592  0.3500
 7342TIP3    H143441   3.905   6.741  11.297 -1.1717 -0.7993  0.5773
 7342TIP3    H243442   3.949   6.818  11.175  0.6768 -0.9692  1.1109
 7343TIP3   OH243443   3.557   1.933  13.278  0.1094  0.1333 -0.3917
 7343TIP3    H143444   3.470   1.900  13.254 -0.7558 -0.0688  2.6350
 7343TIP3    H243445   3.591   1.869  13.341  1.9297  0.8760 -0.5492
 7344TIP3   OH243446   5.431   0.271   2.258 -0.2359 -0.0252  0.6243
 7344TIP3    H143447   5.412   0.354   2.302 -0.7516  0.1930 -0.0097
 7344TIP3    H243448   5.511   0.288   2.209 -1.3110  0.6528 -0.9457
 7345TIP3   OH243449   4.483   2.139   2.411 -0.3562 -0.0752 -0.1418
 7345TIP3    H143450   4.497   2.047   2.389 -0.9170  0.2989 -2.3079
 7345TIP3    H243451   4.412   2.167   2.353 -2.5316  0.9140  2.7171
 7346TIP3   OH243452   1.567   0.560   1.317 -0.3013  0.2180 -0.2899
 7346TIP3    H143453   1.626   0.543   1.244 -0.8815  1.0987 -0.9771
 7346TIP3    H243454   1.560   0.476   1.362 -0.8739 -0.6368 -1.9283
 7347TIP3   OH243455   4.419   6.039   1.411 -1.0998  0.1467  0.1049
 7347TIP3    H143456   4.473   5.960   1.423 -0.2256  0.7938  0.5969
 7347TIP3    H243457   4.468   6.107   1.457 -1.3955  1.1719 -1.0608
 7348TIP3   OH243458   6.500   6.928   3.086 -0.0384 -0.1894  1.2071
 7348TIP3    H143459   6.567   6.862   3.065 -0.5482 -0.5822  0.7929
 7348TIP3    H243460   6.500   6.986   3.010 -0.6412 -0.5827  0.9042
 7349TIP3   OH243461   0.450   3.211   3.967  0.0254 -0.3671 -0.1133
 7349TIP3    H143462   0.520   3.206   3.903 -0.7046 -3.7335 -0.8409
 7349TIP3    H243463   0.387   3.145   3.939 -2.9719  1.7201  1.1195
 7350TIP3   OH243464   1.316   3.610  12.917  0.3865 -0.1948  0.1112
 7350TIP3    H143465   1.304   3.702  12.895  0.2504  0.0116  1.0261
 7350TIP3    H243466   1.400   3.606  12.961  0.1348 -0.4225  0.5745
 7351TIP3   OH243467   2.282   0.717  13.390 -0.2020 -0.3622  0.1211
 7351TIP3    H143468   2.269   0.808  13.417  1.8448 -0.4358  1.5461
 7351TIP3    H243469   2.230   0.666  13.451 -1.1574 -0.1944 -0.5285
 7352TIP3   OH243470   0.218   0.443  11.504  0.0912 -0.2767  0.5802
 7352TIP3    H143471   0.259   0.526  11.526 -0.6186 -0.1021  1.2984
 7352TIP3    H243472   0.288   0.390  11.467  0.2864  1.0853 -1.1005
 7353TIP3   OH243473   1.457   0.421  14.601  0.3301 -0.0308  0.4120
 7353TIP3    H143474   1.532   0.365  14.620 -0.2212 -0.5257  1.1599
 7353TIP3    H243475   1.396   0.365  14.554 -0.4367 -0.2074  1.6038
 7354TIP3   OH243476   0.172   6.773   0.237  0.0757 -0.4454 -0.6442
 7354TIP3    H143477   0.098   6.800   0.290 -1.8623 -1.7396 -2.5339
 7354TIP3    H243478   0.219   6.709   0.291 -0.3069  0.1771  0.4580
 7355TIP3   OH243479   2.260   6.991  11.717 -0.5831  0.1823  0.6247
 7355TIP3    H143480   2.354   6.974  11.717 -0.3262  1.4377  1.2374
 7355TIP3    H243481   2.250   7.069  11.663 -1.0288  1.0600  1.9121
 7356TIP3   OH243482   5.068   4.544   4.226  0.1319  0.3101  0.1632
 7356TIP3    H143483   5.062   4.498   4.142 -0.1781 -0.8174  0.7813
 7356TIP3    H243484   5.047   4.477   4.291  0.2132  1.2098  1.1325
 7357TIP3   OH243485   2.405   1.454  13.407 -0.6266 -0.4349  0.4485
 7357TIP3    H143486   2.398   1.389  13.337  0.8784  0.4870 -0.6408
 7357TIP3    H243487   2.362   1.532  13.372 -0.8093 -0.2853  0.9957
 7358TIP3   OH243488   1.092   4.070  13.835 -0.6273  1.3285 -0.3302
 7358TIP3    H143489   1.173   4.103  13.796  1.0712 -1.8289  0.1123
 7358TIP3    H243490   1.099   4.092  13.928  0.6380 -0.2738  0.0193
 7359TIP3   OH243491   1.315   1.743   0.752 -0.2278 -0.0172 -0.6871
 7359TIP3    H143492   1.292   1.816   0.809 -0.1672 -0.1463 -0.4951
 7359TIP3    H243493   1.343   1.783   0.670  1.0185  0.2321 -0.1665
 7360TIP3   OH243494   3.166   6.347   0.476 -0.1051  0.0129  0.0525
 7360TIP3    H143495   3.170   6.365   0.570  2.4692  0.0034 -0.0018
 7360TIP3    H243496   3.141   6.254   0.470  1.0628 -0.3632  0.7904
 7361TIP3   OH243497   2.035   6.232   0.028  0.0612 -0.0816 -0.0082
 7361TIP3    H143498   2.059   6.283  -0.050  3.8495  2.2616  2.3859
 7361TIP3    H243499   2.091   6.155   0.025 -0.5945 -0.5603 -0.1150
 7362TIP3   OH243500   1.557   3.035  12.321 -0.1732  0.5277 -0.0555
 7362TIP3    H143501   1.589   3.125  12.309  0.1508  0.1069 -3.0641
 7362TIP3    H243502   1.608   3.002  12.395  0.8121  2.3214  0.1461
 7363TIP3   OH243503   4.770   3.218  12.038  0.3362  0.2672  1.1476
 7363TIP3    H143504   4.857   3.255  12.024 -0.1942  0.7138 -1.5200
 7363TIP3    H243505   4.762   3.150  11.971 -1.1901 -0.1098  1.6712
 7364TIP3   OH243506   5.673   5.426   5.072  0.6960  0.7059 -0.1663
 7364TIP3    H143507   5.594   5.479   5.060 -0.3251 -0.7840 -0.2489
 7364TIP3    H243508   5.641   5.336   5.080  2.3529  0.1240  0.3380
 7365TIP3   OH243509   1.230   0.437   1.942 -0.2601  0.0603 -0.0975
 7365TIP3    H143510   1.233   0.371   1.872  1.3119  0.0070 -0.0175
 7365TIP3    H243511   1.309   0.420   1.994 -0.5707  1.1250  0.7501
 7366TIP3   OH243512   5.047   3.140  10.594 -0.1407  0.1502 -0.3468
 7366TIP3    H143513   5.081   3.188  10.518 -0.3196 -1.5723 -1.5779
 7366TIP3    H243514   4.952   3.137  10.579 -0.1503 -0.4099 -0.1968
 7367TIP3   OH243515   2.140   1.399   3.485 -0.3848  0.3788 -0.1362
 7367TIP3    H143516   2.222   1.409   3.533 -0.4504 -2.5344  0.8360
 7367TIP3    H243517   2.165   1.356   3.403 -0.9477 -1.9401  0.8087
 7368TIP3   OH243518   3.168   7.148  13.600  0.1548  0.0258 -0.6754
 7368TIP3    H143519   3.163   7.102  13.516  3.0863 -1.7067 -0.0587
 7368TIP3    H243520   3.205   7.084  13.660  1.7542  2.3172  0.9834
 7369TIP3   OH243521   6.419   2.748  11.273 -0.3422 -0.3107 -0.1441
 7369TIP3    H143522   6.420   2.693  11.195 -1.0078  1.8329 -1.7290
 7369TIP3    H243523   6.508   2.741  11.308  0.4809 -0.0045 -2.0606
 7370TIP3   OH243524   5.570   1.285  12.368 -0.2761  0.3772 -0.2395
 7370TIP3    H143525   5.628   1.360  12.357 -0.5112  0.6795  0.4712
 7370TIP3    H243526   5.608   1.217  12.314  2.2044 -0.2523  2.0513
 7371TIP3   OH243527   7.161   4.441   3.705 -0.5279 -0.4657 -0.2507
 7371TIP3    H143528   7.216   4.394   3.642 -0.7414 -0.3134 -0.5587
 7371TIP3    H243529   7.172   4.394   3.787 -1.2159 -1.4503 -0.6955
 7372TIP3   OH243530   5.625   6.170   3.315  0.1127 -0.0366  0.5797
 7372TIP3    H143531   5.576   6.093   3.287  0.4648  1.2651 -4.5669
 7372TIP3    H243532   5.707   6.134   3.349 -1.2537 -1.9362  2.1116
 7373TIP3   OH243533   3.122   2.221  10.443 -0.1106  0.5206 -0.4871
 7373TIP3    H143534   3.074   2.301  10.422 -1.6160 -0.2763 -0.3073
 7373TIP3    H243535   3.064   2.175  10.505  2.2124  0.8144  2.0843
 7374TIP3   OH243536   0.322   3.293   2.868 -0.1830  0.1102 -0.4568
 7374TIP3    H143537   0.282   3.380   2.857  0.0964  0.2743 -0.2052
 7374TIP3    H243538   0.276   3.237   2.806 -1.3442  0.1104  0.3775
 7375TIP3   OH243539   6.968   2.446   1.226 -0.5763  0.3145 -0.0472
 7375TIP3    H143540   6.930   2.430   1.140 -0.4054  0.2062 -0.1052
 7375TIP3    H243541   6.996   2.359   1.256  1.1147  0.5720 -0.7203
 7376TIP3   OH243542   2.207   6.445   0.561  0.5712 -0.3097 -0.2313
 7376TIP3    H143543   2.127   6.444   0.507 -0.7207 -1.7526  1.5914
 7376TIP3    H243544   2.278   6.454   0.497 -0.8880 -1.6545 -2.1816
 7377TIP3   OH243545   2.815   1.555   2.129  0.2038 -0.0307 -0.2894
 7377TIP3    H143546   2.838   1.620   2.194 -0.9817  0.3962 -0.2794
 7377TIP3    H243547   2.727   1.527   2.153 -0.2432  0.1157 -1.6837
 7378TIP3   OH243548   0.865   5.844  13.239 -0.3894 -0.1951 -0.3034
 7378TIP3    H143549   0.859   5.880  13.327  3.2856  0.6246 -0.2095
 7378TIP3    H243550   0.883   5.920  13.183 -3.7339 -0.5225 -2.0728
 7379TIP3   OH243551   4.731   2.257   1.371 -0.0808  0.5093  1.0982
 7379TIP3    H143552   4.819   2.291   1.358  0.8281 -0.7672  3.3508
 7379TIP3    H243553   4.721   2.190   1.303  0.7752  0.5049  0.9680
 7380TIP3   OH243554   0.326   6.563   2.252 -0.3741  0.0963 -0.2309
 7380TIP3    H143555   0.347   6.581   2.160  0.1979  0.0870 -0.1074
 7380TIP3    H243556   0.386   6.620   2.301  1.4626 -2.0773  0.1862
 7381TIP3   OH243557   5.079   6.508   5.318 -0.3503  0.1194 -0.6842
 7381TIP3    H143558   5.116   6.520   5.405 -1.0788 -0.6826 -0.2571
 7381TIP3    H243559   5.039   6.593   5.298 -2.3703 -0.4020  0.8304
 7382TIP3   OH243560   6.888   6.018  12.377 -0.0328 -0.2208  0.2210
 7382TIP3    H143561   6.839   6.085  12.424  2.5006  0.9431  1.4223
 7382TIP3    H243562   6.952   5.986  12.440  1.1168 -1.2770 -1.3835
 7383TIP3   OH243563   7.078   1.744   3.204  0.1301  0.2561 -0.1862
 7383TIP3    H143564   7.029   1.826   3.204  0.8957  0.7246  0.5436
 7383TIP3    H243565   7.169   1.770   3.191  0.6179 -0.3071  1.8155
 7384TIP3   OH243566   6.024   1.670  13.602  0.4329  0.6122 -0.4570
 7384TIP3    H143567   6.073   1.747  13.631  1.6535  0.2649 -1.5253
 7384TIP3    H243568   6.002   1.688  13.511 -1.3653  0.7003 -0.0377
 7385TIP3   OH243569   1.721   0.397  13.347  0.0984  0.3278  0.4218
 7385TIP3    H143570   1.771   0.351  13.414 -0.1445 -1.0902 -0.3099
 7385TIP3    H243571   1.774   0.390  13.268 -0.9520 -0.7337 -0.2364
 7386TIP3   OH243572   5.562   5.104   2.262  0.3596  0.1640 -0.2208
 7386TIP3    H143573   5.624   5.069   2.326 -0.8274 -0.2167  0.7815
 7386TIP3    H243574   5.490   5.138   2.315 -0.0498  1.0860 -1.3239
 7387TIP3   OH243575   5.558   5.550  15.296 -0.4127 -0.2836 -0.1165
 7387TIP3    H143576   5.496   5.478  15.306 -0.1397 -0.7686 -1.7643
 7387TIP3    H243577   5.503   5.628  15.288 -0.7242 -0.3871  0.8139
 7388TIP3   OH243578   2.555   5.862  10.427  0.2942 -0.0109 -0.4158
 7388TIP3    H143579   2.546   5.804  10.503  1.1497 -0.8364 -0.9202
 7388TIP3    H243580   2.470   5.905  10.420 -0.1869 -0.7991  0.3102
 7389TIP3   OH243581   2.719   4.731   4.016 -0.0001 -0.1510 -0.0599
 7389TIP3    H143582   2.795   4.676   4.036  0.9577  0.8300 -0.8509
 7389TIP3    H243583   2.674   4.685   3.945 -0.0168 -0.6227  0.2501
 7390TIP3   OH243584   1.300   6.656   9.956 -0.2073  0.0477 -0.0331
 7390TIP3    H143585   1.285   6.665   9.861  1.6609 -0.2179 -0.3955
 7390TIP3    H243586   1.361   6.726   9.977  1.5759 -1.5515  0.3906
 7391TIP3   OH243587   1.373   5.498  15.026 -0.4398 -1.1017  0.3050
 7391TIP3    H143588   1.433   5.569  15.049  0.6140 -1.0646 -2.1820
 7391TIP3    H243589   1.288   5.541  15.017 -0.1849 -0.5046  0.6662
 7392TIP3   OH243590   3.458   1.371  14.692  0.3044  0.2981 -0.1031
 7392TIP3    H143591   3.372   1.376  14.734  1.0484  0.4456  1.4870
 7392TIP3    H243592   3.452   1.431  14.618 -0.4905  1.5145  0.9097
 7393TIP3   OH243593   3.477   0.834   5.854  0.1269  0.0675 -0.3163
 7393TIP3    H143594   3.386   0.816   5.876  0.3435  0.6075  1.1403
 7393TIP3    H243595   3.478   0.927   5.831  0.1530 -0.1679 -1.3133
 7394TIP3   OH243596   3.209   3.712  13.751  0.1746  0.1999 -0.1662
 7394TIP3    H143597   3.129   3.723  13.803 -0.3964  0.0388 -0.9853
 7394TIP3    H243598   3.203   3.622  13.718  0.4849  0.3269 -0.5737
 7395TIP3   OH243599   3.210   7.133   1.190 -0.1642 -0.2628  0.2838
 7395TIP3    H143600   3.303   7.145   1.210  0.0208 -2.0125  0.6342
 7395TIP3    H243601   3.203   7.042   1.163 -1.4455  0.4071 -1.8680
 7396TIP3   OH243602   4.929   4.935   3.665  0.2683  0.1512  0.4135
 7396TIP3    H143603   4.941   4.965   3.575  0.1636  0.9863  0.6713
 7396TIP3    H243604   4.889   4.848   3.656 -2.4286  1.3535 -0.3790
 7397TIP3   OH243605   2.758   2.675   1.112 -0.0601  0.2665  0.2567
 7397TIP3    H143606   2.845   2.677   1.074 -0.1352  1.1913  0.1081
 7397TIP3    H243607   2.745   2.584   1.139  0.8248  0.0621  0.0073
 7398TIP3   OH243608   4.244   1.177   1.004 -0.4499  0.3937  0.4878
 7398TIP3    H143609   4.209   1.249   1.056 -0.9960  0.4807  0.0087
 7398TIP3    H243610   4.222   1.199   0.914  0.7004  0.3636  0.1759
 7399TIP3   OH243611   4.894   0.188  11.390 -0.3228  0.1453  0.0891
 7399TIP3    H143612   4.950   0.185  11.467 -0.9640 -1.0763  0.5301
 7399TIP3    H243613   4.900   0.279  11.360  1.8372  0.0615  0.1272
 7400TIP3   OH243614   6.850   3.056  11.777  0.5838 -0.1308  0.6222
 7400TIP3    H143615   6.855   3.151  11.784  0.9486 -0.1111  0.1079
 7400TIP3    H243616   6.823   3.040  11.687 -1.5783 -0.4616  1.2700
 7401TIP3   OH243617   5.362   1.844   0.561  0.1074  0.1974  0.2422
 7401TIP3    H143618   5.338   1.845   0.653  0.4282 -1.4348  0.3776
 7401TIP3    H243619   5.353   1.935   0.532  1.0401  0.9512  2.1412
 7402TIP3   OH243620   2.523   0.364  14.226  0.6175 -0.0751 -0.2369
 7402TIP3    H143621   2.516   0.271  14.203 -0.8473  0.2034 -0.9956
 7402TIP3    H243622   2.532   0.409  14.142 -0.9293  0.6494 -0.0401
 7403TIP3   OH243623   5.304   1.486   1.090 -0.2437 -0.0112  0.0711
 7403TIP3    H143624   5.373   1.551   1.080 -1.2072  0.9966 -0.3346
 7403TIP3    H243625   5.281   1.489   1.183 -0.5665  0.5533 -0.0201
 7404TIP3   OH243626   3.826   1.940  11.206  0.3246  0.2452 -0.7372
 7404TIP3    H143627   3.817   2.015  11.265 -0.5975 -0.9566  0.7369
 7404TIP3    H243628   3.761   1.956  11.138 -0.0131  0.6908 -0.3195
 7405TIP3   OH243629   6.208   5.606   4.418  0.3372  0.2078 -0.2370
 7405TIP3    H143630   6.226   5.514   4.397  0.7003 -0.3029  1.9806
 7405TIP3    H243631   6.295   5.646   4.422  0.2305  0.4567 -0.4334
 7406TIP3   OH243632   2.552   4.011  13.067 -0.0526 -0.4231  0.8504
 7406TIP3    H143633   2.517   3.990  12.980  1.2262 -1.6617  0.5895
 7406TIP3    H243634   2.483   4.062  13.109 -1.4944 -1.4208 -0.1980
 7407TIP3   OH243635   6.750   3.543   9.874  0.5395  0.3481 -0.3086
 7407TIP3    H143636   6.660   3.518   9.895  1.0386 -0.9469  0.3686
 7407TIP3    H243637   6.763   3.513   9.784  0.3494  0.3731 -0.3445
 7408TIP3   OH243638   1.317   0.118  12.770 -0.0430 -0.1749  0.4036
 7408TIP3    H143639   1.234   0.117  12.818  0.7936 -0.7165  1.9105
 7408TIP3    H243640   1.338   0.025  12.758  0.1713 -0.0371 -0.2926
 7409TIP3   OH243641   3.691   2.301  14.848 -0.3331  0.5516 -0.2496
 7409TIP3    H143642   3.629   2.321  14.778 -1.3932 -1.4309  0.0581
 7409TIP3    H243643   3.767   2.263  14.804 -0.8429 -0.3450 -0.3611
 7410TIP3   OH243644   0.579   5.655   9.573 -0.1179 -0.1175  0.1431
 7410TIP3    H143645   0.534   5.612   9.646  0.6815 -0.2479  0.5746
 7410TIP3    H243646   0.513   5.714   9.536 -0.3589  0.4063  1.3599
 7411TIP3   OH243647   2.330   6.114  13.229 -0.2922 -0.3853 -0.0721
 7411TIP3    H143648   2.290   6.104  13.142 -1.2810 -2.0161  0.5048
 7411TIP3    H243649   2.316   6.029  13.271  0.1157  0.3799  1.7063
 7412TIP3   OH243650   5.696   3.337   0.503  0.1342  0.3864 -0.1005
 7412TIP3    H143651   5.622   3.291   0.542  0.0676  0.6347  0.0696
 7412TIP3    H243652   5.773   3.299   0.545  0.0267  1.2043  0.8692
 7413TIP3   OH243653   5.757   2.686  14.910  0.2651 -0.0532  0.6018
 7413TIP3    H143654   5.799   2.621  14.966 -1.0065 -0.8516  0.6662
 7413TIP3    H243655   5.716   2.748  14.971  0.0894 -0.1214  0.5554
 7414TIP3   OH243656   6.511   2.196  11.006 -0.3423  0.2730  0.4561
 7414TIP3    H143657   6.551   2.173  11.090 -1.5859  0.5356  1.1316
 7414TIP3    H243658   6.425   2.231  11.028 -1.5786 -1.5898 -1.0283
 7415TIP3   OH243659   6.580   2.812  11.691 -0.2676  0.1733 -0.2261
 7415TIP3    H143660   6.637   2.805  11.769 -0.6238 -2.5946 -0.1151
 7415TIP3    H243661   6.494   2.785  11.722 -0.9249  1.1932 -1.1218
 7416TIP3   OH243662   2.827   6.092  14.097  0.2945 -0.7145  0.0132
 7416TIP3    H143663   2.846   6.127  14.185  0.5374  0.2060 -0.3878
 7416TIP3    H243664   2.781   6.010  14.113 -0.0807 -0.3293  1.0129
 7417TIP3   OH243665   1.628   1.378  10.620  0.8184  0.0833 -0.1350
 7417TIP3    H143666   1.623   1.293  10.576  1.7391  0.2286 -0.5296
 7417TIP3    H243667   1.548   1.424  10.592  0.8594 -0.2393 -0.7848
 7418TIP3   OH243668   0.567   2.391  14.891  0.2253 -0.5716  0.3222
 7418TIP3    H143669   0.587   2.459  14.827 -4.0228  0.6694  0.0392
 7418TIP3    H243670   0.572   2.436  14.975  0.5585 -0.7873  0.4193
 7419TIP3   OH243671   3.728   4.717   1.946 -0.2376  0.1129 -0.8004
 7419TIP3    H143672   3.710   4.749   2.035  0.4850 -0.0995 -0.5721
 7419TIP3    H243673   3.643   4.686   1.915 -0.6768  0.9765 -0.5124
 7420TIP3   OH243674   6.821   0.223   5.614 -0.6903 -0.4596  0.3890
 7420TIP3    H143675   6.800   0.237   5.522 -0.6225 -1.0331  0.2786
 7420TIP3    H243676   6.802   0.130   5.629 -1.6587 -0.1491  1.2184
 7421TIP3   OH243677   2.370   5.225   2.538  0.1335 -0.7642  0.1141
 7421TIP3    H143678   2.365   5.239   2.443 -1.4854  0.8305  0.3977
 7421TIP3    H243679   2.364   5.312   2.576  2.3643 -1.2128  1.6951
 7422TIP3   OH243680   1.060   4.958  12.535 -0.6568 -0.3892  0.3806
 7422TIP3    H143681   1.080   4.968  12.442  0.2028 -0.7870  0.5078
 7422TIP3    H243682   1.114   5.024  12.578 -1.3361  0.0473  0.5801
 7423TIP3   OH243683   0.145   4.158  10.266 -0.8282 -0.6777 -0.4258
 7423TIP3    H143684   0.115   4.244  10.297  0.1435  0.4766 -2.4404
 7423TIP3    H243685   0.205   4.127  10.334  0.2672  1.1614 -0.4764
 7424TIP3   OH243686   6.931   2.217   2.229  0.0460 -0.9474 -0.5917
 7424TIP3    H143687   6.935   2.209   2.133 -0.7432 -0.0499 -0.7118
 7424TIP3    H243688   7.014   2.260   2.252  0.3146 -1.3215 -0.8550
 7425TIP3   OH243689   0.963   2.311  12.223  0.1471 -0.1223 -0.8082
 7425TIP3    H143690   1.018   2.349  12.154  1.6886  1.6313  1.2255
 7425TIP3    H243691   0.998   2.349  12.304 -1.0772 -2.6462  1.0336
 7426TIP3   OH243692   5.421   4.574  15.306 -0.1413  0.3648 -0.1289
 7426TIP3    H143693   5.346   4.525  15.272 -0.0793  0.1974 -0.0254
 7426TIP3    H243694   5.460   4.516  15.371  0.2137  0.3617 -0.3437
 7427TIP3   OH243695   5.247   4.206   4.784 -0.1212  0.3485  0.3937
 7427TIP3    H143696   5.328   4.224   4.738 -0.6525  1.7895 -0.0593
 7427TIP3    H243697   5.178   4.219   4.719 -0.8075  1.0524  1.2203
 7428TIP3   OH243698   2.471   3.216  10.908 -0.0455 -0.1094 -0.0881
 7428TIP3    H143699   2.512   3.227  10.822 -0.3173 -1.3059 -0.4022
 7428TIP3    H243700   2.506   3.133  10.940  0.8753  0.8371  1.4630
 7429TIP3   OH243701   0.396   1.403   9.578  0.2973  0.5407  0.0534
 7429TIP3    H143702   0.451   1.371   9.506 -0.3345 -4.3695  1.3947
 7429TIP3    H243703   0.308   1.406   9.541  0.3675  0.8542 -0.0933
 7430TIP3   OH243704   6.845   5.059   1.976 -0.3770 -0.1575 -0.6723
 7430TIP3    H143705   6.940   5.046   1.983 -0.4339 -0.7064 -0.8481
 7430TIP3    H243706   6.820   5.101   2.057 -0.0718 -0.5706 -0.3590
 7431TIP3   OH243707   5.214   3.075   1.996  0.2081  0.2522  0.1696
 7431TIP3    H143708   5.264   3.137   1.944 -0.9671  0.3903 -0.8413
 7431TIP3    H243709   5.132   3.120   2.015  0.0075 -0.3735  0.8634
 7432TIP3   OH243710   4.817   3.105  10.438  0.3188 -0.0391  0.5186
 7432TIP3    H143711   4.792   3.075  10.351 -0.1596  2.7822 -0.4265
 7432TIP3    H243712   4.788   3.035  10.497 -1.6825 -0.9180 -1.3596
 7433TIP3   OH243713   6.635   7.098  10.886  0.2503  0.2884  0.3256
 7433TIP3    H143714   6.547   7.067  10.866 -0.3558  2.4562 -0.7151
 7433TIP3    H243715   6.668   7.132  10.803  1.6428  0.5158  0.9380
 7434TIP3   OH243716   6.614   4.645   2.961  0.1653  0.2793  0.1524
 7434TIP3    H143717   6.608   4.739   2.980  3.4648  0.9558 -1.4393
 7434TIP3    H243718   6.645   4.605   3.042 -1.9697  0.3360  1.0754
 7435TIP3   OH243719   5.479   0.902  14.720  0.2721  0.3309 -0.0723
 7435TIP3    H143720   5.481   0.918  14.626 -1.3924  0.0042 -0.1859
 7435TIP3    H243721   5.402   0.847  14.734  0.5464  0.2810  1.4784
 7436TIP3   OH243722   3.329   5.970   4.401  0.8537 -0.4018  0.1358
 7436TIP3    H143723   3.340   6.052   4.354  0.5845  0.0809  0.8824
 7436TIP3    H243724   3.345   5.901   4.336 -0.0835  0.2326 -0.8007
 7437TIP3   OH243725   4.962   1.141   4.309 -0.1740  0.3567  0.1215
 7437TIP3    H143726   5.053   1.110   4.301  0.1428  1.4084 -0.4415
 7437TIP3    H243727   4.962   1.227   4.268 -1.6502 -0.0257 -0.7404
 7438TIP3   OH243728   5.080   5.296  11.086  0.2046  0.3190 -0.4594
 7438TIP3    H143729   5.022   5.338  11.149  0.0343  1.5087 -1.3620
 7438TIP3    H243730   5.079   5.355  11.010  1.7869 -0.1620 -0.8896
 7439TIP3   OH243731   4.729   3.800   5.106  0.3481  0.2904  0.1766
 7439TIP3    H143732   4.644   3.810   5.148 -0.5687 -0.3719 -1.4323
 7439TIP3    H243733   4.738   3.706   5.092  2.5997  0.0108  2.7225
 7440TIP3   OH243734   1.818   1.794  12.648  0.1437  0.2787 -0.2465
 7440TIP3    H143735   1.731   1.798  12.608 -0.4244  0.0094  0.9369
 7440TIP3    H243736   1.841   1.701  12.646 -0.2513  0.1535  0.8047
 7441TIP3   OH243737   3.918   0.541  15.345  0.0761  0.5203 -0.5632
 7441TIP3    H143738   3.845   0.599  15.364  1.0475  1.6384 -0.1546
 7441TIP3    H243739   3.915   0.530  15.250 -0.2960  1.0116 -0.6120
 7442TIP3   OH243740   5.011   2.355   5.009 -0.4449  0.2009  0.1075
 7442TIP3    H143741   4.977   2.279   5.057  1.3067 -1.2980 -0.8732
 7442TIP3    H243742   5.077   2.392   5.067 -0.8717  0.6045  0.3361
 7443TIP3   OH243743   6.841   0.006  14.971  0.3364  0.3790  0.0040
 7443TIP3    H143744   6.780  -0.065  14.993 -0.6019  0.7297 -1.3412
 7443TIP3    H243745   6.878   0.033  15.056  0.5007 -1.4968  0.5705
 7444TIP3   OH243746   1.330   6.659   9.648  0.3809  0.3794 -0.2135
 7444TIP3    H143747   1.410   6.657   9.597  0.6836  1.0731  0.2164
 7444TIP3    H243748   1.282   6.581   9.621  2.0005 -1.0579  0.8243
 7445TIP3   OH243749   0.577   3.822   5.835 -0.3977 -0.0044  0.0666
 7445TIP3    H143750   0.595   3.897   5.890  0.6756 -0.5162  0.4383
 7445TIP3    H243751   0.652   3.764   5.847 -1.0539 -0.9986 -0.4482
 7446TIP3   OH243752   3.798   0.754   0.427  0.1338 -0.0580 -0.2190
 7446TIP3    H143753   3.857   0.681   0.410 -0.3257 -0.7762  1.1679
 7446TIP3    H243754   3.714   0.713   0.448  0.1927  0.7953  1.8945
 7447TIP3   OH243755   2.924   6.558   4.194 -0.3611 -0.1242 -0.7603
 7447TIP3    H143756   2.835   6.581   4.166 -1.3061 -0.3055  1.7952
 7447TIP3    H243757   2.966   6.642   4.211 -1.5608  0.0106  2.1100
 7448TIP3   OH243758   1.683   5.612   3.958 -0.0189  0.0572  0.0973
 7448TIP3    H143759   1.613   5.590   3.897 -0.5075  0.1119  0.6315
 7448TIP3    H243760   1.663   5.701   3.987 -0.1341 -0.1869  0.7927
 7449TIP3   OH243761   5.204   4.389  15.286  0.1186 -0.4360  0.1530
 7449TIP3    H143762   5.125   4.393  15.233  1.3406 -0.5219 -1.7464
 7449TIP3    H243763   5.263   4.331  15.238  1.3689 -0.3316  1.4925
 7450TIP3   OH243764   6.723   4.892   4.105  0.7137 -0.2906 -0.0619
 7450TIP3    H143765   6.737   4.835   4.180  1.1171 -0.3783 -0.2005
 7450TIP3    H243766   6.793   4.868   4.043 -0.1263 -0.8315 -0.8344
 7451TIP3   OH243767   1.227   7.151  15.457 -0.0875 -0.1164 -0.3609
 7451TIP3    H143768   1.320   7.156  15.438 -0.1165  0.0044 -0.4683
 7451TIP3    H243769   1.208   7.057  15.463  0.2925 -0.1283  0.8814
 7452TIP3   OH243770   3.538   1.125  10.837  0.4960  0.6405 -0.1259
 7452TIP3    H143771   3.546   1.113  10.932 -0.8972 -0.3593 -0.1056
 7452TIP3    H243772   3.445   1.141  10.823  0.7003  0.8484 -1.3315
 7453TIP3   OH243773   3.520   0.336  13.404  0.3147 -0.2744 -0.1481
 7453TIP3    H143774   3.550   0.372  13.488 -0.1252 -1.4167  0.5243
 7453TIP3    H243775   3.429   0.367  13.396 -0.0958 -1.2583  0.4767
 7454TIP3   OH243776   0.385   3.724   4.337 -0.2649 -0.1589  0.2243
 7454TIP3    H143777   0.431   3.686   4.262  3.0396  1.5388  1.2273
 7454TIP3    H243778   0.332   3.794   4.299  1.3721  0.6871 -0.6046
 7455TIP3   OH243779   1.890   4.317   3.467 -0.4222 -0.5977 -0.4853
 7455TIP3    H143780   1.965   4.303   3.409 -0.0606 -1.1512  0.1067
 7455TIP3    H243781   1.855   4.230   3.484  0.0516 -0.5452  0.8732
 7456TIP3   OH243782   1.080   6.307   1.042  0.0199  0.0879 -0.1186
 7456TIP3    H143783   1.133   6.302   1.122  1.7166 -0.3746 -1.2277
 7456TIP3    H243784   1.097   6.394   1.007 -0.3158  0.1021 -0.2515
 7457TIP3   OH243785   1.878   3.568   4.471  0.6523 -0.8367 -0.0930
 7457TIP3    H143786   1.875   3.599   4.381 -1.3587 -1.5905 -0.3345
 7457TIP3    H243787   1.895   3.646   4.523  0.1920 -0.1065 -1.0097
 7458TIP3   OH243788   1.278   2.712  11.852 -0.4453 -0.0754 -0.0741
 7458TIP3    H143789   1.293   2.675  11.939 -4.2901 -1.2000  0.2622
 7458TIP3    H243790   1.264   2.806  11.869  0.5729  0.0442  0.2168
 7459TIP3   OH243791   2.766   2.637  13.432 -0.9622  0.3565 -0.0948
 7459TIP3    H143792   2.808   2.552  13.446  0.0464  1.0659  1.4951
 7459TIP3    H243793   2.673   2.617  13.421 -0.2996 -1.3551 -4.5407
 7460TIP3   OH243794   2.197   5.239  14.604  0.3649 -0.2063  0.2262
 7460TIP3    H143795   2.249   5.275  14.677  0.8330 -0.8378  0.2158
 7460TIP3    H243796   2.241   5.157  14.582 -0.8075 -0.9090  0.4064
 7461TIP3   OH243797   0.858   4.804  14.940 -0.2529  0.4760 -0.0179
 7461TIP3    H143798   0.791   4.753  14.985 -0.2923  0.3673 -0.1966
 7461TIP3    H243799   0.832   4.802  14.848  0.1085  0.2542 -0.1168
 7462TIP3   OH243800   1.719   4.498  10.809 -0.2958 -0.4318  0.2076
 7462TIP3    H143801   1.776   4.427  10.780 -0.5612  0.0491 -1.6319
 7462TIP3    H243802   1.770   4.578  10.792 -0.6191 -0.1013  0.7603
 7463TIP3   OH243803   4.632   7.068  13.118 -0.3226 -0.2874  0.1775
 7463TIP3    H143804   4.614   7.140  13.179 -0.9081 -0.0776 -0.2358
 7463TIP3    H243805   4.674   7.110  13.043 -0.8903 -0.3332 -0.1718
 7464TIP3   OH243806   6.334   5.831  15.480  0.1888 -0.6362 -0.2524
 7464TIP3    H143807   6.267   5.809  15.415 -1.1920 -2.2553  1.5921
 7464TIP3    H243808   6.293   5.895  15.537  0.3925 -1.2165  0.5673
 7465TIP3   OH243809   0.080   2.527  12.530  0.3677 -0.0672  0.3157
 7465TIP3    H143810   0.001   2.476  12.548  0.2877  0.3268  1.1138
 7465TIP3    H243811   0.070   2.555  12.439 -1.9774  2.6870  1.2651
 7466TIP3   OH243812   2.906   3.441  12.617 -0.8881 -0.4755 -0.4219
 7466TIP3    H143813   2.863   3.398  12.543 -1.7338  0.1823 -0.3302
 7466TIP3    H243814   2.997   3.411  12.613 -1.5584 -2.8054  0.0456
 7467TIP3   OH243815   0.251   2.093  12.702  0.7087 -0.4723 -0.1901
 7467TIP3    H143816   0.272   2.129  12.616 -0.2106 -1.6993 -0.9555
 7467TIP3    H243817   0.158   2.112  12.714  1.3649  2.0497  1.7590
 7468TIP3   OH243818   2.605   0.114  13.706 -0.5220  0.2547  0.0977
 7468TIP3    H143819   2.566   0.082  13.625 -1.6886  0.1301  0.6931
 7468TIP3    H243820   2.662   0.043  13.734 -0.5996  0.0374 -0.2818
 7469TIP3   OH243821   5.290   0.206  11.378  0.5186 -0.4163 -0.0142
 7469TIP3    H143822   5.320   0.296  11.366 -3.4526  1.2984  1.2571
 7469TIP3    H243823   5.274   0.198  11.472 -0.2600 -2.0672 -0.2549
 7470TIP3   OH243824   2.905   5.962  14.712 -0.2873  0.8748 -0.3604
 7470TIP3    H143825   2.957   6.018  14.655  0.7185  0.0730 -0.2679
 7470TIP3    H243826   2.875   5.891  14.656  0.9495 -0.0714  0.1342
 7471TIP3   OH243827   3.494   1.085  12.562  0.3708 -0.3062  0.0817
 7471TIP3    H143828   3.433   1.037  12.617  0.5236 -0.3021  0.2541
 7471TIP3    H243829   3.447   1.164  12.537  1.0027  0.6899  1.8522
 7472TIP3   OH243830   5.022   6.978  12.281 -0.1718  0.2454  0.6925
 7472TIP3    H143831   5.014   7.031  12.361  0.5579  0.2055  0.8000
 7472TIP3    H243832   5.116   6.980  12.261 -0.4189  0.6926 -0.4711
 7473TIP3   OH243833   4.670   6.473  11.334 -0.3439 -0.1816  0.0974
 7473TIP3    H143834   4.611   6.523  11.391 -0.3958  0.1030 -0.2050
 7473TIP3    H243835   4.666   6.384  11.368  0.5037  0.1970  1.2621
 7474TIP3   OH243836   2.041   4.929  11.272  0.1641 -0.1126  0.1906
 7474TIP3    H143837   2.092   4.877  11.334 -0.6623  0.6636  1.5581
 7474TIP3    H243838   1.952   4.895  11.280  0.0284  0.0589 -0.5156
 7475TIP3   OH243839   5.833   2.430  14.209 -0.2776  0.0094  0.1717
 7475TIP3    H143840   5.865   2.456  14.296 -1.4759  2.8947 -0.1405
 7475TIP3    H243841   5.905   2.449  14.150 -0.9282  2.3347  0.0344
 7476TIP3   OH243842   3.160   4.928  14.462  0.2671  0.0573  0.6636
 7476TIP3    H143843   3.091   4.864  14.480  0.1256 -0.4205 -1.3269
 7476TIP3    H243844   3.230   4.876  14.421  1.8433  0.5341  2.6062
 7477TIP3   OH243845   4.512   5.010  14.867  0.0998 -0.1922 -0.1257
 7477TIP3    H143846   4.549   4.923  14.852 -1.0199 -0.9657  1.3290
 7477TIP3    H243847   4.505   5.048  14.780  1.3220 -1.2517 -0.7186
 7478TIP3   OH243848   2.082   3.580  12.493  0.1099  0.3225  0.1786
 7478TIP3    H143849   2.133   3.623  12.425 -0.6422 -1.3494 -1.5551
 7478TIP3    H243850   1.991   3.601  12.471 -0.1608 -0.5898  0.3742
 7479TIP3   OH243851   5.907   0.013  13.369  0.0689 -0.0170 -0.0702
 7479TIP3    H143852   5.863   0.033  13.287 -0.8780 -0.2877  0.3562
 7479TIP3    H243853   5.836   0.003  13.433  0.8041  0.6772  0.8895
 7480TIP3   OH243854   7.130   3.935  13.867  0.1891  0.1421  0.1381
 7480TIP3    H143855   7.163   4.024  13.855 -0.9934  0.9216  2.1608
 7480TIP3    H243856   7.083   3.915  13.786  1.1918  1.0077 -0.6800
 7481TIP3   OH243857   2.973   5.361  11.311 -0.0443 -0.2501  0.8155
 7481TIP3    H143858   2.936   5.449  11.318 -0.5472 -0.4697  0.9961
 7481TIP3    H243859   2.967   5.325  11.399 -1.7908 -1.2142  0.3453
 7482TIP3   OH243860   0.678   0.125   9.319  0.1358  0.0520  0.3187
 7482TIP3    H143861   0.720   0.168   9.394  2.9629 -1.6648 -0.1370
 7482TIP3    H243862   0.735   0.145   9.245 -0.8488 -0.9308 -0.7330
 7483TIP3   OH243863   6.930   1.988  14.072 -0.2205 -0.4034  0.0516
 7483TIP3    H143864   6.974   2.005  13.989  0.7834 -0.7361  0.5013
 7483TIP3    H243865   6.943   2.067  14.124 -1.3981  0.0586 -0.3198
 7484TIP3   OH243866   4.334   2.722   4.455 -0.0688 -0.4734  0.0497
 7484TIP3    H143867   4.345   2.650   4.517  1.2388 -2.3514 -2.1697
 7484TIP3    H243868   4.247   2.708   4.418  0.1101 -0.8449 -0.2447
 7485TIP3   OH243869   6.927   4.809  15.308 -0.0814  0.1012  0.0896
 7485TIP3    H143870   6.908   4.740  15.245 -0.6850  0.3575 -0.0192
 7485TIP3    H243871   7.023   4.809  15.316  0.0241  0.1912 -0.9765
 7486TIP3   OH243872   3.778   6.402  10.833 -0.4415  0.3202  0.3639
 7486TIP3    H143873   3.870   6.388  10.812 -0.6922 -2.9319  0.8480
 7486TIP3    H243874   3.748   6.468  10.770  1.6867 -0.2242 -1.3085
 7487TIP3   OH243875   7.142   4.161  11.458 -0.0662  0.2188 -0.0240
 7487TIP3    H143876   7.136   4.097  11.387  1.1786 -0.2569  0.2769
 7487TIP3    H243877   7.195   4.118  11.525 -2.3226  0.1191  1.8098
 7488TIP3   OH243878   1.491   0.933  13.839  0.2648  0.4060 -0.0540
 7488TIP3    H143879   1.475   0.885  13.758  0.7380  1.4858 -0.8046
 7488TIP3    H243880   1.557   0.998  13.816  1.1905  0.0549  1.4597
 7489TIP3   OH243881   3.250   4.353   9.840 -0.6676  0.0792  0.0513
 7489TIP3    H143882   3.229   4.266   9.876 -1.7397  0.1316 -0.4015
 7489TIP3    H243883   3.178   4.409   9.870 -0.4863  0.5931 -0.4544
 7490TIP3   OH243884   3.746   2.618   1.058  0.1925 -0.3920 -0.5391
 7490TIP3    H143885   3.841   2.627   1.052  0.2708  0.0287  1.0239
 7490TIP3    H243886   3.712   2.701   1.025  0.4564  0.3115  0.9104
 7491TIP3   OH243887   6.705   3.087   1.549 -0.5472 -0.2338 -0.8597
 7491TIP3    H143888   6.732   3.078   1.640 -1.8040  0.1096 -0.4378
 7491TIP3    H243889   6.766   3.031   1.500 -0.6461 -1.4262  0.3289
 7492TIP3   OH243890   4.943   5.514  14.633  0.3420 -0.1661 -0.7441
 7492TIP3    H143891   5.007   5.462  14.584  0.4803 -0.4327 -0.2869
 7492TIP3    H243892   4.889   5.555  14.566 -0.2656 -1.5228 -1.1140
 7493TIP3   OH243893   4.961   1.579  10.145 -0.7293 -0.2659  0.2520
 7493TIP3    H143894   4.994   1.502  10.191 -0.9743 -0.3498  0.2837
 7493TIP3    H243895   4.904   1.545  10.077  0.1403 -0.1785 -0.5510
 7494TIP3   OH243896   4.635   1.915  10.167 -0.3741 -0.2430 -0.2079
 7494TIP3    H143897   4.703   1.867  10.215 -0.3558 -0.2310 -0.2212
 7494TIP3    H243898   4.682   1.955  10.094 -0.7909 -2.2221 -1.6391
 7495TIP3   OH243899   3.730   3.765  12.376 -0.1669 -0.3481 -0.1921
 7495TIP3    H143900   3.662   3.832  12.383  1.1211  0.9909 -0.0273
 7495TIP3    H243901   3.778   3.770  12.459  0.1429 -1.2729 -0.2998
 7496TIP3   OH243902   1.258   0.335  10.750  0.1425  0.4141 -0.5187
 7496TIP3    H143903   1.218   0.412  10.709 -0.9122  0.1021 -0.1224
 7496TIP3    H243904   1.295   0.368  10.832  2.5712  1.1112 -1.8041
 7497TIP3   OH243905   1.764   6.916   3.466  0.3414 -0.1020  0.4422
 7497TIP3    H143906   1.817   6.977   3.415 -0.4719  1.0698  0.9617
 7497TIP3    H243907   1.756   6.839   3.411  2.8099 -0.4377  0.4503
 7498TIP3   OH243908   2.581   3.994  14.918 -0.7186  0.2771  0.3620
 7498TIP3    H143909   2.558   4.076  14.962  0.5189  1.9092 -1.8219
 7498TIP3    H243910   2.523   3.989  14.843  1.1854  0.8453 -1.2539
 7499TIP3   OH243911   5.796   1.035   0.714 -0.0010  0.4329  0.0829
 7499TIP3    H143912   5.788   1.105   0.650  0.1954 -0.6608 -1.1878
 7499TIP3    H243913   5.712   1.033   0.759 -0.3647  0.8276 -0.5708
 7500TIP3   OH243914   5.207   4.537   1.854 -0.2633  0.4098 -0.1322
 7500TIP3    H143915   5.204   4.607   1.789  0.0672  0.3559 -0.2051
 7500TIP3    H243916   5.118   4.502   1.856 -0.2668  0.3899 -0.5763
 7501TIP3   OH243917   2.107   6.424  10.627  0.0636  0.0377  0.3285
 7501TIP3    H143918   2.142   6.467  10.705  1.6258 -2.0593  0.8780
 7501TIP3    H243919   2.184   6.406  10.573 -0.7619 -0.3974 -0.7445
 7502TIP3   OH243920   5.039   2.704  12.561  0.4012  0.2358  0.4165
 7502TIP3    H143921   5.038   2.706  12.657  3.1154 -1.9428  0.6260
 7502TIP3    H243922   4.978   2.634  12.539 -0.5675  1.0341  0.4709
 7503TIP3   OH243923   2.119   0.739  14.497 -0.1227 -0.2666  1.0679
 7503TIP3    H143924   2.171   0.676  14.447  0.5301 -0.1368  1.5734
 7503TIP3    H243925   2.102   0.695  14.580 -1.1881 -0.4756  0.7484
 7504TIP3   OH243926   6.844   0.124  13.536 -0.3205  0.5067  0.3633
 7504TIP3    H143927   6.929   0.168  13.545  0.5330 -0.3892 -2.3077
 7504TIP3    H243928   6.785   0.191  13.503  0.0924  0.4941 -0.4217
 7505TIP3   OH243929   1.584   0.196  12.214 -0.1278 -0.0401  0.0714
 7505TIP3    H143930   1.510   0.198  12.154  1.0347  2.2921 -1.4517
 7505TIP3    H243931   1.591   0.286  12.247  2.0045 -0.1575  0.1228
 7506TIP3   OH243932   1.369   4.926  11.875  0.2329  0.0442 -0.0487
 7506TIP3    H143933   1.459   4.908  11.850  0.6337  2.3044 -0.4221
 7506TIP3    H243934   1.317   4.868  11.819  1.4168 -1.1915  0.0820
 7507TIP3   OH243935   4.709   0.138   2.333  0.4483  0.3322  0.7134
 7507TIP3    H143936   4.797   0.170   2.352  0.6121 -1.2076  2.9131
 7507TIP3    H243937   4.720   0.078   2.259  0.8870  1.5653 -0.2630
 7508TIP3   OH243938   5.678   0.882   4.452 -0.3087  0.6489 -0.0601
 7508TIP3    H143939   5.632   0.922   4.378  0.4572  1.2327 -0.2324
 7508TIP3    H243940   5.644   0.793   4.455  0.3536  0.2967 -1.7331
 7509TIP3   OH243941   5.739   6.810   0.214 -0.3466  0.5620 -0.1392
 7509TIP3    H143942   5.661   6.863   0.230 -1.3346 -1.3682  1.9540
 7509TIP3    H243943   5.784   6.807   0.298  0.5155 -0.6000 -0.6122
 7510TIP3   OH243944   4.184   6.429  10.482  0.6225  0.3138  0.0797
 7510TIP3    H143945   4.232   6.466  10.408  0.8065 -0.6173 -0.2730
 7510TIP3    H243946   4.099   6.472  10.479  0.4031 -0.1595 -1.0495
 7511TIP3   OH243947   0.346   1.097  14.771 -0.6755 -0.3929  0.0033
 7511TIP3    H143948   0.286   1.154  14.722 -2.4064 -1.5345  0.6661
 7511TIP3    H243949   0.302   1.012  14.771  1.2541 -1.4508  0.0533
 7512TIP3   OH243950   1.909   2.164  15.335 -0.6118 -0.0271 -0.4460
 7512TIP3    H143951   1.967   2.181  15.261 -0.3961  0.6490 -0.1268
 7512TIP3    H243952   1.906   2.068  15.342 -0.8184 -0.1090 -1.4692
 7513TIP3   OH243953   2.868   7.130  11.321 -0.1510  0.1729  0.7657
 7513TIP3    H143954   2.877   7.183  11.400  1.4343 -0.5370  1.0953
 7513TIP3    H243955   2.782   7.089  11.329  0.8709 -1.6996  3.3052
 7514TIP3   OH243956   0.171   2.239  12.965  0.1368 -0.0502  0.2246
 7514TIP3    H143957   0.192   2.315  12.910 -1.0674  2.1795  2.6546
 7514TIP3    H243958   0.121   2.181  12.908  0.8281  1.0711 -1.6198
 7515TIP3   OH243959   2.645   4.083  10.805  0.7873 -0.3688 -0.2106
 7515TIP3    H143960   2.661   4.133  10.725  0.2748  1.2281  0.6281
 7515TIP3    H243961   2.731   4.050  10.830  0.8865 -1.2687 -1.6256
 7516TIP3   OH243962   4.195   6.049   9.769 -0.4386 -0.0009  0.3917
 7516TIP3    H143963   4.101   6.039   9.758 -0.3188  1.6107 -3.7732
 7516TIP3    H243964   4.211   6.142   9.753  1.8583 -0.0621  1.8220
 7517TIP3   OH243965   2.353   1.363  13.136 -0.1694  0.6883  0.0651
 7517TIP3    H143966   2.426   1.318  13.094 -1.3712 -0.8093 -0.5308
 7517TIP3    H243967   2.301   1.398  13.063 -1.0243  0.1044  0.3723
 7518TIP3   OH243968   2.140   0.829   9.985 -0.3207  0.3505  0.4004
 7518TIP3    H143969   2.154   0.890   9.913  0.1147  1.3401  1.2850
 7518TIP3    H243970   2.051   0.796   9.972 -0.6305  1.3067 -0.0130
 7519TIP3   OH243971   3.239   0.811   1.439 -0.1127  0.2420 -1.2670
 7519TIP3    H143972   3.316   0.865   1.452 -0.2715  0.1281  0.3800
 7519TIP3    H243973   3.201   0.802   1.527 -1.3218 -0.6930 -1.8559
 7520TIP3   OH243974   5.111   0.449  15.438  0.0812  0.1643 -0.7742
 7520TIP3    H143975   5.154   0.534  15.450  1.0246 -0.4351  0.2647
 7520TIP3    H243976   5.142   0.396  15.511 -2.7773 -0.1933  0.2845
 7521TIP3   OH243977   4.783   1.128  12.539  0.1677  0.1150  0.5186
 7521TIP3    H143978   4.739   1.091  12.616 -1.3752 -0.7704 -0.7072
 7521TIP3    H243979   4.790   1.054  12.479 -0.2802  1.1617 -0.8697
 7522TIP3   OH243980   5.046   5.279  13.787  0.1507 -0.2024 -0.2575
 7522TIP3    H143981   5.071   5.259  13.877  0.0352  0.7688  0.0000
 7522TIP3    H243982   4.953   5.257  13.782 -0.3802  1.6379  0.4782
 7523TIP3   OH243983   4.386   3.085   5.496 -0.6659 -0.0022  0.0006
 7523TIP3    H143984   4.308   3.037   5.466 -1.0446 -0.8632  2.1694
 7523TIP3    H243985   4.428   3.026   5.559  1.4348  0.6969 -0.6540
 7524TIP3   OH243986   0.611   4.806  12.433 -0.0023  0.2212 -0.0858
 7524TIP3    H143987   0.569   4.762  12.507  1.3653  1.2408  1.3811
 7524TIP3    H243988   0.624   4.738  12.368 -1.8951 -0.5583  0.2964
 7525TIP3   OH243989   6.740   3.738  10.617 -0.0288  0.3854 -0.1428
 7525TIP3    H143990   6.660   3.749  10.565  0.1264 -0.3488 -0.5460
 7525TIP3    H243991   6.802   3.695  10.558  0.1435 -0.4908  0.6455
 7526TIP3   OH243992   3.642   3.771  10.495 -0.1335  0.7242  0.2591
 7526TIP3    H143993   3.591   3.692  10.512 -0.8143  1.1446  0.2021
 7526TIP3    H243994   3.582   3.829  10.448  0.3863  1.2447  0.2239
 7527TIP3   OH243995   5.135   2.932  14.344 -0.0161 -0.1957  0.4886
 7527TIP3    H143996   5.093   2.911  14.427 -0.0196 -0.8907  0.3120
 7527TIP3    H243997   5.136   3.028  14.342 -0.0668 -0.1723  1.2594
 7528TIP3   OH243998   1.941   4.531   1.663  0.6100 -0.1700  0.1423
 7528TIP3    H143999   1.884   4.496   1.730  1.3327 -0.2533  0.7221
 7528TIP3    H244000   1.884   4.544   1.587 -0.0075 -0.9716  0.4652
 7529TIP3   OH244001   5.714   2.903  13.370  0.8350  0.3574  0.2653
 7529TIP3    H144002   5.747   2.859  13.291 -0.0627 -2.2772  1.2428
 7529TIP3    H244003   5.789   2.909  13.428  1.2365  1.2777 -0.3236
 7530TIP3   OH244004   5.539   1.888  14.786 -0.6112 -0.1344  0.9673
 7530TIP3    H144005   5.598   1.942  14.839 -0.0407  1.3017 -1.0375
 7530TIP3    H244006   5.454   1.932  14.792  0.2527  2.2552 -2.1773
 7531TIP3   OH244007   1.115   3.883  14.609  0.4689  0.1356 -0.3564
 7531TIP3    H144008   1.039   3.936  14.586  1.1886  0.3178 -2.5841
 7531TIP3    H244009   1.137   3.908  14.698 -2.1398 -0.0309  0.4153
 7532TIP3   OH244010   5.389   1.686  14.448 -0.1834 -0.5938  0.1306
 7532TIP3    H144011   5.472   1.640  14.439 -0.1149 -0.3437 -0.6613
 7532TIP3    H244012   5.385   1.742  14.370 -1.0749 -0.5871  0.1736
 7533TIP3   OH244013   4.474   3.017  12.028 -0.1676  0.1787 -0.0941
 7533TIP3    H144014   4.509   3.054  12.109 -2.3758 -0.5318  1.2739
 7533TIP3    H244015   4.439   3.092  11.980  0.8898  0.5678 -0.2804
 7534TIP3   OH244016   0.703   4.584  10.003 -0.7815 -0.4007  0.2608
 7534TIP3    H144017   0.610   4.595   9.982 -1.2803 -1.0519  1.9409
 7534TIP3    H244018   0.748   4.642   9.942 -2.3484  0.6168 -0.0008
 7535TIP3   OH244019   6.480   2.410  11.297 -0.4876  0.1902  0.6723
 7535TIP3    H144020   6.394   2.434  11.263 -0.7138  0.2173  1.2533
 7535TIP3    H244021   6.541   2.439  11.230 -0.9089  0.4478  0.3933
 7536TIP3   OH244022   3.431   6.940   1.506 -0.4281 -0.1195 -0.1979
 7536TIP3    H144023   3.362   6.956   1.442 -0.5001  0.6515  0.0616
 7536TIP3    H244024   3.512   6.941   1.455 -0.4513  0.9084 -0.2167
 7537TIP3   OH244025   2.875   0.989   1.835 -0.3516 -0.0258  0.2843
 7537TIP3    H144026   2.950   0.957   1.885 -0.5803  0.6382  1.0807
 7537TIP3    H244027   2.799   0.968   1.889 -0.5620  1.1718  0.4771
 7538TIP3   OH244028   2.160   5.410   3.866  0.0961  0.0078 -0.2367
 7538TIP3    H144029   2.071   5.437   3.885  0.2533 -0.1892  0.7937
 7538TIP3    H244030   2.215   5.473   3.912  0.5185  0.5374 -1.4015
 7539TIP3   OH244031   0.048   5.610   2.746  0.8121  0.0256 -0.2753
 7539TIP3    H144032   0.124   5.556   2.770  1.5371  1.1748  0.0981
 7539TIP3    H244033   0.055   5.619   2.651  0.8629 -0.2750 -0.3028
 7540TIP3   OH244034   3.699   2.111  10.261  0.6484 -0.1545 -0.1412
 7540TIP3    H144035   3.778   2.064  10.232  1.3939  1.3978 -0.7306
 7540TIP3    H244036   3.712   2.200  10.231 -1.0730  0.2842  0.3165
 7541TIP3   OH244037   5.873   0.524   0.767 -0.1516 -0.4646  0.4499
 7541TIP3    H144038   5.796   0.577   0.746 -1.5618 -2.8621 -0.7791
 7541TIP3    H244039   5.945   0.566   0.720 -1.6579 -0.8675 -2.4105
 7542TIP3   OH244040   6.381   1.941  12.057  1.0773  0.1676  0.8383
 7542TIP3    H144041   6.465   1.901  12.081  0.6294 -1.1739  0.2937
 7542TIP3    H244042   6.317   1.870  12.067  0.3020  0.6300 -0.5591
 7543TIP3   OH244043   4.776   2.132  10.382 -0.2114 -0.0603 -0.1271
 7543TIP3    H144044   4.855   2.097  10.424  0.6044  0.3306 -1.2873
 7543TIP3    H244045   4.800   2.142  10.290 -0.8965  2.0867 -0.1308
 7544TIP3   OH244046   4.103   1.654  12.231 -0.0626 -0.1544  0.3960
 7544TIP3    H144047   4.010   1.678  12.235 -0.2600 -1.0084  1.6883
 7544TIP3    H244048   4.148   1.725  12.276  0.1521  1.1703 -1.7840
 7545TIP3   OH244049   5.501   6.985   0.174 -0.3050 -0.4578 -0.5898
 7545TIP3    H144050   5.413   6.968   0.207 -0.7890 -0.8447 -2.0415
 7545TIP3    H244051   5.526   7.068   0.215 -0.5195 -1.2928  1.3883
 7546TIP3   OH244052   6.225   2.344   2.534 -0.4031 -0.3972  0.0001
 7546TIP3    H144053   6.279   2.423   2.537 -0.5369 -0.2597 -0.8303
 7546TIP3    H244054   6.159   2.357   2.602  0.0837 -0.1753  0.4327
 7547TIP3   OH244055   5.399   0.874  13.436  0.4937 -0.6168  0.1285
 7547TIP3    H144056   5.306   0.864  13.416  0.1062 -0.8728  1.9331
 7547TIP3    H244057   5.436   0.912  13.356 -1.0165 -1.1426 -0.8761
 7548TIP3   OH244058   5.174   3.492  13.567  0.1227  0.4933 -0.1015
 7548TIP3    H144059   5.110   3.422  13.554  0.5482  0.1555 -0.3867
 7548TIP3    H244060   5.259   3.451  13.551  0.6043  0.4258  2.1733
 7549TIP3   OH244061   5.235   0.061   5.291 -0.0176  1.0062 -0.0094
 7549TIP3    H144062   5.326   0.031   5.289 -0.4369 -0.4627  1.1471
 7549TIP3    H244063   5.240   0.153   5.315  1.1684  0.8864  0.2480
 7550TIP3   OH244064   1.701   5.732  11.856  0.1873 -0.3708  0.1664
 7550TIP3    H144065   1.750   5.655  11.882 -0.3164 -1.2005 -1.2265
 7550TIP3    H244066   1.649   5.755  11.933  0.7960 -1.0434  0.7899
 7551TIP3   OH244067   4.297   5.405   3.782 -0.6552  0.2265  0.5837
 7551TIP3    H144068   4.377   5.406   3.730 -0.6832 -1.4601  0.4628
 7551TIP3    H244069   4.229   5.438   3.722 -0.3418  0.1346  0.1752
 7552TIP3   OH244070   3.201   6.297   1.782  0.3004  0.1871 -0.1367
 7552TIP3    H144071   3.214   6.309   1.876  1.7667  0.4279 -0.3460
 7552TIP3    H244072   3.203   6.202   1.770  4.2864  0.1588 -0.3838
 7553TIP3   OH244073   5.376   5.069   0.434  0.4276 -0.1205  0.2766
 7553TIP3    H144074   5.364   5.013   0.358 -1.7133  1.2217 -0.4592
 7553TIP3    H244075   5.440   5.134   0.407 -0.6207  0.5945 -0.5897
 7554TIP3   OH244076   5.605   2.503   4.793 -0.1316  0.3833  0.0223
 7554TIP3    H144077   5.589   2.418   4.752  1.0806  1.4556 -2.9584
 7554TIP3    H244078   5.518   2.538   4.810 -0.7285 -0.1478 -1.7187
 7555TIP3   OH244079   1.634   1.911  11.630 -0.6797  0.2546  0.2685
 7555TIP3    H144080   1.563   1.970  11.606  0.0223  2.0611  2.2892
 7555TIP3    H244081   1.713   1.957  11.605 -0.1308 -0.2021  1.1135
 7556TIP3   OH244082   2.328   1.363   1.609 -0.0521  0.2634 -0.4028
 7556TIP3    H144083   2.266   1.403   1.547  0.5322  1.8236 -0.0352
 7556TIP3    H244084   2.311   1.269   1.602 -0.3055  0.4068 -2.6086
 7557TIP3   OH244085   2.848   2.405  13.898  0.4245  0.5092 -0.2457
 7557TIP3    H144086   2.776   2.345  13.882  0.0294  1.1394 -0.8630
 7557TIP3    H244087   2.868   2.394  13.991  0.6180 -0.8496 -0.4277
 7558TIP3   OH244088   3.817   2.422  11.821  0.0409  0.7255  0.6931
 7558TIP3    H144089   3.901   2.383  11.797 -0.5586  0.3010 -0.8449
 7558TIP3    H244090   3.821   2.433  11.916  1.8652  0.8185  0.6308
 7559TIP3   OH244091   5.212   5.759  14.594  0.0435 -0.6573  1.0271
 7559TIP3    H144092   5.205   5.835  14.651 -0.1294  0.9905 -1.0689
 7559TIP3    H244093   5.268   5.698  14.642  2.4059  1.8488  1.7039
 7560TIP3   OH244094   2.146   4.920   0.344 -0.3113  0.0152 -0.3868
 7560TIP3    H144095   2.051   4.926   0.349 -0.2737  1.3888 -0.9201
 7560TIP3    H244096   2.178   4.972   0.418  0.0407 -0.9652  0.1743
 7561TIP3   OH244097   3.698   6.163   0.206  0.6428 -0.4825  0.2941
 7561TIP3    H144098   3.659   6.249   0.219  0.1297 -0.5535 -0.7060
 7561TIP3    H244099   3.737   6.141   0.291 -0.5910  0.0491  1.0155
 7562TIP3   OH244100   1.248   2.196   2.301  0.2979 -0.3017  0.2223
 7562TIP3    H144101   1.224   2.141   2.375 -0.8516  0.8838  0.7716
 7562TIP3    H244102   1.234   2.286   2.332  0.1869  0.2363 -1.3004
 7563TIP3   OH244103   5.376   1.244   1.632 -0.1212 -0.1666  0.3706
 7563TIP3    H144104   5.291   1.251   1.589 -0.2632 -0.1289  0.6573
 7563TIP3    H244105   5.437   1.221   1.562 -0.0749  1.4134 -0.1484
 7564TIP3   OH244106   1.868   3.024  15.105  0.4842 -0.3104  0.6499
 7564TIP3    H144107   1.838   3.054  15.019 -1.1087 -0.8534  0.9717
 7564TIP3    H244108   1.816   3.076  15.167  0.9380 -0.5897  1.2654
 7565TIP3   OH244109   1.523   1.649  10.224  0.3366  0.4083 -0.1248
 7565TIP3    H144110   1.470   1.575  10.256  0.8266  0.0141 -0.2116
 7565TIP3    H244111   1.515   1.715  10.292  0.0870  0.1832  0.0693
 7566TIP3   OH244112   2.857   0.476  15.029 -0.2447 -0.4809  0.1272
 7566TIP3    H144113   2.835   0.461  15.121 -0.6139  0.1058  0.1403
 7566TIP3    H244114   2.826   0.397  14.983 -0.0734 -0.7660  0.5017
 7567TIP3   OH244115   3.365   3.634   3.480  0.2455 -0.2106  0.1982
 7567TIP3    H144116   3.410   3.710   3.515 -0.7063 -0.7986  3.0159
 7567TIP3    H244117   3.274   3.662   3.469  0.1202 -0.6171  0.1516
 7568TIP3   OH244118   3.416   3.814  12.249 -0.1982  0.2400  0.3738
 7568TIP3    H144119   3.441   3.899  12.286 -2.1646  0.8440  0.4020
 7568TIP3    H244120   3.329   3.829  12.212  0.2094 -1.2850 -1.3225
 7569TIP3   OH244121   3.641   4.790   4.497 -0.3370  0.2820 -0.6574
 7569TIP3    H144122   3.693   4.712   4.518  0.6415  0.6319 -1.6886
 7569TIP3    H244123   3.567   4.786   4.558 -0.3139 -1.4462 -0.6882
 7570TIP3   OH244124   6.229   2.854  13.106  0.2078  0.6421 -0.3161
 7570TIP3    H144125   6.296   2.909  13.146 -0.1540 -0.0205  1.2688
 7570TIP3    H244126   6.259   2.764  13.119 -0.8233  0.3450  0.1975
 7571TIP3   OH244127   3.487   5.538   2.413  0.3182 -0.4492 -0.2086
 7571TIP3    H144128   3.576   5.544   2.448  0.4318 -0.8126 -0.4275
 7571TIP3    H244129   3.430   5.558   2.488  0.5607 -1.1013  0.1548
 7572TIP3   OH244130   3.579   6.734  12.344 -0.0085 -0.3286 -0.5015
 7572TIP3    H144131   3.666   6.694  12.343  0.2726  0.2778 -0.8131
 7572TIP3    H244132   3.562   6.753  12.436  0.8272  0.8963 -0.5726
 7573TIP3   OH244133   5.193   4.051  11.769 -0.4870  0.1920  0.9363
 7573TIP3    H144134   5.263   3.992  11.741 -0.1880  1.7136 -1.8635
 7573TIP3    H244135   5.119   4.029  11.713 -1.2871  0.6223  1.7948
 7574TIP3   OH244136   1.201   0.861   5.043 -0.5429  0.2780  0.1571
 7574TIP3    H144137   1.125   0.823   5.087 -1.7737  4.4011  2.0144
 7574TIP3    H244138   1.173   0.870   4.952 -2.8108  2.5936  0.9717
 7575TIP3   OH244139   3.455   1.813   3.822 -0.1097  0.1068  0.3041
 7575TIP3    H144140   3.421   1.855   3.901 -0.8850 -1.1046  0.6551
 7575TIP3    H244141   3.550   1.821   3.829  0.1860 -3.2904  3.4053
 7576TIP3   OH244142   6.199   4.353  13.743  0.4237 -0.0213  0.4450
 7576TIP3    H144143   6.254   4.377  13.668  2.0203 -0.8301  1.3082
 7576TIP3    H244144   6.181   4.260  13.730 -0.8347  0.2421  0.1489
 7577TIP3   OH244145   4.831   0.064   1.128  0.1759  0.2868  0.0990
 7577TIP3    H144146   4.761   0.124   1.156  0.3769  0.4010  0.3686
 7577TIP3    H244147   4.896   0.121   1.087  0.9233  0.4380  1.4158
 7578TIP3   OH244148   6.784   0.440   5.100  0.2221 -0.4412  0.4472
 7578TIP3    H144149   6.767   0.523   5.145  0.6960 -1.1799  2.0587
 7578TIP3    H244150   6.744   0.451   5.013 -1.4758  0.7316  1.3270
 7579TIP3   OH244151   1.834   4.749  13.372  0.4051 -0.0597 -1.2288
 7579TIP3    H144152   1.807   4.732  13.282 -3.3147  1.2346 -0.5138
 7579TIP3    H244153   1.775   4.696  13.426 -1.3873  3.4220  0.5380
 7580TIP3   OH244154   1.030   6.935   1.812  0.2397  0.7014  0.0397
 7580TIP3    H144155   0.984   6.985   1.880  1.2625 -0.0961  1.3660
 7580TIP3    H244156   0.960   6.893   1.762 -0.5516  1.6705  0.2851
 7581TIP3   OH244157   6.530   2.728   3.157 -0.0626  0.0877  0.0231
 7581TIP3    H144158   6.576   2.675   3.092  1.5372  1.2710  0.1411
 7581TIP3    H244159   6.507   2.666   3.226  0.3099 -0.7410 -0.5832
 7582TIP3   OH244160   2.522   5.594   3.801 -0.2743 -0.4170  0.0760
 7582TIP3    H144161   2.432   5.564   3.790 -0.2741  0.0019 -1.3650
 7582TIP3    H244162   2.529   5.619   3.893 -1.6205 -0.4589  0.2059
 7583TIP3   OH244163   4.982   6.190  12.248 -0.0957 -0.1233 -0.1073
 7583TIP3    H144164   5.074   6.216  12.239 -0.7125  1.7560 -1.5397
 7583TIP3    H244165   4.934   6.255  12.198 -2.2559 -0.9472  0.8032
 7584TIP3   OH244166   5.501   6.118   5.641  0.2352 -0.0410  0.3751
 7584TIP3    H144167   5.567   6.185   5.622 -0.0352  0.1995  0.2726
 7584TIP3    H244168   5.549   6.035   5.635  0.7684  0.1732  1.3116
 7585TIP3   OH244169   4.530   2.431   3.030  0.4487 -0.0532  0.5674
 7585TIP3    H144170   4.470   2.357   3.026 -1.5896  1.5734 -1.0034
 7585TIP3    H244171   4.539   2.450   3.124 -2.0745  0.0495  0.8542
 7586TIP3   OH244172   1.192   6.178   9.908  0.3764  0.1581  0.2766
 7586TIP3    H144173   1.187   6.194   9.813 -4.6078 -0.7611  0.0676
 7586TIP3    H244174   1.213   6.085   9.915  1.1369  0.3146  0.0875
 7587TIP3   OH244175   1.262   7.086  11.859  0.4305  0.6038  0.0122
 7587TIP3    H144176   1.311   7.029  11.919 -0.1260  0.5771  0.4538
 7587TIP3    H244177   1.255   7.035  11.778  0.3223  0.2240  0.2566
 7588TIP3   OH244178   5.173   4.296  11.436  0.1847  0.4412 -0.0305
 7588TIP3    H144179   5.123   4.218  11.459  2.6467 -1.3905 -0.4609
 7588TIP3    H244180   5.238   4.304  11.506  2.1619 -0.0015 -1.7184
 7589TIP3   OH244181   2.323   2.085   4.695 -0.2561 -0.1995  0.2054
 7589TIP3    H144182   2.288   2.006   4.654  0.5773 -0.2555 -0.4230
 7589TIP3    H244183   2.246   2.132   4.727 -0.8848 -0.4832 -0.8481
 7590TIP3   OH244184   1.090   3.604  11.850 -0.3792 -0.6300 -0.1981
 7590TIP3    H144185   1.128   3.645  11.772  0.0714 -2.5345 -1.0417
 7590TIP3    H244186   1.164   3.589  11.908 -0.8103  1.4530  0.9947
 7591TIP3   OH244187   1.605   1.816   9.608  0.3322  0.2172 -0.0221
 7591TIP3    H144188   1.568   1.740   9.564  1.1777 -0.2908  0.1319
 7591TIP3    H244189   1.533   1.880   9.610 -0.2481 -0.4086 -0.5372
 7592TIP3   OH244190   4.697   0.859  13.266  0.1862  0.7269  0.0239
 7592TIP3    H144191   4.677   0.946  13.300 -0.0028  0.0864  1.6729
 7592TIP3    H244192   4.629   0.841  13.202 -1.1681  0.8758  1.3688
 7593TIP3   OH244193   3.927   0.796  13.277 -0.3756  0.3123  0.5840
 7593TIP3    H144194   3.934   0.784  13.371 -2.2997  1.9130  0.9908
 7593TIP3    H244195   4.002   0.850  13.253 -0.4876  0.8305  1.3843
 7594TIP3   OH244196   0.708   3.725   4.875 -0.4451  0.1526  0.3360
 7594TIP3    H144197   0.766   3.801   4.871  1.2462 -1.1303 -1.3430
 7594TIP3    H244198   0.629   3.753   4.830  0.1858  0.9197 -0.3391
 7595TIP3   OH244199   4.832   3.920  14.727 -0.1386 -0.1574  0.0602
 7595TIP3    H144200   4.813   3.950  14.638 -1.5058  1.0346  0.7107
 7595TIP3    H244201   4.870   3.997  14.771 -1.7057  0.0228  1.1623
 7596TIP3   OH244202   5.297   0.322   5.372  0.5234  0.0434 -0.3624
 7596TIP3    H144203   5.315   0.412   5.345 -0.4451 -0.2944 -2.3617
 7596TIP3    H244204   5.211   0.326   5.415  0.1099 -0.0109 -1.1597
 7597TIP3   OH244205   2.207   4.292  15.369 -0.1268 -0.4999  0.1615
 7597TIP3    H144206   2.223   4.369  15.424 -0.3523 -1.3336  1.4389
 7597TIP3    H244207   2.114   4.297  15.347 -0.0307 -0.1507 -0.1754
 7598TIP3   OH244208   6.857   4.601   0.436 -0.6243  0.2136 -0.1917
 7598TIP3    H144209   6.769   4.592   0.472 -0.9514  1.3146 -0.6677
 7598TIP3    H244210   6.902   4.660   0.496 -0.8159  1.1479 -0.9444
 7599TIP3   OH244211   2.846   4.906  12.543  0.1304  0.0249 -0.4224
 7599TIP3    H144212   2.907   4.957  12.597  0.9080 -0.0193 -1.2468
 7599TIP3    H244213   2.901   4.841  12.499 -0.5979 -0.3800 -0.7545
 7600TIP3   OH244214   6.275   6.920   4.145  0.4196  0.2034 -0.5172
 7600TIP3    H144215   6.342   6.876   4.197 -0.7820 -0.6835  0.3371
 7600TIP3    H244216   6.312   6.923   4.056  1.4914 -0.4418 -0.1098
 7601TIP3   OH244217   4.583   6.299  10.133  0.0822  0.3617 -0.0392
 7601TIP3    H144218   4.649   6.229  10.141 -1.7133 -1.8818 -2.9222
 7601TIP3    H244219   4.628   6.369  10.085  1.1570  0.0940  0.5475
 7602TIP3   OH244220   6.465   1.030   3.517 -0.0496  0.1971 -0.5139
 7602TIP3    H144221   6.494   1.101   3.575  0.7379 -0.0482 -0.5895
 7602TIP3    H244222   6.501   1.052   3.432  1.4520 -0.9893 -0.2473
 7603TIP3   OH244223   3.743   0.391  12.858  0.0781  0.8513  0.6878
 7603TIP3    H144224   3.764   0.465  12.801 -1.0476  1.0416  0.4921
 7603TIP3    H244225   3.682   0.427  12.923 -1.5892 -0.1653 -0.2336
 7604TIP3   OH244226   4.697   5.397   2.005  0.9341  0.3670 -0.0619
 7604TIP3    H144227   4.628   5.333   1.989  1.7241 -0.7367  0.7900
 7604TIP3    H244228   4.696   5.453   1.927 -1.8081  1.2580  0.5177
 7605TIP3   OH244229   5.723   4.656  14.763  0.5982 -0.1343 -0.4416
 7605TIP3    H144230   5.666   4.704  14.824 -0.0028 -2.8476  1.3042
 7605TIP3    H244231   5.792   4.719  14.741 -0.6740  1.8465  0.8607
 7606TIP3   OH244232   0.945   2.224  15.156 -0.4590  0.4000  0.4687
 7606TIP3    H144233   0.907   2.216  15.069  1.6478 -1.5278 -0.3858
 7606TIP3    H244234   0.910   2.149  15.205 -0.8850  0.9307  0.9962
 7607TIP3   OH244235   6.586   1.465  12.096  0.0889  0.4147  0.5970
 7607TIP3    H144236   6.681   1.457  12.108  0.2236 -0.9340 -0.9833
 7607TIP3    H244237   6.564   1.397  12.032 -1.8689  1.0463  0.5308
 7608TIP3   OH244238   7.164   6.925   3.060 -0.3666  0.1276  0.1394
 7608TIP3    H144239   7.188   6.970   3.141 -1.5409  0.4039  0.3581
 7608TIP3    H244240   7.073   6.899   3.073 -0.0603 -1.3066 -0.4455
 7609TIP3   OH244241   1.147   2.289   0.703 -0.3817  0.0446  0.8067
 7609TIP3    H144242   1.123   2.206   0.662  1.1550 -0.9255  1.7436
 7609TIP3    H244243   1.119   2.279   0.794  0.3903  0.2644  1.0806
 7610TIP3   OH244244   5.097   4.480   3.528 -0.2832  0.7820 -0.1169
 7610TIP3    H144245   5.111   4.451   3.437 -2.2232 -0.6203 -0.0409
 7610TIP3    H244246   5.143   4.564   3.534  2.5979 -0.5302 -1.4534
 7611TIP3   OH244247   4.622   3.167  11.321  0.5770  0.1594 -0.5843
 7611TIP3    H144248   4.591   3.240  11.374  1.6974 -0.3235  0.8061
 7611TIP3    H244249   4.549   3.105  11.320  0.3585  0.3968 -0.0105
 7612TIP3   OH244250   1.416   6.648  10.914 -0.1843 -0.3138  0.0959
 7612TIP3    H144251   1.349   6.592  10.956 -0.4714 -0.3761 -0.4428
 7612TIP3    H244252   1.371   6.686  10.838 -0.1334  1.0184  0.7042
 7613TIP3   OH244253   0.046   2.932   5.373  0.3598  0.8479  0.0931
 7613TIP3    H144254  -0.017   2.953   5.442 -0.0479  1.7540 -0.5402
 7613TIP3    H244255   0.116   2.885   5.418 -1.3332 -1.3451  0.6218
 7614TIP3   OH244256   3.414   0.631   2.995  0.1320 -0.1553  0.3965
 7614TIP3    H144257   3.392   0.723   3.008  0.3192 -0.0757  0.1591
 7614TIP3    H244258   3.367   0.585   3.064  2.1910  0.3913  2.2961
 7615TIP3   OH244259   0.557   6.693  11.106  0.1170  0.0912 -0.4605
 7615TIP3    H144260   0.553   6.645  11.023  0.1405  0.2343 -0.5437
 7615TIP3    H244261   0.589   6.780  11.083  1.3228 -0.2429 -0.1465
 7616TIP3   OH244262   1.115   2.742   4.814  0.0903 -0.0987 -0.3645
 7616TIP3    H144263   1.134   2.777   4.901  1.1808 -2.9011  0.6361
 7616TIP3    H244264   1.197   2.755   4.765  0.0725 -0.0858 -0.3903
 7617TIP3   OH244265   4.040   6.687  12.995 -0.1515 -0.2832 -0.0659
 7617TIP3    H144266   4.116   6.685  12.937  1.1637 -0.3771  1.5896
 7617TIP3    H244267   4.069   6.738  13.071 -1.3292 -1.3732  1.1615
 7618TIP3   OH244268   2.666   5.402  12.851  0.0501  0.3919 -0.3360
 7618TIP3    H144269   2.586   5.454  12.846  0.0994  0.4156 -0.9151
 7618TIP3    H244270   2.712   5.436  12.928 -1.1446 -0.5429  0.8581
 7619TIP3   OH244271   2.898   5.092  11.724  0.4078  0.5181 -0.0968
 7619TIP3    H144272   2.913   5.053  11.810 -1.9956  0.1402  0.2201
 7619TIP3    H244273   2.943   5.033  11.663 -1.2931 -1.6230  0.5718
 7620TIP3   OH244274   6.992   4.373  12.643 -0.5612  0.8115 -0.3781
 7620TIP3    H144275   6.977   4.408  12.731  0.3657 -0.5765  0.3821
 7620TIP3    H244276   6.935   4.296  12.638  1.9555 -1.2299  0.4384
 7621TIP3   OH244277   4.608   1.665  13.851  0.4687 -0.2964 -0.2437
 7621TIP3    H144278   4.611   1.623  13.764  0.4676  2.0049 -1.4240
 7621TIP3    H244279   4.514   1.673  13.870  0.4688 -1.1327  0.1877
 7622TIP3   OH244280   0.697   2.490  15.326 -0.1404  0.1258 -0.0039
 7622TIP3    H144281   0.658   2.408  15.357  1.0889  0.0102  1.3715
 7622TIP3    H244282   0.709   2.542  15.406 -0.2719  1.3775 -0.7760
 7623TIP3   OH244283   6.898   4.628  13.817  0.5056  0.0131  0.5339
 7623TIP3    H144284   6.887   4.686  13.892  2.4331  0.5225  0.4883
 7623TIP3    H244285   6.906   4.686  13.742 -0.3661 -0.4556  0.0610
 7624TIP3   OH244286   3.042   1.070  15.174  0.2276  0.1781 -0.0464
 7624TIP3    H144287   3.094   1.140  15.134  3.8835 -0.1656  3.5242
 7624TIP3    H244288   2.968   1.116  15.215  0.0346  1.2742 -1.5228
 7625TIP3   OH244289   3.571   6.897   0.227 -0.2444 -0.1804 -0.0293
 7625TIP3    H144290   3.583   6.935   0.140  2.5453 -1.3830 -0.2781
 7625TIP3    H244291   3.631   6.945   0.283 -0.1858 -1.0604  0.6923
 7626TIP3   OH244292   6.629   2.544   2.983  1.1064 -0.0481 -0.5131
 7626TIP3    H144293   6.692   2.529   2.914  0.5619  0.8519 -1.2312
 7626TIP3    H244294   6.544   2.528   2.942  0.6131  2.7795 -0.7875
 7627TIP3   OH244295   4.204   2.227  10.156  0.1703  0.7104 -0.0269
 7627TIP3    H144296   4.174   2.159  10.215 -2.5101  1.3212 -0.5745
 7627TIP3    H244297   4.240   2.180  10.080  0.2634 -0.0672  0.4961
 7628TIP3   OH244298   4.732   6.592  10.254 -0.4745 -0.1714  0.4209
 7628TIP3    H144299   4.813   6.622  10.296 -1.7336  2.4912  1.1979
 7628TIP3    H244300   4.664   6.651  10.289 -2.3660 -0.8069 -1.9285
 7629TIP3   OH244301   1.924   5.179  11.616 -0.2777  0.1464  0.2761
 7629TIP3    H144302   1.988   5.183  11.545 -1.2703  0.5320 -0.6197
 7629TIP3    H244303   1.951   5.247  11.677  0.4782 -0.0682  0.1936
 7630TIP3   OH244304   3.105   0.979  10.438 -0.0842  0.1285  0.1053
 7630TIP3    H144305   3.145   1.029  10.509  0.8980 -0.9723  0.3588
 7630TIP3    H244306   3.024   0.943  10.477 -0.2147  0.5874  0.2611
 7631TIP3   OH244307   5.673   3.228  13.314 -0.0907 -0.0469  0.1158
 7631TIP3    H144308   5.729   3.228  13.237  1.3506 -1.3953  1.1001
 7631TIP3    H244309   5.642   3.138  13.322 -0.5709  0.1717  0.8680
 7632TIP3   OH244310   0.794   6.084   0.891  0.3198  0.7639 -0.6120
 7632TIP3    H144311   0.772   6.087   0.798 -1.1558 -0.4809 -0.3497
 7632TIP3    H244312   0.888   6.064   0.893  0.5935  1.8350 -1.8075
 7633TIP3   OH244313   7.026   3.005  15.141 -0.4605  0.3140  0.0363
 7633TIP3    H144314   7.024   2.980  15.049 -0.5766  2.0704 -0.4782
 7633TIP3    H244315   6.995   3.096  15.142  0.0784  0.5190  1.7352
 7634TIP3   OH244316   5.610   4.888  12.086  0.2787 -0.5244 -0.0869
 7634TIP3    H144317   5.597   4.818  12.022 -0.0178 -1.6715  1.1653
 7634TIP3    H244318   5.526   4.897  12.130 -0.3337  2.1442 -1.6155
 7635TIP3   OH244319   1.566   1.458  10.904  0.2633 -0.2488 -0.1188
 7635TIP3    H144320   1.493   1.453  10.842  1.3618 -0.9145 -1.4180
 7635TIP3    H244321   1.575   1.368  10.937 -0.9390  0.2763  1.8398
 7636TIP3   OH244322   3.959   4.082  13.268  0.2937  0.0457 -0.3278
 7636TIP3    H144323   3.873   4.045  13.289 -0.9356  1.0594 -3.0722
 7636TIP3    H244324   3.962   4.164  13.317 -0.4264  0.1352 -0.4243
 7637TIP3   OH244325   4.542   0.766  14.929  0.4285  0.1766  0.6258
 7637TIP3    H144326   4.520   0.709  15.003  0.0603 -0.3492  0.1221
 7637TIP3    H244327   4.474   0.833  14.930  0.1276 -0.1228  0.4619
 7638TIP3   OH244328   5.725   0.469   0.052  0.0197  0.0333  0.0954
 7638TIP3    H144329   5.805   0.468  -0.001 -0.6343  0.8239 -0.9584
 7638TIP3    H244330   5.755   0.459   0.142  1.3724  1.0193 -0.2166
 7639TIP3   OH244331   1.718   0.788   4.586  0.0519  0.4459 -0.1134
 7639TIP3    H144332   1.691   0.714   4.531  0.1729  0.3595 -0.0591
 7639TIP3    H244333   1.750   0.854   4.524 -0.1707  0.5000 -0.1693
 7640TIP3   OH244334   5.776   7.038  14.826 -0.0025 -0.1078 -0.2453
 7640TIP3    H144335   5.856   7.046  14.774  0.3100 -1.1735  0.0582
 7640TIP3    H244336   5.753   7.129  14.847  0.9943  0.2291 -0.5303
 7641TIP3   OH244337   3.327   3.722   1.116 -0.1366 -0.1581 -0.1861
 7641TIP3    H144338   3.302   3.668   1.192  0.4201  2.4469  2.0164
 7641TIP3    H244339   3.265   3.697   1.048 -4.2018  0.8526  2.7135
 7642TIP3   OH244340   1.955   0.402   1.494 -0.4627 -0.6132 -0.2582
 7642TIP3    H144341   1.871   0.375   1.456  1.1146 -1.9697 -3.0507
 7642TIP3    H244342   2.017   0.338   1.462  1.9861  1.3564  0.2727
 7643TIP3   OH244343   3.184   1.489   1.482  0.0248 -0.3661  0.2825
 7643TIP3    H144344   3.275   1.501   1.509 -0.0255  1.4471 -0.2597
 7643TIP3    H244345   3.183   1.403   1.440  1.7100 -0.0229 -0.5324
 7644TIP3   OH244346   4.881   7.101   9.855 -0.2514  0.2980 -0.3322
 7644TIP3    H144347   4.970   7.087   9.888 -0.6824  0.8284  1.1466
 7644TIP3    H244348   4.883   7.187   9.814 -0.1462  0.4073 -0.0949
 7645TIP3   OH244349   6.149   0.580  12.189  0.5284  0.1012 -0.1770
 7645TIP3    H144350   6.133   0.495  12.148  0.2031 -0.7455  1.6102
 7645TIP3    H244351   6.244   0.591  12.185  0.7999 -1.2764  1.2074
 7646TIP3   OH244352   0.949   4.732   3.539 -0.1752  0.3856  0.2749
 7646TIP3    H144353   0.951   4.736   3.444  1.3920  1.4153  0.3153
 7646TIP3    H244354   0.951   4.823   3.568  0.6525  0.0701  1.2858
 7647TIP3   OH244355   1.295   2.583   1.963  0.0080  0.0829 -0.2944
 7647TIP3    H144356   1.311   2.582   1.868  1.3079 -1.4873 -0.0877
 7647TIP3    H244357   1.257   2.670   1.979 -1.4883 -0.0978 -2.4287
 7648TIP3   OH244358   4.242   5.902  13.987 -0.5787  0.1582  0.4395
 7648TIP3    H144359   4.241   5.970  14.055 -0.2322 -0.3519  0.9540
 7648TIP3    H244360   4.334   5.880  13.976 -0.3415  1.7960 -1.7927
 7649TIP3   OH244361   3.070   5.087  13.763 -0.3035  0.8715 -0.2580
 7649TIP3    H144362   3.112   5.003  13.783  1.3892  1.3471 -1.4903
 7649TIP3    H244363   3.048   5.124  13.848  0.4204 -0.1016  0.3809
 7650TIP3   OH244364   2.342   5.068   5.208 -0.2844  0.5208 -0.8302
 7650TIP3    H144365   2.389   5.140   5.250  0.9139 -0.6824 -0.0281
 7650TIP3    H244366   2.261   5.061   5.257  0.0717  0.6377 -0.2126
 7651TIP3   OH244367   5.971   2.706  12.299  0.0786  0.4577  0.0907
 7651TIP3    H144368   6.052   2.750  12.324 -0.6718  0.4361  2.7823
 7651TIP3    H244369   5.948   2.745  12.214  2.0739  1.5329 -0.0179
 7652TIP3   OH244370   6.692   3.770  13.501 -0.1253  0.2317  0.2441
 7652TIP3    H144371   6.782   3.803  13.505 -0.1715  0.2700  1.2195
 7652TIP3    H244372   6.701   3.678  13.479  0.2563 -0.1344  1.8284
 7653TIP3   OH244373   6.082   5.524  11.317  0.1416 -0.0950  0.1344
 7653TIP3    H144374   6.099   5.600  11.374 -1.0183 -0.3415  0.8486
 7653TIP3    H244375   6.128   5.545  11.236  0.3400  1.1065  0.5234
 7654TIP3   OH244376   1.851   0.990  10.383  0.7412 -0.2518 -0.3112
 7654TIP3    H144377   1.763   1.020  10.406  0.6268 -0.5350 -0.3652
 7654TIP3    H244378   1.850   0.896  10.405  1.2009 -0.1394  0.1764
 7655TIP3   OH244379   6.358   4.955   1.805 -0.5601  0.1160  0.2352
 7655TIP3    H144380   6.269   4.924   1.821 -0.2993 -1.5811 -1.2923
 7655TIP3    H244381   6.407   4.877   1.782  1.7541  0.7770  2.4860
 7656TIP3   OH244382   3.927   1.651   0.820  0.5813 -0.0108 -0.2592
 7656TIP3    H144383   3.844   1.670   0.864 -0.9247 -0.3336 -2.7924
 7656TIP3    H244384   3.957   1.735   0.787  0.5477 -0.1089 -0.5391
 7657TIP3   OH244385   5.716   2.666  10.856  0.0112 -0.2319  0.2774
 7657TIP3    H144386   5.634   2.703  10.888 -0.3589 -0.0808 -0.7922
 7657TIP3    H244387   5.729   2.707  10.770  1.2822 -0.1463  0.4882
 7658TIP3   OH244388   4.722   1.192   9.936 -0.0173  0.1555 -0.9035
 7658TIP3    H144389   4.673   1.169   9.857 -1.0681 -0.1849 -0.1681
 7658TIP3    H244390   4.658   1.187  10.007  1.0883 -0.3407  0.0979
 7659TIP3   OH244391   1.707   6.584  11.392 -0.1054  0.7799 -0.0855
 7659TIP3    H144392   1.701   6.538  11.476  0.2761  0.1814 -0.3764
 7659TIP3    H244393   1.617   6.604  11.369 -0.2953  0.0003 -0.0391
 7660TIP3   OH244394   1.039   4.054   4.637 -0.4982 -0.0829 -0.0741
 7660TIP3    H144395   1.032   4.125   4.573 -2.0997 -0.1193  0.0201
 7660TIP3    H244396   1.125   4.067   4.677 -0.3708  1.2595 -0.7100
 7661TIP3   OH244397   3.607   2.557   5.504  0.0604  0.3359  0.2547
 7661TIP3    H144398   3.624   2.478   5.451 -0.3682  0.3092  0.1603
 7661TIP3    H244399   3.687   2.609   5.494  0.0593  0.2497 -0.2782
 7662TIP3   OH244400   4.684   1.699   1.436  0.3292  0.1265  0.4283
 7662TIP3    H144401   4.649   1.783   1.405 -1.4702 -1.0704 -0.9725
 7662TIP3    H244402   4.737   1.667   1.363 -0.2824 -0.6430  0.3000
 7663TIP3   OH244403   1.240   0.131  10.171 -0.6667 -0.4470  0.3979
 7663TIP3    H144404   1.234   0.223  10.196 -1.6386 -0.7812  1.4764
 7663TIP3    H244405   1.258   0.085  10.253 -1.5585 -1.3480  0.1095
 7664TIP3   OH244406   1.420   0.937  11.859  0.2087 -0.0242 -0.4025
 7664TIP3    H144407   1.423   0.995  11.783  2.1338  0.0364 -0.3211
 7664TIP3    H244408   1.374   0.859  11.827 -0.4430  0.6487 -1.1494
 7665TIP3   OH244409   1.639   2.391  14.332 -1.2882  0.8178  0.2539
 7665TIP3    H144410   1.609   2.302  14.346 -3.0731  1.0361 -1.6596
 7665TIP3    H244411   1.688   2.413  14.411 -2.2207 -1.2645  1.4915
 7666TIP3   OH244412   2.184   3.298  13.153 -0.6633  0.1087 -0.3017
 7666TIP3    H144413   2.158   3.312  13.244 -1.2266  0.5183 -0.5243
 7666TIP3    H244414   2.274   3.265  13.159 -0.6377  0.2896  0.3936
 7667TIP3   OH244415   1.781   6.901  12.969 -0.6307 -0.3464 -0.4713
 7667TIP3    H144416   1.724   6.944  12.905 -0.5532 -0.2100 -0.4488
 7667TIP3    H244417   1.721   6.864  13.033 -0.6524  0.8620  0.2263
 7668TIP3   OH244418   2.450   2.833  13.015  0.5839 -0.2065  0.3265
 7668TIP3    H144419   2.428   2.864  13.103  2.9970 -1.2162  1.3908
 7668TIP3    H244420   2.496   2.750  13.031  0.7611 -0.5873 -1.9314
 7669TIP3   OH244421   0.423   0.426  12.982 -0.1465 -0.4699 -0.5243
 7669TIP3    H144422   0.495   0.445  13.042 -1.1543 -1.3675  1.0509
 7669TIP3    H244423   0.452   0.459  12.897  1.0209  1.5602  0.6075
 7670TIP3   OH244424   2.233   5.883   0.534 -0.1824  0.1167  0.2390
 7670TIP3    H144425   2.266   5.972   0.525 -2.4163  1.1581  1.3974
 7670TIP3    H244426   2.254   5.858   0.624  0.2661 -0.4479 -0.0215
 7671TIP3   OH244427   2.335   3.451  15.482 -0.2139 -0.0539 -0.4248
 7671TIP3    H144428   2.322   3.386  15.551 -2.0652 -0.5340 -1.1677
 7671TIP3    H244429   2.424   3.485  15.497  1.6133 -4.0152 -1.0845
 7672TIP3   OH244430   4.627   1.716   0.169  0.8193  0.0546 -0.0144
 7672TIP3    H144431   4.678   1.716   0.088 -0.6194 -0.9462 -0.9529
 7672TIP3    H244432   4.632   1.626   0.201  1.4841  0.4660  1.1091
 7673TIP3   OH244433   4.329   4.485   1.510  0.1964 -0.0972 -0.1295
 7673TIP3    H144434   4.289   4.438   1.583  0.4472  0.7764  0.5899
 7673TIP3    H244435   4.261   4.545   1.480  0.1337 -0.3709 -0.5571
 7674TIP3   OH244436   4.083   2.702   2.496 -0.2134  0.0300  0.0896
 7674TIP3    H144437   4.056   2.617   2.530  2.3544 -0.5291  0.9468
 7674TIP3    H244438   4.168   2.686   2.455  0.6607  2.2663  0.8645
 7675TIP3   OH244439   3.495   6.810  11.682 -0.1838 -0.3562 -0.7572
 7675TIP3    H144440   3.554   6.881  11.708 -0.6450  0.3602 -1.5837
 7675TIP3    H244441   3.418   6.855  11.646 -1.7652 -1.2419  1.3416
 7676TIP3   OH244442   2.142   3.622  10.693  0.5088  0.8591  0.4714
 7676TIP3    H144443   2.208   3.558  10.722 -0.2735  0.3954  1.2695
 7676TIP3    H244444   2.102   3.654  10.774  0.2102  1.6353  0.0266
 7677TIP3   OH244445   2.267   6.176  11.969  0.0105 -0.0445 -0.0695
 7677TIP3    H144446   2.361   6.160  11.969  0.2771  0.9553  2.4746
 7677TIP3    H244447   2.227   6.092  11.946  1.5123 -0.8639  0.2215
 7678TIP3   OH244448   2.825   4.559   3.598  0.0420  0.3610 -0.7404
 7678TIP3    H144449   2.756   4.570   3.532 -1.2471 -1.8206  0.1383
 7678TIP3    H244450   2.783   4.583   3.681  1.3430  2.1081 -0.5419
 7679TIP3   OH244451   6.479   6.761  13.103  0.1641 -0.0785 -0.0538
 7679TIP3    H144452   6.526   6.793  13.026 -0.1692 -0.8363 -0.5867
 7679TIP3    H244453   6.429   6.686  13.071  1.7262 -1.7970  1.3494
 7680TIP3   OH244454   1.175   0.885  11.618  0.1589 -0.7624  0.0898
 7680TIP3    H144455   1.124   0.965  11.629  1.0012 -0.3598  1.2855
 7680TIP3    H244456   1.254   0.913  11.572  0.2989 -0.9628  0.2048
 7681TIP3   OH244457   1.211   0.243  12.553 -0.2986  0.4332  0.7001
 7681TIP3    H144458   1.155   0.171  12.525  1.3327 -0.7835  0.4050
 7681TIP3    H244459   1.265   0.206  12.623  0.5801  1.3597  0.5405
 7682TIP3   OH244460   2.376   6.455  11.262 -0.2047  0.3742 -0.1543
 7682TIP3    H144461   2.341   6.478  11.176 -2.3495 -1.2071  0.2057
 7682TIP3    H244462   2.353   6.363  11.273  0.3279  0.4426  1.9599
 7683TIP3   OH244463   1.015   4.614   3.808  0.2793  0.2437 -0.5049
 7683TIP3    H144464   0.986   4.634   3.718 -1.8238 -0.0206  0.0509
 7683TIP3    H244465   1.080   4.681   3.827  1.5455 -0.2943 -2.5596
 7684TIP3   OH244466   3.478   5.811  14.305  0.2147  0.0158 -1.3341
 7684TIP3    H144467   3.573   5.800  14.300  0.1131 -0.6803 -1.7123
 7684TIP3    H244468   3.467   5.900  14.339  1.0174 -0.6665  0.8707
 7685TIP3   OH244469   1.283   2.070  12.535  0.1740  0.2833 -0.3523
 7685TIP3    H144470   1.353   2.069  12.601  1.2004 -2.0289 -1.3538
 7685TIP3    H244471   1.206   2.039  12.582  0.0763  1.6659  0.4633
 7686TIP3   OH244472   0.660   3.372   5.102  0.3292  0.2376 -0.6724
 7686TIP3    H144473   0.701   3.351   5.186 -3.0427  1.1818  1.3885
 7686TIP3    H244474   0.628   3.289   5.068  2.6542 -0.3269 -1.7416
 7687TIP3   OH244475   5.497   5.515   1.279  0.0688 -0.4489  0.3789
 7687TIP3    H144476   5.540   5.540   1.361  0.4788  0.0538  0.0170
 7687TIP3    H244477   5.555   5.548   1.211  0.6747 -2.4084 -0.1409
 7688TIP3   OH244478   0.604   6.519  10.480 -0.2236 -0.2966 -0.1251
 7688TIP3    H144479   0.660   6.456  10.435  0.6332  0.7947 -0.6606
 7688TIP3    H244480   0.645   6.529  10.567 -2.3821 -3.0753  1.3807
 7689TIP3   OH244481   5.156   1.143   3.548  0.1933 -0.0622  0.4535
 7689TIP3    H144482   5.173   1.153   3.455 -0.3488  1.2853  0.4802
 7689TIP3    H244483   5.230   1.186   3.591  0.1550 -0.1744  0.6340
 7690TIP3   OH244484   7.148   2.519  13.119  0.6623  0.0737  0.1734
 7690TIP3    H144485   7.136   2.427  13.144  2.0379  0.3217  1.9071
 7690TIP3    H244486   7.059   2.554  13.115  0.0433 -1.5038 -1.3752
 7691TIP3   OH244487   1.756   7.129   4.616  0.3633 -0.1614  0.1818
 7691TIP3    H144488   1.749   7.188   4.691  1.9088 -0.1065  0.3289
 7691TIP3    H244489   1.800   7.182   4.549  1.2406 -0.9450  0.1147
 7692TIP3   OH244490   0.956   6.272  14.174  0.1873 -0.3248 -0.1142
 7692TIP3    H144491   0.956   6.222  14.092  2.7926 -0.0860 -0.3628
 7692TIP3    H244492   0.998   6.214  14.237 -1.8911 -0.5456  1.1610
 7693TIP3   OH244493   6.437   0.318  13.623 -0.3317 -0.2182  0.5621
 7693TIP3    H144494   6.518   0.267  13.631 -0.0976  0.1413  0.5237
 7693TIP3    H244495   6.371   0.265  13.666 -0.3004 -1.0281 -0.3556
 7694TIP3   OH244496   0.671   6.452  14.613 -0.0404 -0.9081 -0.1432
 7694TIP3    H144497   0.637   6.530  14.570 -1.1463 -0.5849  1.2335
 7694TIP3    H244498   0.595   6.413  14.656  0.2933 -3.2407 -1.4569
 7695TIP3   OH244499   4.557   2.853   1.555  0.1751 -0.1748 -0.2434
 7695TIP3    H144500   4.524   2.788   1.617  1.7599  0.1301  0.9974
 7695TIP3    H244501   4.480   2.903   1.529 -0.7853 -1.3834  0.1873
 7696TIP3   OH244502   4.293   2.956   1.507  0.2870 -0.1450 -0.1108
 7696TIP3    H144503   4.271   3.030   1.565  0.8251 -0.1129  0.0549
 7696TIP3    H244504   4.209   2.912   1.494  0.3079 -0.7771  1.5703
 7697TIP3   OH244505   1.579   2.584  14.115  0.0305 -0.1301 -0.2587
 7697TIP3    H144506   1.551   2.528  14.043 -0.0418 -1.5938  0.8710
 7697TIP3    H244507   1.563   2.532  14.194  0.1865  1.3934  0.8223
 7698TIP3   OH244508   4.889   1.878  11.353  0.1944  0.0277 -0.6303
 7698TIP3    H144509   4.961   1.823  11.383  1.7841  1.6805 -1.2458
 7698TIP3    H244510   4.900   1.961  11.399 -1.2899  0.3295 -0.7777
 7699TIP3   OH244511   3.170   1.453  14.567 -0.6111  0.0903  0.9050
 7699TIP3    H144512   3.077   1.440  14.550 -0.3797 -2.8383  1.3813
 7699TIP3    H244513   3.174   1.488  14.656 -1.2497 -0.2720  1.0802
 7700TIP3   OH244514   2.188   0.874  11.727  0.2502  0.0579 -0.0438
 7700TIP3    H144515   2.109   0.833  11.761  0.7150  0.3787  1.4880
 7700TIP3    H244516   2.185   0.857  11.633 -1.4550 -0.2250  0.0297
 7701TIP3   OH244517   1.058   6.134  10.751  0.0516 -0.0960 -0.1771
 7701TIP3    H144518   1.106   6.095  10.825 -0.3592 -2.1795 -0.9401
 7701TIP3    H244519   1.125   6.147  10.684  0.0113 -0.6519 -0.3376
 7702TIP3   OH244520   4.827   5.392  12.811 -0.8259  0.1270  0.9165
 7702TIP3    H144521   4.851   5.390  12.903 -0.2626  0.7533  0.7903
 7702TIP3    H244522   4.900   5.436  12.768 -1.9103  1.5202  0.4295
 7703TIP3   OH244523   1.214   0.423  11.608 -0.4852 -0.2464 -0.0114
 7703TIP3    H144524   1.296   0.470  11.622 -1.3936  1.9528 -1.6291
 7703TIP3    H244525   1.195   0.382  11.693  1.5496  0.3717  0.7848
 7704TIP3   OH244526   2.537   3.480   1.364  0.1815 -1.1907  0.2624
 7704TIP3    H144527   2.530   3.386   1.346  0.6402 -0.8247 -2.2901
 7704TIP3    H244528   2.512   3.522   1.282 -2.1472  1.0530  1.9548
 7705TIP3   OH244529   6.017   0.359  12.698  0.7719 -0.3688 -0.4627
 7705TIP3    H144530   6.096   0.352  12.753 -0.2407  2.1913  1.5529
 7705TIP3    H244531   5.957   0.412  12.750 -1.0621  0.5466 -3.3045
 7706TIP3   OH244532   5.730   2.983  10.421 -0.1893  0.1115 -0.4494
 7706TIP3    H144533   5.701   2.930  10.347  1.9452  0.1057 -1.3522
 7706TIP3    H244534   5.764   3.064  10.382  0.3250  0.4111  0.5609
 7707TIP3   OH244535   6.449   6.361  12.431  0.6881  0.1917 -0.3739
 7707TIP3    H144536   6.462   6.285  12.488 -1.5946  0.7998  1.1204
 7707TIP3    H244537   6.432   6.434  12.492  0.3657  1.3552 -1.7977
 7708TIP3   OH244538   4.797   5.990  10.407 -0.7272  0.1447  0.4496
 7708TIP3    H144539   4.742   6.011  10.483 -1.1724 -0.7283  0.3863
 7708TIP3    H244540   4.866   6.056  10.408 -0.7729  0.1965  1.5740
 7709TIP3   OH244541   6.098   6.854   0.151  0.1809  0.0319 -0.1215
 7709TIP3    H144542   6.135   6.812   0.228  0.3115 -0.7278 -0.5775
 7709TIP3    H244543   6.170   6.855   0.088 -0.4779 -1.2918 -0.9527
 7710TIP3   OH244544   4.698   3.737   1.913 -0.5273  0.6100 -0.6759
 7710TIP3    H144545   4.656   3.811   1.956  1.3272  1.2593  0.1081
 7710TIP3    H244546   4.764   3.707   1.975 -0.6614 -1.1658 -1.3432
 7711TIP3   OH244547   1.105   2.834   2.867 -0.4605 -0.0672  0.6306
 7711TIP3    H144548   1.069   2.866   2.950 -0.7303 -0.2867  0.6011
 7711TIP3    H244549   1.040   2.860   2.802  0.3660  1.2316  0.3096
 7712TIP3   OH244550   1.097   1.387  13.489  0.8602  0.0499  0.0376
 7712TIP3    H144551   1.023   1.391  13.550  0.7568 -1.3415  0.0433
 7712TIP3    H244552   1.156   1.456  13.519  0.0038  0.5671  0.6116
 7713TIP3   OH244553   6.559   4.838  11.384 -0.3171 -0.2493 -0.2133
 7713TIP3    H144554   6.547   4.786  11.464  1.3269  0.4270  0.5278
 7713TIP3    H244555   6.568   4.774  11.314  1.2035 -1.0122  0.6173
 7714TIP3   OH244556   4.091   3.578   1.727 -0.3662  0.0133 -0.3765
 7714TIP3    H144557   4.007   3.550   1.692  0.1430  0.0264 -1.6875
 7714TIP3    H244558   4.086   3.561   1.821 -0.9050 -2.2974 -0.7821
 7715TIP3   OH244559   0.839   0.076  12.989 -0.0345  0.0312  0.0129
 7715TIP3    H144560   0.777   0.146  12.966 -1.0217 -0.6714  0.4796
 7715TIP3    H244561   0.799   0.032  13.063  1.1318 -0.3300  0.4512
 7716TIP3   OH244562   2.047   2.450   0.724  0.6969 -1.1354  0.0686
 7716TIP3    H144563   1.978   2.418   0.665 -0.0677 -0.8379  0.7702
 7716TIP3    H244564   2.080   2.529   0.683  0.7266 -1.3682 -0.3560
 7717TIP3   OH244565   1.504   4.477  10.649 -0.6837 -0.1137 -0.1819
 7717TIP3    H144566   1.472   4.388  10.662  1.8313 -1.1514 -0.7128
 7717TIP3    H244567   1.563   4.493  10.723 -1.1569  1.1740 -0.0465
 7718TIP3   OH244568   4.210   3.630  13.455  0.1501  0.1786 -0.5980
 7718TIP3    H144569   4.230   3.571  13.381  0.7215  1.0822 -1.1763
 7718TIP3    H244570   4.118   3.654  13.442 -0.2908 -1.0721  0.0059
 7719TIP3   OH244571   0.373   2.781  10.502 -0.1332  0.0196 -0.3652
 7719TIP3    H144572   0.378   2.836  10.580 -1.2985 -1.4904  0.8215
 7719TIP3    H244573   0.464   2.758  10.483  0.2814  1.4877 -0.2897
 7720TIP3   OH244574   6.437   1.407  11.016 -0.1914 -0.0085  0.5658
 7720TIP3    H144575   6.407   1.351  10.944 -2.2474  3.2193 -1.3555
 7720TIP3    H244576   6.390   1.489  11.003  0.7760  1.4014  4.6126
 7721TIP3   OH244577   2.886   6.458  14.097 -0.0120 -0.3322 -0.0386
 7721TIP3    H144578   2.850   6.391  14.039  0.1212 -0.0822 -0.4092
 7721TIP3    H244579   2.934   6.518  14.039 -1.4471  0.9862  0.0484
 7722TIP3   OH244580   4.941   1.749   1.990  0.1811  0.1937 -0.0440
 7722TIP3    H144581   4.873   1.794   2.040 -0.4827  0.7736 -1.3955
 7722TIP3    H244582   4.998   1.820   1.960  1.0427 -0.2293  0.5638
 7723TIP3   OH244583   2.723   4.353  12.506  0.7554 -0.1027  0.4037
 7723TIP3    H144584   2.656   4.351  12.574 -0.6562  0.4814 -0.9048
 7723TIP3    H244585   2.676   4.379  12.427  2.7014  1.3051 -0.3791
 7724TIP3   OH244586   6.459   3.115  10.947  0.4328  0.1114 -0.2959
 7724TIP3    H144587   6.526   3.180  10.967  0.6071  0.0865 -0.7763
 7724TIP3    H244588   6.396   3.161  10.893 -1.8170  1.1374  2.9195
 7725TIP3   OH244589   2.185   4.874   9.878  0.5806  0.4152 -0.1824
 7725TIP3    H144590   2.175   4.969   9.874 -4.1105  0.1706 -0.5594
 7725TIP3    H244591   2.166   4.844   9.789 -2.3921 -0.9101  0.7568
 7726TIP3   OH244592   0.126   4.465  10.836 -0.0474 -0.3421  0.3031
 7726TIP3    H144593   0.032   4.478  10.819 -0.0854 -1.5847 -0.6139
 7726TIP3    H244594   0.129   4.427  10.923 -0.5443 -1.8165 -0.2977
 7727TIP3   OH244595   4.598   5.264  13.235 -0.0497 -0.3991 -0.0308
 7727TIP3    H144596   4.627   5.316  13.310  0.4719 -0.3188 -0.2799
 7727TIP3    H244597   4.613   5.174  13.262  0.1552 -0.3700 -0.0453
 7728TIP3   OH244598   2.629   3.413  13.645  0.5629  0.8152 -0.2221
 7728TIP3    H144599   2.554   3.353  13.641  0.7330  0.4039  1.9140
 7728TIP3    H244600   2.650   3.431  13.553 -0.8939 -0.6329 -0.8821
 7729TIP3   OH244601   2.855   2.228   0.053 -0.6842 -0.1554  0.3599
 7729TIP3    H144602   2.813   2.142   0.048 -0.3282 -0.3464  0.5566
 7729TIP3    H244603   2.789   2.285   0.092 -0.4251 -0.6874  1.6494
 7730TIP3   OH244604   1.891   5.617  13.893  0.4021  0.5899 -0.5700
 7730TIP3    H144605   1.978   5.658  13.889  0.2887  0.9100  0.1478
 7730TIP3    H244606   1.830   5.691  13.898  0.1242  0.3557 -0.4840
 7731TIP3   OH244607   3.177   2.757  13.194  0.6264  1.1540  0.0731
 7731TIP3    H144608   3.138   2.778  13.278  0.3617  0.1083  0.2263
 7731TIP3    H244609   3.246   2.693  13.214 -0.1584  0.0492 -0.5933
 7732TIP3   OH244610   3.245   5.082   4.513 -0.2483 -0.7718 -0.4648
 7732TIP3    H144611   3.200   5.158   4.475  1.3744 -0.7558 -2.4991
 7732TIP3    H244612   3.211   5.078   4.603 -1.9491  1.0744 -0.9267
 7733TIP3   OH244613   2.793   3.875   3.827  0.0854 -0.9761  0.2869
 7733TIP3    H144614   2.748   3.801   3.785 -0.2965 -1.7271  1.9226
 7733TIP3    H244615   2.722   3.932   3.857  0.3354 -0.6009  0.1589
 7734TIP3   OH244616   1.370   6.435  15.252 -0.5396  0.6471 -0.4142
 7734TIP3    H144617   1.351   6.398  15.338 -0.9780 -0.0219 -0.7893
 7734TIP3    H244618   1.439   6.499  15.268 -0.7033  0.6228  0.4535
 7735TIP3   OH244619   2.215   3.699  12.056 -0.2973  0.6270  0.3205
 7735TIP3    H144620   2.291   3.674  12.004 -2.1848  1.3122 -3.0422
 7735TIP3    H244621   2.142   3.649  12.019 -2.2288  3.1100  0.4438
 7736TIP3   OH244622   4.601   3.520  11.256  0.3977  0.1261  0.3126
 7736TIP3    H144623   4.671   3.531  11.192 -1.1683  1.7195 -1.2450
 7736TIP3    H244624   4.612   3.592  11.317  0.5044 -0.0089  0.4524
 7737TIP3   OH244625   2.382   1.444   5.100  0.2522  0.7357  0.3151
 7737TIP3    H144626   2.306   1.498   5.080  0.0066  0.0820 -0.5726
 7737TIP3    H244627   2.349   1.375   5.156  0.3501  0.8895  0.5640
 7738TIP3   OH244628   2.881   4.103  15.343  0.0263  0.3606  0.4743
 7738TIP3    H144629   2.798   4.056  15.351  0.6611 -1.1538 -1.2484
 7738TIP3    H244630   2.870   4.158  15.266  1.5828 -2.2016 -1.7509
 7739TIP3   OH244631   2.531   5.380   0.389 -0.5610 -0.2029  0.2140
 7739TIP3    H144632   2.612   5.366   0.341 -0.8190 -0.2127 -0.2219
 7739TIP3    H244633   2.535   5.472   0.417 -1.0860  0.2439 -1.1143
 7740TIP3   OH244634   5.933   5.052  14.342  0.6998  0.4633  0.5918
 7740TIP3    H144635   5.981   5.130  14.369  2.6360  0.0057 -1.2408
 7740TIP3    H244636   5.841   5.079  14.341  1.2009  2.3154  1.2175
 7741TIP3   OH244637   2.094   4.897   0.004  0.0652 -0.7054  0.2937
 7741TIP3    H144638   2.144   4.835   0.057 -1.4830 -1.4653  0.9170
 7741TIP3    H244639   2.067   4.846  -0.073  0.4606 -0.2252 -0.1701
 7742TIP3   OH244640   0.839   1.658   1.544  0.4472 -0.3278  0.1967
 7742TIP3    H144641   0.780   1.635   1.473  1.9831  2.2051 -2.1281
 7742TIP3    H244642   0.915   1.600   1.532 -0.6676 -2.2882  2.0281
 7743TIP3   OH244643   6.657   1.154  12.237 -0.1453  0.3571  0.0551
 7743TIP3    H144644   6.579   1.161  12.182  0.0456 -0.6003 -0.3660
 7743TIP3    H244645   6.626   1.172  12.326 -0.9090 -0.2733 -0.0720
 7744TIP3   OH244646   0.933   3.800  13.040  0.6306 -0.7804 -0.5269
 7744TIP3    H144647   0.890   3.745  12.974 -1.0646 -0.0988 -0.0309
 7744TIP3    H244648   0.968   3.737  13.103 -1.5461 -1.3456  0.1971
 7745TIP3   OH244649   7.096   6.243   1.985  0.0364  0.2051  0.0284
 7745TIP3    H144650   7.045   6.265   1.907 -0.9023 -0.5690  0.4039
 7745TIP3    H244651   7.050   6.285   2.057  1.3166  1.5370  0.0994
 7746TIP3   OH244652   5.121   6.738   1.061 -0.1296 -0.0618 -0.5238
 7746TIP3    H144653   5.032   6.736   1.024  0.1244 -0.9352 -1.0974
 7746TIP3    H244654   5.107   6.743   1.155 -0.8129  3.6720 -0.6464
 7747TIP3   OH244655   2.620   3.768   5.149  0.5469 -0.0071  0.1696
 7747TIP3    H144656   2.579   3.705   5.090 -2.0047  1.1760  0.5862
 7747TIP3    H244657   2.625   3.721   5.233  0.0740 -0.1709  0.1077
 7748TIP3   OH244658   1.609   0.181  12.684 -0.3177 -0.8176  0.4951
 7748TIP3    H144659   1.646   0.265  12.656  2.2319 -1.5604  1.3590
 7748TIP3    H244660   1.522   0.203  12.716 -0.3222  1.2382 -0.7159
 7749TIP3   OH244661   2.122   1.839  10.675 -0.6323  0.1887  0.5216
 7749TIP3    H144662   2.054   1.860  10.739 -0.8231 -0.4971  0.5545
 7749TIP3    H244663   2.105   1.748  10.652 -0.1887  0.2471 -0.0486
 7750TIP3   OH244664   0.709   3.380  10.667  0.1368  0.0301 -0.1783
 7750TIP3    H144665   0.630   3.326  10.667  0.1431 -0.0851  2.5180
 7750TIP3    H244666   0.707   3.425  10.583 -2.9193  0.2210 -0.1094
 7751TIP3   OH244667   5.225   4.027   0.677  0.0977 -0.1996 -0.3663
 7751TIP3    H144668   5.277   3.965   0.625  1.3543  0.7122 -0.2485
 7751TIP3    H244669   5.200   3.977   0.755  0.1819 -0.8798 -0.7637
 7752TIP3   OH244670   5.036   2.854  14.622  0.4676  0.0145 -0.3300
 7752TIP3    H144671   5.091   2.837  14.698  0.6443 -0.4726 -0.5665
 7752TIP3    H244672   5.039   2.773  14.571 -1.1926 -0.3536  0.1033
 7753TIP3   OH244673   5.768   6.156   0.080  0.1244 -0.0254 -0.4697
 7753TIP3    H144674   5.795   6.120   0.165 -1.1389 -1.7974 -0.7644
 7753TIP3    H244675   5.845   6.147   0.024  1.4452  2.4437  0.7746
 7754TIP3   OH244676   6.597   5.383  12.705  0.4184 -0.0054  1.1053
 7754TIP3    H144677   6.651   5.303  12.700  0.1707 -0.1431  0.4966
 7754TIP3    H244678   6.534   5.365  12.775 -0.6919 -1.0267 -0.0901
 7755TIP3   OH244679   4.251   2.044   1.418  0.3681 -0.3968  0.6920
 7755TIP3    H144680   4.328   2.100   1.418  0.3550 -0.2557  3.2990
 7755TIP3    H244681   4.182   2.098   1.378  0.9423  0.5032  0.8984
 7756TIP3   OH244682   3.348   4.784   0.139 -0.1390 -0.1935 -0.0254
 7756TIP3    H144683   3.326   4.800   0.231 -2.5617  0.8676 -0.7086
 7756TIP3    H244684   3.267   4.751   0.101  0.3554  0.8254 -2.1090
 7757TIP3   OH244685   6.768   2.584   3.967  0.4966 -0.0293 -0.0448
 7757TIP3    H144686   6.834   2.515   3.960 -0.9531 -1.2996 -3.2459
 7757TIP3    H244687   6.805   2.659   3.921  1.3419  0.7962  1.8810
 7758TIP3   OH244688   5.731   2.337   3.482 -0.3102 -0.1573  0.3795
 7758TIP3    H144689   5.693   2.410   3.434 -1.0538  0.8892  2.4112
 7758TIP3    H244690   5.715   2.260   3.427  1.1720  1.2441 -2.1840
 7759TIP3   OH244691   0.106   6.938   9.792 -0.2026 -0.1243 -0.0045
 7759TIP3    H144692   0.041   6.891   9.741 -0.8876  0.4375  0.3453
 7759TIP3    H244693   0.065   6.953   9.877  0.3353  0.3315  0.1865
 7760TIP3   OH244694   3.407   0.752  11.899  0.2491 -0.1891  0.7884
 7760TIP3    H144695   3.431   0.840  11.869 -2.6313  0.4522  0.0490
 7760TIP3    H244696   3.397   0.761  11.994 -3.1741  1.3018  0.4451
 7761TIP3   OH244697   4.305   2.883   2.133  0.3139  0.0424  0.2471
 7761TIP3    H144698   4.278   2.804   2.179  0.9660 -0.0959  0.4146
 7761TIP3    H244699   4.362   2.852   2.062 -0.7121  0.2524 -0.6882
 7762TIP3   OH244700   6.491   5.718   2.876 -0.1579  0.1305  0.0882
 7762TIP3    H144701   6.434   5.793   2.890  1.9113  2.0011 -0.8836
 7762TIP3    H244702   6.446   5.666   2.809 -0.7819  1.5190 -0.6204
 7763TIP3   OH244703   3.460   6.606   4.295 -0.3178 -0.1719 -0.5161
 7763TIP3    H144704   3.426   6.686   4.335 -1.5124 -0.6801 -0.4931
 7763TIP3    H244705   3.392   6.579   4.233 -0.1859 -1.4999 -0.1056
 7764TIP3   OH244706   2.739   4.865   4.281  0.5046  0.3866  0.0948
 7764TIP3    H144707   2.744   4.803   4.208 -0.7141 -0.4130  0.6485
 7764TIP3    H244708   2.771   4.816   4.356  0.0323  0.5971  0.4395
 7765TIP3   OH244709   1.051   3.132   2.349 -0.2305 -0.0220 -0.3165
 7765TIP3    H144710   1.094   3.184   2.281 -1.4779  1.2401 -0.1775
 7765TIP3    H244711   1.019   3.055   2.302 -0.3124  0.4132 -0.9991
 7766TIP3   OH244712   1.408   3.206   2.966 -0.4642  0.2402 -0.5338
 7766TIP3    H144713   1.402   3.111   2.977 -0.1174  0.2351 -0.3565
 7766TIP3    H244714   1.382   3.242   3.050 -1.0016  0.3169 -0.7340
 7767TIP3   OH244715   3.494   6.605   3.834  0.0371 -0.0062 -0.0424
 7767TIP3    H144716   3.529   6.586   3.921 -1.3522  1.1368  0.8167
 7767TIP3    H244717   3.424   6.669   3.849 -1.2862 -0.9266 -1.8276
 7768TIP3   OH244718   4.752   6.698  12.805  0.3334 -0.5295  0.4930
 7768TIP3    H144719   4.836   6.704  12.761  0.4706  2.6133  0.9358
 7768TIP3    H244720   4.773   6.661  12.891  0.6744 -2.8380 -0.5088
 7769TIP3   OH244721   6.535   6.148  12.745  0.0137 -0.9595 -0.1625
 7769TIP3    H144722   6.630   6.161  12.756  0.3640  0.6819 -3.6181
 7769TIP3    H244723   6.495   6.206  12.809  1.4287  0.4379 -0.4898
 7770TIP3   OH244724   2.969   3.710  13.301 -0.1368 -0.4291 -0.3115
 7770TIP3    H144725   2.970   3.675  13.212 -0.0966 -0.6470 -0.2250
 7770TIP3    H244726   2.879   3.698  13.331 -0.6381  1.3006 -0.9769
 7771TIP3   OH244727   2.250   0.013  11.532  0.3023  0.2442 -0.0171
 7771TIP3    H144728   2.165   0.034  11.494  0.5151 -0.2200 -0.7814
 7771TIP3    H244729   2.313   0.054  11.473  0.6179  2.2624  1.5778
 7772TIP3   OH244730   2.103   1.669   2.101 -0.7392  0.3618  0.0618
 7772TIP3    H144731   2.094   1.581   2.064 -0.7407 -0.0560  1.0213
 7772TIP3    H244732   2.141   1.721   2.030 -0.5500 -0.4631 -0.4565
 7773TIP3   OH244733   0.177   2.173  14.720 -0.1334  0.2878 -0.2848
 7773TIP3    H144734   0.219   2.103  14.669 -1.5954 -0.8143 -0.0485
 7773TIP3    H244735   0.216   2.254  14.686  1.0592 -0.5864 -1.0941
 7774TIP3   OH244736   5.410   1.689  13.256  0.7795 -0.0393  0.6591
 7774TIP3    H144737   5.408   1.632  13.180 -0.0071 -1.4299  1.6796
 7774TIP3    H244738   5.500   1.681  13.290  1.1982  0.7624 -0.2214
 7775TIP3   OH244739   4.790   1.841   1.641  0.0267 -0.0088 -0.0226
 7775TIP3    H144740   4.884   1.846   1.662  0.0351  1.8236 -0.2959
 7775TIP3    H244741   4.783   1.769   1.579  1.2902 -0.0687 -0.1202
 7776TIP3   OH244742   1.906   3.681   2.991 -0.4052  0.4275  0.2187
 7776TIP3    H144743   1.857   3.752   3.032 -1.3113 -1.6186  2.9713
 7776TIP3    H244744   1.851   3.653   2.918 -1.5286  0.5847  0.9802
 7777TIP3   OH244745   3.824   5.884  10.404  0.1294  0.2701 -0.2153
 7777TIP3    H144746   3.860   5.927  10.482 -0.4887  2.1841 -0.9216
 7777TIP3    H244747   3.741   5.846  10.434  0.9337 -0.9633  0.5475
 7778TIP3   OH244748   2.187   2.979  14.249  0.9432 -0.9294  0.7113
 7778TIP3    H144749   2.247   2.986  14.323  0.1367  0.5926  1.2655
 7778TIP3    H244750   2.103   2.955  14.287 -0.4694  3.4242  0.9670
 7779TIP3   OH244751   2.684   5.738  12.363 -0.3367 -0.1361 -0.0112
 7779TIP3    H144752   2.715   5.650  12.382 -0.2838 -0.3457 -1.0292
 7779TIP3    H244753   2.651   5.733  12.273  0.9761  1.2220 -0.6061
 7780TIP3   OH244754   0.318   5.787  10.782 -0.1465  0.4190 -0.1269
 7780TIP3    H144755   0.389   5.796  10.847 -1.0166  0.0862  0.9041
 7780TIP3    H244756   0.353   5.827  10.703  0.5683  1.7859  0.8419
 7781TIP3   OH244757   4.098   2.589  11.943 -0.1709 -0.3316 -0.5725
 7781TIP3    H144758   4.174   2.557  11.991 -0.7977 -0.8938  0.0649
 7781TIP3    H244759   4.024   2.574  12.002 -0.8198 -0.0665 -1.3000
 7782TIP3   OH244760   6.323   3.560  12.068  0.3959  0.6791 -0.5774
 7782TIP3    H144761   6.395   3.507  12.102 -0.2219 -0.9637 -1.6825
 7782TIP3    H244762   6.268   3.579  12.144  0.2446 -0.9341 -0.2499
 7783TIP3   OH244763   1.816   2.817  12.829  0.4738  0.1556  0.5414
 7783TIP3    H144764   1.809   2.912  12.827 -1.5147  0.0446 -0.2918
 7783TIP3    H244765   1.781   2.792  12.915  1.8801  0.1908  1.1529
 7784TIP3   OH244766   3.364   4.842   1.184  0.1989  0.2118 -0.1092
 7784TIP3    H144767   3.360   4.837   1.089  1.2468 -2.1666 -0.0844
 7784TIP3    H244768   3.345   4.934   1.204  1.3652  1.0852 -2.6679
 7785TIP3   OH244769   6.638   2.731   4.389 -0.0941 -0.3240  0.1767
 7785TIP3    H144770   6.693   2.652   4.390 -1.5767 -1.3945  0.3881
 7785TIP3    H244771   6.654   2.773   4.473  2.6129  1.0226 -0.9070
 7786TIP3   OH244772   1.309   4.357  11.373 -0.2159  0.2508  0.6049
 7786TIP3    H144773   1.339   4.268  11.393 -0.5456 -0.6444 -2.3924
 7786TIP3    H244774   1.389   4.408  11.364  0.1600 -0.5290 -0.7284
 7787TIP3   OH244775   0.939   5.944   2.925 -0.3121 -0.5052  0.0552
 7787TIP3    H144776   0.937   5.893   2.843 -1.6505  0.0542 -0.2844
 7787TIP3    H244777   1.010   5.904   2.975  2.0368  0.5095 -2.2293
 7788TIP3   OH244778   1.845   1.067   5.492 -0.8306 -0.4757  0.0833
 7788TIP3    H144779   1.937   1.050   5.469 -0.5013  1.5875 -0.3191
 7788TIP3    H244780   1.845   1.072   5.588 -0.1208  1.3023  0.0278
 7789TIP3   OH244781   2.307   3.531  15.193  0.0368  0.3870 -0.2353
 7789TIP3    H144782   2.385   3.497  15.149 -0.8006  0.5253 -1.9202
 7789TIP3    H244783   2.248   3.554  15.121 -1.4513  0.5321  0.9980
 7790TIP3   OH244784   0.327   0.023  13.812  0.2851  0.1071 -0.1446
 7790TIP3    H144785   0.323   0.060  13.901 -1.1670  2.2415 -1.0222
 7790TIP3    H244786   0.314   0.098  13.754  0.6786 -1.3138 -2.1832
 7791TIP3   OH244787   4.467   2.758   5.081  0.5325 -0.6474  0.0983
 7791TIP3    H144788   4.403   2.689   5.099 -2.3825  0.8780 -3.1690
 7791TIP3    H244789   4.505   2.734   4.996  0.5804  0.9888 -0.3804
 7792TIP3   OH244790   3.905   1.693   1.287  0.6970  0.4438  0.0959
 7792TIP3    H144791   3.977   1.745   1.252 -0.1369  1.4172 -0.2171
 7792TIP3    H244792   3.896   1.620   1.227  1.3903  0.3406  0.1152
 7793TIP3   OH244793   3.600   2.157   3.813 -0.3341  0.5581  0.1890
 7793TIP3    H144794   3.612   2.222   3.882  0.4234  0.3027  0.3029
 7793TIP3    H244795   3.675   2.098   3.821 -0.4983  0.2328 -0.5302
 7794TIP3   OH244796   6.127   5.169   1.204  0.3862 -0.1420 -0.6162
 7794TIP3    H144797   6.154   5.208   1.121  0.5976 -1.2606 -1.0908
 7794TIP3    H244798   6.208   5.159   1.253 -0.0017  2.8682  0.8207
 7795TIP3   OH244799   3.271   5.713   5.520 -0.5273 -0.0719  0.5231
 7795TIP3    H144800   3.347   5.678   5.474  0.9628  1.5997  1.5879
 7795TIP3    H244801   3.284   5.688   5.612 -1.4526 -0.1042  0.6529
 7796TIP3   OH244802   6.728   5.105  12.158 -0.3960  0.1809 -0.3385
 7796TIP3    H144803   6.699   5.064  12.076  1.5366 -0.5747 -0.6911
 7796TIP3    H244804   6.745   5.196  12.134  2.2904 -0.5121 -1.4117
 7797TIP3   OH244805   4.790   7.022  14.310 -0.3371 -0.4993 -0.2530
 7797TIP3    H144806   4.779   6.938  14.355  0.2352 -0.4811 -0.0685
 7797TIP3    H244807   4.701   7.058  14.305 -0.6545 -1.3090 -0.7304
 7798TIP3   OH244808   4.646   2.700  15.418  0.6907 -0.0276 -0.5149
 7798TIP3    H144809   4.624   2.608  15.429  1.0538 -0.0293  0.2281
 7798TIP3    H244810   4.718   2.700  15.354  1.4160 -0.3496  0.2857
 7799TIP3   OH244811   1.877   2.020   1.815 -0.4418 -0.4092 -0.3426
 7799TIP3    H144812   1.899   2.079   1.886 -1.3844  0.2299 -0.5653
 7799TIP3    H244813   1.905   1.934   1.846  0.6223  0.0823  0.1301
 7800TIP3   OH244814   0.764   3.139   2.422  0.0578  0.4650  0.6733
 7800TIP3    H144815   0.735   3.065   2.369 -0.2601  0.5968  0.6612
 7800TIP3    H244816   0.838   3.177   2.374 -0.4086  0.7551  0.1805
 7801TIP3   OH244817   6.325   6.178  13.977 -1.2703 -0.1518  0.1048
 7801TIP3    H144818   6.349   6.233  14.052 -1.0476  1.4805 -1.0952
 7801TIP3    H244819   6.282   6.239  13.916 -0.3647 -1.1323 -1.6069
 7802TIP3   OH244820   2.231   6.697   0.069  0.2348  0.1919  0.2257
 7802TIP3    H144821   2.313   6.657   0.100  0.6701  0.8619 -0.0537
 7802TIP3    H244822   2.245   6.711  -0.024 -0.4389 -0.2529  0.0524
 7803TIP3   OH244823   6.916   0.854  12.465  0.5217  0.2845  0.3910
 7803TIP3    H144824   6.911   0.920  12.395  0.9852  0.5943  0.6372
 7803TIP3    H244825   6.985   0.794  12.436  0.9951  0.6393  0.7565
 7804TIP3   OH244826   7.053   6.206   0.014 -0.1576 -0.6434  0.2953
 7804TIP3    H144827   6.987   6.170  -0.045  1.8761 -1.0971 -1.8078
 7804TIP3    H244828   7.136   6.173  -0.019  1.1445 -0.7059  3.2834
 7805TIP3   OH244829   6.283   1.528  14.989  0.2895  0.2520 -0.3670
 7805TIP3    H144830   6.234   1.593  15.040  0.1293  0.4893 -0.8193
 7805TIP3    H244831   6.350   1.496  15.050  2.4578  3.1502 -0.9943
 7806TIP3   OH244832   3.344   0.407  13.758  0.0688  0.5586 -0.0771
 7806TIP3    H144833   3.433   0.401  13.794  0.4018  0.3960 -0.9140
 7806TIP3    H244834   3.310   0.490  13.793  0.7154  0.8525 -0.1207
 7807TIP3   OH244835   0.002   4.303  12.347  0.0826 -0.1439 -0.4264
 7807TIP3    H144836   0.095   4.288  12.333  0.2207  0.1723  0.1128
 7807TIP3    H244837  -0.002   4.388  12.391 -0.4398 -0.2807 -0.2023
 7808TIP3   OH244838   2.490   0.152  14.591 -0.0638 -0.1996  0.0804
 7808TIP3    H144839   2.463   0.106  14.511  0.9171  0.5907 -0.7153
 7808TIP3    H244840   2.465   0.243  14.576 -0.0522 -0.0748  0.7747
 7809TIP3   OH244841   5.639   2.099   2.177  0.5519 -0.5469  0.4021
 7809TIP3    H144842   5.565   2.041   2.158  0.0556  0.1524  0.1453
 7809TIP3    H244843   5.625   2.128   2.267  0.3103 -0.1400  0.2393
 7810TIP3   OH244844   6.199   4.018  13.952 -0.2900 -0.0906 -0.4013
 7810TIP3    H144845   6.162   4.056  13.872 -1.6852 -1.8875 -0.6809
 7810TIP3    H244846   6.282   3.979  13.923  1.3109  2.8329 -0.0467
 7811TIP3   OH244847   6.886   2.535  11.348 -0.2178  0.2931 -0.5126
 7811TIP3    H144848   6.906   2.578  11.431 -1.2806 -1.1720  0.5513
 7811TIP3    H244849   6.799   2.567  11.324  0.2458  1.0198 -1.3119
 7812TIP3   OH244850   4.890   1.696   2.356 -0.3197  0.5949 -0.4637
 7812TIP3    H144851   4.852   1.620   2.402 -1.4626  0.7317 -1.1441
 7812TIP3    H244852   4.976   1.665   2.326 -0.0891  0.0982  0.6415
 7813TIP3   OH244853   0.237   5.370  12.076  0.0860  0.3020 -0.2587
 7813TIP3    H144854   0.206   5.458  12.099 -2.2383 -0.6842  0.6767
 7813TIP3    H244855   0.263   5.331  12.160 -2.8764 -1.2857  0.0410
 7814TIP3   OH244856   6.527   0.661   2.800 -0.7393  0.1767  0.0403
 7814TIP3    H144857   6.442   0.681   2.760 -0.7305  0.1075 -0.0141
 7814TIP3    H244858   6.552   0.577   2.760 -0.5895  0.2573 -0.0324
 7815TIP3   OH244859   0.819   2.876   0.716 -0.5237  0.2792  0.7746
 7815TIP3    H144860   0.811   2.874   0.621  1.6642  1.0265  0.5146
 7815TIP3    H244861   0.803   2.786   0.743 -0.3477 -0.1173 -0.3926
 7816TIP3   OH244862   5.981   4.950   1.189 -0.0937 -0.2289 -0.2676
 7816TIP3    H144863   6.048   5.018   1.198  1.1621 -1.2815 -1.1663
 7816TIP3    H244864   6.003   4.906   1.106 -0.7298 -1.8375  0.3770
 7817TIP3   OH244865   2.713   6.402   0.133  0.2784 -1.0411  0.5361
 7817TIP3    H144866   2.732   6.357   0.051 -0.8105 -1.9001  0.7326
 7817TIP3    H244867   2.798   6.407   0.178  0.5823 -2.1225  0.1197
 7818TIP3   OH244868   6.097   5.070   1.728  0.3079 -0.1241 -0.5591
 7818TIP3    H144869   6.142   4.998   1.686  0.0115 -0.0503 -1.0113
 7818TIP3    H244870   6.027   5.029   1.779  0.0205 -0.1506 -0.9661
 7819TIP3   OH244871   1.176   4.813   3.873 -0.0430 -0.1089 -0.0112
 7819TIP3    H144872   1.187   4.809   3.969 -0.1212 -1.0088 -0.0295
 7819TIP3    H244873   1.256   4.854   3.842  0.6796 -1.2048  0.3346
 7820TIP3   OH244874   1.618   0.847  14.151 -0.1531  0.4676  0.8524
 7820TIP3    H144875   1.656   0.933  14.168 -0.6545  0.3427  2.8903
 7820TIP3    H244876   1.546   0.864  14.090 -0.1614  1.4782  1.1237
 7821TIP3   OH244877   2.024   2.444   2.003 -0.5051 -0.2401  0.1311
 7821TIP3    H144878   2.076   2.370   2.035 -0.8170 -0.4174  0.2398
 7821TIP3    H244879   2.065   2.469   1.921 -0.9834 -1.1839 -0.4252
 7822TIP3   OH244880   0.441   0.716  11.049 -0.0840 -0.4192 -0.4675
 7822TIP3    H144881   0.398   0.792  11.008  0.0049 -0.3121 -0.3629
 7822TIP3    H244882   0.375   0.647  11.048 -1.5092  0.7111  2.8218
 7823TIP3   OH244883   3.587   0.686  12.227  0.2121  0.1066  0.5919
 7823TIP3    H144884   3.665   0.645  12.264  1.1113 -0.7298 -1.9581
 7823TIP3    H244885   3.615   0.716  12.140 -2.2523 -0.1039 -0.3771
 7824TIP3   OH244886   5.772   2.931   0.682 -0.1959  0.2158  0.1843
 7824TIP3    H144887   5.796   3.015   0.642  3.1603 -0.8246 -0.2326
 7824TIP3    H244888   5.708   2.893   0.622 -0.2782  1.6029 -0.6357
 7825TIP3   OH244889   5.003   0.533   3.589 -0.5186  0.2485  0.6952
 7825TIP3    H144890   4.988   0.441   3.572 -0.1557  0.6650 -2.3958
 7825TIP3    H244891   5.086   0.535   3.638 -0.2835 -1.0460  0.3904
 7826TIP3   OH244892   6.205   4.034   5.293  0.3575  0.2557  0.5306
 7826TIP3    H144893   6.180   4.092   5.365 -0.0512  1.0664 -0.2428
 7826TIP3    H244894   6.130   4.034   5.234  1.1171  0.5551 -0.4815
 7827TIP3   OH244895   2.134   3.127   1.511  0.4003  0.7471 -0.0171
 7827TIP3    H144896   2.123   3.160   1.422 -2.3766 -0.1756 -0.1095
 7827TIP3    H244897   2.172   3.040   1.500  1.6567  1.2883 -0.1517
 7828TIP3   OH244898   5.160   4.196   1.694  0.3733  0.1762  0.0511
 7828TIP3    H144899   5.233   4.234   1.645  0.9059  0.5551  1.1051
 7828TIP3    H244900   5.091   4.262   1.691  0.3470  0.1349 -0.3036
 7829TIP3   OH244901   3.347   1.992   1.024  0.2704 -0.2047 -0.0388
 7829TIP3    H144902   3.263   1.989   1.068 -0.3484  1.0741 -1.0638
 7829TIP3    H244903   3.392   2.067   1.063 -1.1797  2.4139 -2.9313
 7830TIP3   OH244904   4.007   0.753  13.805 -0.2329  0.5940  0.0596
 7830TIP3    H144905   3.982   0.677  13.859 -0.1780  0.1730 -0.4965
 7830TIP3    H244906   4.101   0.763  13.821 -0.3616  0.9476  0.6256
 7831TIP3   OH244907   2.344   3.699   0.193 -0.0461 -0.2982  0.0329
 7831TIP3    H144908   2.430   3.658   0.186  0.0067 -0.5913  1.8275
 7831TIP3    H244909   2.327   3.736   0.106  1.2570 -1.4533 -0.7516
 7832TIP3   OH244910   5.286   6.323  13.833 -0.0041  0.5155 -0.3978
 7832TIP3    H144911   5.369   6.315  13.786  1.4870  1.8407  1.8181
 7832TIP3    H244912   5.225   6.356  13.768  1.6553  1.1772 -1.6969
 7833TIP3   OH244913   5.628   0.140  13.432  0.3561  0.6223  0.3280
 7833TIP3    H144914   5.634   0.047  13.455 -1.4645 -0.1200 -1.8551
 7833TIP3    H244915   5.536   0.153  13.411  0.8476  2.5882 -0.8207
 7834TIP3   OH244916   4.562   6.414  10.958  0.8113 -0.5135 -0.4848
 7834TIP3    H144917   4.636   6.389  11.014 -0.6374 -0.3489  1.6055
 7834TIP3    H244918   4.567   6.354  10.884  1.7432 -1.9865  0.7072
 7835TIP3   OH244919   0.121   7.070   0.763  0.4981 -0.0648  0.4673
 7835TIP3    H144920   0.159   7.154   0.788  2.0854 -0.6034 -0.0294
 7835TIP3    H244921   0.137   7.063   0.669  0.5054 -0.9862  0.5263
 7836TIP3   OH244922   5.029   5.560  13.774 -0.3973 -0.6925 -0.5406
 7836TIP3    H144923   5.040   5.568  13.869 -1.0699 -1.0649 -0.4255
 7836TIP3    H244924   5.049   5.468  13.755 -0.8198 -0.7598 -0.6735
 7837TIP3   OH244925   4.288   4.387  13.792  0.0248  0.2149 -0.0291
 7837TIP3    H144926   4.224   4.322  13.763 -1.5972  1.5954  0.3828
 7837TIP3    H244927   4.312   4.435  13.712  0.6779 -0.3719 -0.2026
 7838TIP3   OH244928   3.162   2.811  11.836 -0.3731  0.5885 -0.2440
 7838TIP3    H144929   3.110   2.832  11.914 -1.5191  0.5518 -0.9919
 7838TIP3    H244930   3.135   2.723  11.811  1.5420 -0.2871  0.5307
 7839TIP3   OH244931   2.791   0.029  14.054  0.1244 -0.2395  0.0212
 7839TIP3    H144932   2.722  -0.010  14.000  1.0158 -0.0936 -1.2480
 7839TIP3    H244933   2.762   0.118  14.070 -1.2725 -0.9364  1.8029
 7840TIP3   OH244934   1.416   1.582  12.315 -0.0662 -0.0665  0.3616
 7840TIP3    H144935   1.364   1.577  12.395  0.5326  0.7848  0.8374
 7840TIP3    H244936   1.353   1.573  12.244 -0.3151 -3.7303  0.8507
 7841TIP3   OH244937   2.941   0.678   0.786  0.1974  0.1120  0.3990
 7841TIP3    H144938   2.972   0.668   0.697  1.3972 -0.1865  0.8336
 7841TIP3    H244939   2.879   0.606   0.798  1.8901 -1.3652  0.5755
 7842TIP3   OH244940   3.647   1.992  12.976 -0.1798  0.1667 -0.6461
 7842TIP3    H144941   3.599   2.073  12.959 -1.1744 -0.6904 -2.1556
 7842TIP3    H244942   3.592   1.943  13.037  0.0450  0.2840 -0.3459
 7843TIP3   OH244943   6.898   1.379   9.769 -0.3745 -0.3362  0.2213
 7843TIP3    H144944   6.921   1.470   9.784  0.6866 -1.1117  4.3614
 7843TIP3    H244945   6.802   1.378   9.771 -0.3878  0.4163  2.9176
 7844TIP3   OH244946   1.011   4.506  13.759 -0.1633  0.5773 -0.4461
 7844TIP3    H144947   1.043   4.533  13.845 -2.3976 -0.6247  0.8292
 7844TIP3    H244948   0.953   4.432  13.776  3.1230 -3.1940 -3.4151
 7845TIP3   OH244949   6.149   6.426  10.041 -0.2969 -0.1527 -0.4281
 7845TIP3    H144950   6.136   6.342  10.083  1.4109  0.6268  1.8657
 7845TIP3    H244951   6.217   6.411   9.975 -1.1537 -0.8543 -1.1747
 7846TIP3   OH244952   1.859   1.234   1.357  0.0298  0.5781 -0.3483
 7846TIP3    H144953   1.787   1.278   1.313 -1.3204 -0.0377  1.1090
 7846TIP3    H244954   1.820   1.202   1.439  1.7240 -0.6255  0.0373
 7847TIP3   OH244955   2.766   6.547  12.336 -0.4234  0.2886  0.0596
 7847TIP3    H144956   2.673   6.570  12.339 -0.7579 -0.9695 -0.1481
 7847TIP3    H244957   2.790   6.533  12.428  0.0374  2.2978  0.2966
 7848TIP3   OH244958   3.228   4.697   1.446 -0.0039  0.4711  0.2252
 7848TIP3    H144959   3.175   4.750   1.388  0.0848  0.6504  0.3081
 7848TIP3    H244960   3.310   4.683   1.398  0.5662  1.6688  0.8072
 7849TIP3   OH244961   0.721   4.328  13.001 -0.3836  0.3601 -0.1107
 7849TIP3    H144962   0.680   4.349  12.918 -0.3055  2.3071  0.3027
 7849TIP3    H244963   0.654   4.279  13.049 -1.3529  1.3963 -0.3635
 7850TIP3   OH244964   2.114   2.010  13.464  0.2026 -0.0174 -0.3333
 7850TIP3    H144965   2.018   2.007  13.458  0.0863 -2.6380  1.5369
 7850TIP3    H244966   2.135   2.103  13.451 -2.6316  0.7614 -0.1142
 7851TIP3   OH244967   4.976   1.069  10.168 -0.1739 -0.2250  0.8669
 7851TIP3    H144968   4.896   1.038  10.209 -0.8379  0.0563 -0.1743
 7851TIP3    H244969   5.021   0.990  10.138 -0.3888 -0.3471  0.8687
 7852TIP3   OH244970   6.549   4.568  15.253  0.2226  0.0129 -0.2705
 7852TIP3    H144971   6.479   4.543  15.193 -0.0337  0.0659  0.0016
 7852TIP3    H244972   6.568   4.659  15.231  0.8236 -0.2684 -0.9388
 7853TIP3   OH244973   6.645   2.952  15.051 -0.2125  0.1818  0.1912
 7853TIP3    H144974   6.659   2.966  14.958 -0.1680  0.6827  0.2705
 7853TIP3    H244975   6.669   2.860  15.066 -0.4753  0.0297 -0.3344
 7854TIP3   OH244976   0.324   2.988  14.261 -0.1236  0.4741 -0.2414
 7854TIP3    H144977   0.405   3.023  14.298 -0.3368  0.8797 -0.1533
 7854TIP3    H244978   0.277   3.065  14.229 -0.3108  0.2063 -0.6198
 7855TIP3   OH244979   0.041   4.329   3.940 -0.4842  0.0853  0.0626
 7855TIP3    H144980   0.091   4.249   3.926 -0.7490 -0.5311  2.2455
 7855TIP3    H244981   0.094   4.380   4.001 -0.2312  1.6937 -1.4360
 7856TIP3   OH244982   5.847   5.095  11.800  0.3417  0.5470  0.0049
 7856TIP3    H144983   5.847   5.079  11.895 -1.6256 -0.6368 -0.1290
 7856TIP3    H244984   5.890   5.017  11.764  1.8761  1.4003 -0.0564
 7857TIP3   OH244985   0.387   6.491   9.333 -0.5588 -0.2376  0.0980
 7857TIP3    H144986   0.296   6.519   9.343 -0.4921  0.7081 -1.5265
 7857TIP3    H244987   0.436   6.546   9.394 -1.1861 -1.7708  2.0763
 7858TIP3   OH244988   4.695   3.115  12.637 -0.1290 -0.0970 -0.0262
 7858TIP3    H144989   4.694   3.206  12.668  2.1987  0.1787 -0.5809
 7858TIP3    H244990   4.610   3.104  12.593 -0.9723  1.3933  1.1195
 7859TIP3   OH244991   6.674   3.439   3.791  0.1287  0.0039  0.5045
 7859TIP3    H144992   6.685   3.367   3.729 -1.1947  0.3943 -0.2193
 7859TIP3    H244993   6.579   3.455   3.793  0.2163  0.4651  2.1052
 7860TIP3   OH244994   0.332   1.383   0.292  0.3602  0.1855  0.0190
 7860TIP3    H144995   0.410   1.329   0.276  0.9349  0.5283  1.4443
 7860TIP3    H244996   0.366   1.472   0.295 -0.2724  0.4418 -0.4274
 7861TIP3   OH244997   3.262   1.385  13.160  0.0535  0.1241  0.1862
 7861TIP3    H144998   3.313   1.327  13.103 -0.3877 -0.1872  0.0970
 7861TIP3    H244999   3.172   1.354  13.150  0.3165 -3.1316  4.5550
 7862TIP3   OH245000   0.715   2.407   2.281  0.5506 -0.0321 -0.2171
 7862TIP3    H145001   0.645   2.349   2.309 -0.3903  1.6704  1.1773
 7862TIP3    H245002   0.673   2.467   2.219  0.9384  0.5119  0.0317
 7863TIP3   OH245003   6.164   1.457  12.862  0.1942 -0.2333 -0.3178
 7863TIP3    H145004   6.114   1.386  12.821 -0.4281  1.5401 -2.8568
 7863TIP3    H245005   6.197   1.508  12.788 -0.4790  2.8590  1.3586
 7864TIP3   OH245006   4.775   1.959  14.137 -0.2551 -0.2105  0.3331
 7864TIP3    H145007   4.809   1.894  14.198 -0.7014  0.3872  1.2435
 7864TIP3    H245008   4.852   1.990  14.088  0.1851 -0.3487  0.9319
 7865TIP3   OH245009   2.655   2.463  11.996  0.2034  0.5088  0.0705
 7865TIP3    H145010   2.708   2.469  12.076  1.2098  0.7095 -0.6011
 7865TIP3    H245011   2.655   2.370  11.974  0.8926  0.5967 -0.3271
 7866TIP3   OH245012   1.934   3.099   2.983  0.4727  0.2611  0.8002
 7866TIP3    H145013   2.012   3.078   3.033 -0.0470 -1.6032  0.8996
 7866TIP3    H245014   1.865   3.046   3.022 -0.3546  0.1779 -0.6772
 7867TIP3   OH245015   2.281   6.388  13.566  0.2524 -0.5091  0.0201
 7867TIP3    H145016   2.271   6.395  13.471 -0.4797 -1.4566 -0.0040
 7867TIP3    H245017   2.338   6.312  13.579  1.2449  0.2832  0.3221
 7868TIP3   OH245018   3.914   0.177   9.443  0.3179 -0.1450  0.0455
 7868TIP3    H145019   3.884   0.259   9.403 -0.6148 -0.7636 -0.5783
 7868TIP3    H245020   3.848   0.113   9.417  1.7623 -1.4084 -0.6489
 7869TIP3   OH245021   7.041   3.418  10.666  0.8917 -0.3713 -0.3323
 7869TIP3    H145022   7.073   3.508  10.675 -0.1701 -0.0444  0.4097
 7869TIP3    H245023   6.984   3.406  10.742 -2.7284 -0.0621 -2.7629
 7870TIP3   OH245024   4.532   3.403   9.748 -0.2549  0.1498  0.0306
 7870TIP3    H145025   4.509   3.456   9.671  0.7405 -1.4734 -1.4699
 7870TIP3    H245026   4.621   3.374   9.731  0.1826  0.1655  2.0973
 7871TIP3   OH245027   5.678   4.168  15.343 -0.0273  0.2415  0.1794
 7871TIP3    H145028   5.759   4.120  15.361  1.0027  2.9782  4.1674
 7871TIP3    H245029   5.621   4.104  15.301  2.2000 -3.5818  2.4033
 7872TIP3   OH245030   1.901   2.888  14.049 -0.5500  0.0562  0.6392
 7872TIP3    H145031   1.966   2.954  14.024  0.9643 -1.4525  0.4123
 7872TIP3    H245032   1.950   2.826  14.103 -1.3854 -1.9657 -0.8270
 7873TIP3   OH245033   2.625   6.522  11.806 -0.0880  0.3980  0.1801
 7873TIP3    H145034   2.542   6.520  11.758 -0.3960 -2.6826  0.6474
 7873TIP3    H245035   2.603   6.489  11.893  1.6429 -0.7545  0.2362
 7874TIP3   OH245036   1.456   1.289  12.098  0.0721  0.0685 -0.6324
 7874TIP3    H145037   1.503   1.284  12.014  2.2204  1.6018  0.3839
 7874TIP3    H245038   1.443   1.383  12.113 -0.4551 -0.1878  0.6533
 7875TIP3   OH245039   1.544   6.839  14.289  0.6874  0.1950 -0.5144
 7875TIP3    H145040   1.608   6.812  14.223  1.3254  1.0456 -0.2595
 7875TIP3    H245041   1.460   6.836  14.243  1.1015  0.6078 -1.3155
 7876TIP3   OH245042   1.614   3.414   4.427  0.0436 -0.1708 -0.1934
 7876TIP3    H145043   1.697   3.461   4.418 -0.3394  0.3931 -0.8154
 7876TIP3    H245044   1.599   3.410   4.521 -0.3291  1.7023 -0.1299
 7877TIP3   OH245045   0.804   6.480  10.220  0.2870  0.4207 -0.0742
 7877TIP3    H145046   0.827   6.497  10.311 -1.1243 -1.1985  0.6237
 7877TIP3    H245047   0.822   6.387  10.207  1.5511  0.8560 -1.8170
 7878TIP3   OH245048   3.657   1.309  15.283 -0.0091  0.8138  0.4586
 7878TIP3    H145049   3.680   1.351  15.365  1.1853  0.5241  0.2928
 7878TIP3    H245050   3.736   1.317  15.229 -1.1465  2.0775 -1.1150
 7879TIP3   OH245051   5.502   2.716   2.122 -0.4117 -0.7648 -0.1906
 7879TIP3    H145052   5.525   2.723   2.029 -0.9088 -0.4894 -0.2928
 7879TIP3    H245053   5.524   2.802   2.159 -0.1400 -0.8994 -0.0336
 7880TIP3   OH245054   0.715   4.706  11.638 -0.2747  0.2770 -0.6614
 7880TIP3    H145055   0.723   4.711  11.733  0.3386 -0.0046 -0.6952
 7880TIP3    H245056   0.650   4.637  11.624  2.1938 -2.2586 -0.4825
 7881TIP3   OH245057   2.403   2.520   0.566 -0.2584  0.0987 -0.4086
 7881TIP3    H145058   2.488   2.564   0.573 -0.6013  1.1352 -2.1667
 7881TIP3    H245059   2.426   2.428   0.554  0.6282  0.3464 -0.7299
 7882TIP3   OH245060   2.830   1.011   2.151  0.0577  0.2443  0.0907
 7882TIP3    H145061   2.829   1.083   2.088 -0.0928 -0.1592 -0.3807
 7882TIP3    H245062   2.788   1.046   2.229  0.6675  0.8986  0.1279
 7883TIP3   OH245063   7.064   0.312  14.840 -0.0069 -0.7664 -0.1549
 7883TIP3    H145064   7.091   0.370  14.912  1.0002 -0.9717 -0.3480
 7883TIP3    H245065   7.017   0.370  14.780  0.3383 -0.2935  0.0154
 7884TIP3   OH245066   3.623   6.087   9.595  0.2547  0.0856 -0.0347
 7884TIP3    H145067   3.631   6.001   9.636  1.9599  0.1056 -0.2593
 7884TIP3    H245068   3.611   6.069   9.502 -1.1601  0.0854  0.1268
 7885TIP3   OH245069   1.339   6.044  10.172 -0.0896 -0.0181  0.6553
 7885TIP3    H145070   1.355   6.124  10.123  1.2112 -0.0739  0.9514
 7885TIP3    H245071   1.416   6.033  10.227  0.6479 -2.4644 -0.7038
 7886TIP3   OH245072   1.419   2.437  11.380 -0.1213 -0.1551 -0.4397
 7886TIP3    H145073   1.362   2.462  11.307 -0.0577 -0.7487 -0.7007
 7886TIP3    H245074   1.470   2.515  11.399 -0.4674  0.1446 -0.7291
 7887TIP3   OH245075   2.954   6.104   9.691 -0.1571  0.2537  0.0647
 7887TIP3    H145076   2.958   6.024   9.637  0.8167 -0.5063  1.2362
 7887TIP3    H245077   3.034   6.151   9.670 -0.3468  0.5418 -0.0199
 7888TIP3   OH245078   1.136   0.560  13.177 -0.1472  0.0097  0.0399
 7888TIP3    H145079   1.108   0.477  13.214  1.4175 -0.6462 -0.1439
 7888TIP3    H245080   1.143   0.544  13.083 -0.7628  0.6386 -0.1190
 7889TIP3   OH245081   3.915   1.090  12.380 -0.4373 -0.3392  0.0343
 7889TIP3    H145082   3.855   1.029  12.424  0.1220 -1.2118 -0.3642
 7889TIP3    H245083   3.870   1.112  12.298  0.7481 -2.9700 -1.4813
 7890TIP3   OH245084   1.731   4.220   3.092 -0.1665 -0.9369  0.2673
 7890TIP3    H145085   1.729   4.285   3.162 -1.2161  0.2482 -0.8109
 7890TIP3    H245086   1.643   4.183   3.090  0.1274 -1.6570  0.1871
 7891TIP3   OH245087   6.247   2.823   2.942 -0.3024 -0.4036  0.0171
 7891TIP3    H145088   6.314   2.857   2.883 -2.3531 -0.6929 -2.6658
 7891TIP3    H245089   6.241   2.888   3.012  1.3123  0.6458 -0.7709
 7892TIP3   OH245090   5.214   2.492  12.314  0.7090 -0.4601  0.4913
 7892TIP3    H145091   5.282   2.506  12.248  2.2213 -2.9342  1.3672
 7892TIP3    H245092   5.252   2.526  12.395 -0.1011  0.2494  0.5892
 7893TIP3   OH245093   6.418   4.626   4.053  0.0169 -0.0838 -0.1600
 7893TIP3    H145094   6.380   4.547   4.091  0.8815 -1.0691 -1.2519
 7893TIP3    H245095   6.343   4.681   4.031 -0.7888 -1.7202 -1.7275
 7894TIP3   OH245096   7.036   4.531   0.250 -0.0623  0.6047 -0.1197
 7894TIP3    H145097   6.964   4.542   0.312  0.3755  0.1331  0.4818
 7894TIP3    H245098   7.111   4.506   0.304  0.3483  0.2763 -0.8283
 7895TIP3   OH245099   3.901   5.605   0.528 -0.2855  0.2126 -0.7134
 7895TIP3    H145100   3.816   5.568   0.553 -0.5075  1.4483  0.5344
 7895TIP3    H245101   3.905   5.594   0.433 -1.7405 -0.1040 -0.7689
 7896TIP3   OH245102   1.947   6.854  13.908  0.9021 -0.7092  1.0033
 7896TIP3    H145103   2.023   6.889  13.955  2.0185 -0.2007 -1.0534
 7896TIP3    H245104   1.981   6.830  13.822 -0.6632 -3.3502  1.0273
 7897TIP3   OH245105   0.718   1.865   0.172 -0.6660  0.1615 -0.2072
 7897TIP3    H145106   0.752   1.857   0.083  1.6327 -0.8429  0.6881
 7897TIP3    H245107   0.688   1.777   0.194  1.5042 -0.3261  0.9919
 7898TIP3   OH245108   3.549   1.133  12.229 -0.8995  0.0018 -0.1628
 7898TIP3    H145109   3.623   1.193  12.238 -0.9940  0.0433  0.3699
 7898TIP3    H245110   3.564   1.066  12.296 -1.5666  0.2544  0.2578
 7899TIP3   OH245111   1.111   5.905  14.802  0.0964 -0.3984 -0.4553
 7899TIP3    H145112   1.164   5.890  14.723  0.4558 -0.5123 -0.1991
 7899TIP3    H245113   1.152   5.980  14.844 -2.0153  1.7913 -1.9972
 7900TIP3   OH245114   2.265   5.815   0.799  0.5413 -0.3387 -0.6449
 7900TIP3    H145115   2.209   5.822   0.876  0.5190  0.8338 -0.7588
 7900TIP3    H245116   2.351   5.789   0.834  0.2355 -1.0029 -0.3628
 7901TIP3   OH245117   3.678   1.917   1.324 -0.0336 -0.1013 -0.4679
 7901TIP3    H145118   3.705   1.840   1.374  0.1370  0.4779  0.3452
 7901TIP3    H245119   3.593   1.941   1.361 -0.2039 -0.0362 -0.8880
 7902TIP3   OH245120   6.785   1.497   0.513 -0.1546 -0.6638  0.9595
 7902TIP3    H145121   6.793   1.432   0.444  0.4880 -0.0572  0.4464
 7902TIP3    H245122   6.856   1.559   0.496 -1.4243  0.7939  0.7424
 7903TIP3   OH245123   6.008   0.796  12.623 -0.1410  0.5456 -0.1296
 7903TIP3    H145124   5.962   0.824  12.702 -0.4390 -0.3404  0.0195
 7903TIP3    H245125   5.944   0.809  12.553 -0.1317  0.6269 -0.1243
 7904TIP3   OH245126   4.953   5.138  12.273 -0.2088  1.2004 -0.7120
 7904TIP3    H145127   4.962   5.211  12.334 -0.1275  0.4589  0.1892
 7904TIP3    H245128   4.859   5.137  12.251 -1.0254 -0.7031  2.2621
 7905TIP3   OH245129   4.356   1.827   2.618  0.3489 -0.4005 -0.1276
 7905TIP3    H145130   4.302   1.904   2.608 -0.8050 -1.1296  0.3078
 7905TIP3    H245131   4.437   1.859   2.658  0.3181  0.7185 -0.9112
 7906TIP3   OH245132   1.252   6.003  13.835 -0.2852 -0.1928 -0.0972
 7906TIP3    H145133   1.285   5.947  13.765  0.9877 -1.0240  1.1064
 7906TIP3    H245134   1.314   6.076  13.838  0.2804 -0.6786  0.7818
 7907TIP3   OH245135   1.729   0.162   1.586  0.3693 -0.4844 -0.1670
 7907TIP3    H145136   1.763   0.108   1.515  0.6266 -0.0841 -0.3486
 7907TIP3    H245137   1.652   0.114   1.617  0.8175 -1.1631 -0.0584
 7908TIP3   OH245138   5.219   3.460  14.178  0.0965  0.0328  0.0766
 7908TIP3    H145139   5.278   3.510  14.121 -0.0910  0.4390  0.2323
 7908TIP3    H245140   5.256   3.372  14.179  0.8886  0.3509  0.4110
 7909TIP3   OH245141   6.122   2.843  14.090  0.0290  0.2281 -0.3409
 7909TIP3    H145142   6.205   2.840  14.042 -0.5688  1.6226 -1.5688
 7909TIP3    H245143   6.148   2.859  14.181  1.1218  1.8188 -0.8716
 7910TIP3   OH245144   6.027   4.717  11.983 -0.7574  0.4527 -0.4597
 7910TIP3    H145145   6.014   4.622  11.978  0.4060  0.3129 -1.1831
 7910TIP3    H245146   6.118   4.727  12.011 -0.9216  1.3659 -0.2167
 7911TIP3   OH245147   2.570   4.412   1.065  0.0350  0.2276 -0.1610
 7911TIP3    H145148   2.565   4.318   1.045 -2.3452  0.2699 -0.1243
 7911TIP3    H245149   2.492   4.449   1.024  0.1889  1.9635  1.0117
 7912TIP3   OH245150   4.547   0.681   5.068 -0.1654 -0.2127 -0.4125
 7912TIP3    H145151   4.515   0.770   5.049  0.7170 -0.3167 -2.7769
 7912TIP3    H245152   4.500   0.626   5.006  0.8232 -1.0879 -0.4012
 7913TIP3   OH245153   0.613   3.981  15.116  0.2170  0.5384  0.7967
 7913TIP3    H145154   0.566   4.028  15.046  0.5004  1.2802  1.0984
 7913TIP3    H245155   0.704   3.981  15.087  0.2534  0.3741  0.9135
 7914TIP3   OH245156   1.351   4.742  11.355 -0.3620  0.2853 -0.0336
 7914TIP3    H145157   1.367   4.827  11.397  1.3013 -0.0118  0.0033
 7914TIP3    H245158   1.324   4.685  11.427  1.4519  0.0449  0.4891
 7915TIP3   OH245159   6.121   0.963   3.765  0.0970  0.1572 -0.8899
 7915TIP3    H145160   6.050   0.902   3.785 -0.1138  1.0798  1.4034
 7915TIP3    H245161   6.183   0.911   3.712 -0.4375 -1.8190  0.3201
 7916TIP3   OH245162   0.647   5.627  15.000 -0.4436 -0.3373  0.1630
 7916TIP3    H145163   0.565   5.630  14.950 -0.3523  1.0147  0.0702
 7916TIP3    H245164   0.715   5.649  14.936  0.1914 -2.7528 -0.0869
 7917TIP3   OH245165   0.173   0.941  11.557 -0.1308 -0.1308  0.3753
 7917TIP3    H145166   0.132   0.864  11.597  1.8169 -1.6735 -0.4525
 7917TIP3    H245167   0.177   0.920  11.464  0.2560  1.0859  0.1029
 7918TIP3   OH245168   0.662   4.514   3.413 -0.1479 -0.1262  0.0218
 7918TIP3    H145169   0.722   4.587   3.426  1.2264 -0.5852 -2.9660
 7918TIP3    H245170   0.695   4.468   3.336 -2.6420 -2.1986  0.0262
 7919TIP3   OH245171   2.154   3.439  14.306  0.5369 -0.1262  0.7417
 7919TIP3    H145172   2.148   3.521  14.256  0.4110  0.8970  2.3513
 7919TIP3    H245173   2.197   3.464  14.388  0.0554 -1.5847  1.4735
 7920TIP3   OH245174   3.353   0.483   0.394  0.4367  0.3252 -0.6666
 7920TIP3    H145175   3.265   0.496   0.357  0.4786  2.6418 -0.1585
 7920TIP3    H245176   3.353   0.393   0.426 -2.6108  0.9196  1.4031
 7921TIP3   OH245177   3.119   3.923   0.353  0.1744 -0.2942 -0.4610
 7921TIP3    H145178   3.063   3.986   0.308 -1.0596 -0.3312  0.9527
 7921TIP3    H245179   3.190   3.976   0.390  0.6789 -0.1426 -1.6058
 7922TIP3   OH245180   0.403   2.512   0.429  0.4135 -0.0186 -0.2070
 7922TIP3    H145181   0.374   2.437   0.377 -0.8257  0.5049 -0.2966
 7922TIP3    H245182   0.401   2.586   0.368 -0.3737  0.4676  0.3849
 7923TIP3   OH245183   4.064   5.997  11.631  0.0830  0.1155  0.6519
 7923TIP3    H145184   4.000   6.066  11.651  0.0175  0.1336  0.3812
 7923TIP3    H245185   4.092   6.017  11.542 -1.8387 -1.6905 -0.4378
 7924TIP3   OH245186   0.742   6.135  14.995  0.5014 -0.6528 -0.0497
 7924TIP3    H145187   0.809   6.142  15.063  1.2880 -1.3236 -0.7351
 7924TIP3    H245188   0.790   6.142  14.913 -0.4789  0.4852 -0.5565
 7925TIP3   OH245189   0.895   0.704   0.529 -0.1829 -0.1627 -0.3635
 7925TIP3    H145190   0.859   0.787   0.496 -2.1683 -1.2720 -1.1872
 7925TIP3    H245191   0.912   0.720   0.622  2.0902  1.9420 -1.0365
 7926TIP3   OH245192   5.778   1.895   0.216  0.1202  0.2821  0.3151
 7926TIP3    H145193   5.853   1.856   0.170 -0.5654 -1.6843  0.7479
 7926TIP3    H245194   5.809   1.909   0.306  1.3493  3.8024 -0.5079
 7927TIP3   OH245195   5.186   2.364   1.812  0.7743  0.2811 -0.1557
 7927TIP3    H145196   5.151   2.275   1.811 -0.1948  0.5587  1.8928
 7927TIP3    H245197   5.197   2.384   1.905 -0.9147  2.9645 -0.4123
 7928TIP3   OH245198   0.367   6.843  14.732 -0.0998  1.0377 -0.6282
 7928TIP3    H145199   0.315   6.869  14.656 -0.7268  0.4716 -0.4028
 7928TIP3    H245200   0.423   6.919  14.750 -0.4777  1.4571 -1.1961
 7929TIP3   OH245201   1.275   3.161  10.456 -0.0232  0.4050 -0.0019
 7929TIP3    H145202   1.270   3.160  10.361  1.6681  0.3377 -0.1113
 7929TIP3    H245203   1.207   3.223  10.483 -2.0430 -1.2150 -1.0968
 7930TIP3   OH245204   1.977   6.407   2.717 -0.0845 -0.0335  0.0424
 7930TIP3    H145205   1.997   6.317   2.742 -1.9622 -1.1750 -2.3178
 7930TIP3    H245206   2.060   6.454   2.731  0.9940 -2.1279  1.1150
 7931TIP3   OH245207   3.744   6.757  10.259 -0.4383  0.3043  0.5703
 7931TIP3    H145208   3.668   6.812  10.240 -0.4433 -0.1515 -0.8266
 7931TIP3    H245209   3.713   6.667  10.243  0.0506  0.0271  1.1653
 7932TIP3   OH245210   7.036   6.660  14.568  0.4888 -0.1567 -0.0001
 7932TIP3    H145211   7.014   6.647  14.661 -1.4197  0.0417 -0.3785
 7932TIP3    H245212   6.999   6.746  14.547  0.4119 -0.4500 -1.0858
 7933TIP3   OH245213   0.192   4.416   0.401  0.0853 -0.3433 -0.1302
 7933TIP3    H145214   0.186   4.325   0.430  2.2642 -0.6712 -0.5489
 7933TIP3    H245215   0.161   4.468   0.475 -0.2708 -1.3874  0.4631
 7934TIP3   OH245216   3.375   0.639   9.712  0.4052  0.0840  0.4267
 7934TIP3    H145217   3.440   0.673   9.651  0.7450  1.3633  1.4635
 7934TIP3    H245218   3.292   0.647   9.666  0.9948 -2.2101 -1.1820
 7935TIP3   OH245219   0.216   3.828   0.468  0.6607 -0.2258 -0.2408
 7935TIP3    H145220   0.221   3.794   0.557  1.6635 -1.7355 -0.8311
 7935TIP3    H245221   0.183   3.917   0.478 -0.5766 -0.8231  1.5150
 7936TIP3   OH245222   5.663   6.743  12.776  0.1645 -0.0329  0.4407
 7936TIP3    H145223   5.638   6.835  12.784  0.1663 -0.0315  0.4266
 7936TIP3    H245224   5.712   6.739  12.693 -0.6606 -0.2345 -0.0456
 7937TIP3   OH245225   1.050   6.846  14.425 -0.4675 -0.1850 -0.7562
 7937TIP3    H145226   1.123   6.870  14.368 -0.0683 -1.6622 -0.8837
 7937TIP3    H245227   0.972   6.856  14.369 -0.3855  1.2618 -0.6561
 7938TIP3   OH245228   4.291   1.644   3.416 -0.4422  0.2127 -0.0196
 7938TIP3    H145229   4.315   1.609   3.502 -0.7163 -1.1641 -0.4697
 7938TIP3    H245230   4.289   1.739   3.427  0.2513  0.0863  1.2987
 7939TIP3   OH245231   5.469   1.993   1.696  0.3268 -0.5748  0.3850
 7939TIP3    H145232   5.548   2.027   1.737 -0.6091  0.7763  1.1543
 7939TIP3    H245233   5.465   2.036   1.610  0.1193 -0.1676  0.5958
 7940TIP3   OH245234   3.455   5.644  13.242  0.6173 -0.1935 -0.1415
 7940TIP3    H145235   3.446   5.573  13.179  1.4221  1.0082 -1.6874
 7940TIP3    H245236   3.394   5.622  13.313  0.6613 -2.2511 -0.6953
 7941TIP3   OH245237   0.214   4.850  11.093 -0.0824  0.5552 -0.2003
 7941TIP3    H145238   0.134   4.902  11.103 -0.3935  0.2345 -0.8853
 7941TIP3    H245239   0.189   4.761  11.119  0.1752  0.5471  0.0225
 7942TIP3   OH245240   3.792   2.136  11.378  0.0037  0.1499  0.4721
 7942TIP3    H145241   3.765   2.228  11.381 -0.9619 -0.0649 -0.8879
 7942TIP3    H245242   3.726   2.090  11.431 -1.4073 -0.1386 -1.4224
 7943TIP3   OH245243   6.693   6.681  12.507 -0.5597 -0.6091  0.1168
 7943TIP3    H145244   6.622   6.723  12.556  0.5977 -0.3811  1.6956
 7943TIP3    H245245   6.766   6.743  12.515  0.2348 -1.4859 -0.2493
 7944TIP3   OH245246   6.585   1.898   0.016  0.1247 -0.0022 -0.6666
 7944TIP3    H145247   6.498   1.916   0.053 -0.6150 -1.5120 -1.5590
 7944TIP3    H245248   6.625   1.838   0.078  0.8127  1.1564  0.0530
 7945TIP3   OH245249   7.146   3.633  13.838  0.1414 -0.1324  0.5519
 7945TIP3    H145250   7.110   3.691  13.770 -1.9052  0.1997  1.8326
 7945TIP3    H245251   7.234   3.611  13.807 -0.6486  0.1353 -2.1149
 7946TIP3   OH245252   0.639   5.385  13.864 -0.4629  0.5546 -0.1469
 7946TIP3    H145253   0.712   5.430  13.908  0.7733 -1.0804 -0.4157
 7946TIP3    H245254   0.618   5.311  13.922 -2.2011  1.2007  0.1053
 7947TIP3   OH245255   4.030   1.890   9.734  0.0460 -0.0722 -0.3058
 7947TIP3    H145256   4.015   1.804   9.696  0.1105 -0.1853 -0.0788
 7947TIP3    H245257   4.097   1.930   9.678 -1.2427  0.5407 -1.4769
 7948TIP3   OH245258   4.157   1.821   4.579 -0.1861 -0.4595 -0.2267
 7948TIP3    H145259   4.252   1.813   4.584 -0.3050 -2.0384  0.1303
 7948TIP3    H245260   4.138   1.833   4.486  0.2835 -1.5564 -0.4738
 7949TIP3   OH245261   5.216   5.036   4.085 -0.5902  0.0372 -0.7425
 7949TIP3    H145262   5.198   5.093   4.159  1.1730 -1.7047  1.1267
 7949TIP3    H245263   5.130   5.001   4.060 -0.9866 -1.3690  2.2455
 7950TIP3   OH245264   0.023   2.541  13.776  0.2381 -0.0867 -0.0039
 7950TIP3    H145265  -0.008   2.456  13.746 -3.4626  0.3278  2.0353
 7950TIP3    H245266  -0.009   2.548  13.866  0.1708  3.4997 -0.1472
 7951TIP3   OH245267   4.316   1.421  13.669  0.5593 -0.0027  0.5964
 7951TIP3    H145268   4.405   1.386  13.672  1.4642  1.8162 -1.6440
 7951TIP3    H245269   4.279   1.385  13.588 -1.6665 -2.5248  2.5556
 7952TIP3   OH245270   3.378   6.064   1.942 -0.2638 -0.3949 -0.4446
 7952TIP3    H145271   3.426   6.063   1.859  1.3357 -0.6186  0.4472
 7952TIP3    H245272   3.411   6.140   1.988 -1.2061 -0.2291 -0.0273
 7953TIP3   OH245273   5.306   4.620   9.400 -0.0195 -0.0551 -0.2092
 7953TIP3    H145274   5.234   4.661   9.448 -0.7052 -0.5371 -0.8047
 7953TIP3    H245275   5.364   4.692   9.376  0.1792  0.2350  1.0646
 7954TIP3   OH245276   2.934   5.377  13.390 -0.1034  0.0952 -0.4573
 7954TIP3    H145277   2.955   5.465  13.358 -0.4051  0.0025 -0.9183
 7954TIP3    H245278   2.939   5.384  13.486  0.0032  0.5789 -0.4960
 7955TIP3   OH245279   6.733   1.857   1.058 -0.3864 -0.1220 -0.6253
 7955TIP3    H145280   6.712   1.857   1.152  3.0952  0.0419  0.2847
 7955TIP3    H245281   6.682   1.929   1.022 -2.2979 -0.5858  0.9870
 7956TIP3   OH245282   6.207   3.927  10.513 -0.1832 -0.9032  0.3662
 7956TIP3    H145283   6.161   4.001  10.552 -2.5734 -2.5665  0.9696
 7956TIP3    H245284   6.259   3.891  10.584  2.4751  1.1329 -0.3798
 7957TIP3   OH245285   2.977   1.254  10.045  0.2707 -0.5838 -0.2585
 7957TIP3    H145286   3.067   1.231  10.066  0.3047 -0.1909  0.0421
 7957TIP3    H245287   2.982   1.341  10.005  0.2256 -1.4282 -2.1628
 7958TIP3   OH245288   0.110   6.686  10.324  0.4263  0.7039 -0.6597
 7958TIP3    H145289   0.171   6.678  10.397  0.3533  0.7066 -0.5979
 7958TIP3    H245290   0.028   6.650  10.358  0.9022 -1.2053 -1.3951
 7959TIP3   OH245291   1.225   0.299  13.483 -0.1880  0.0017  0.8348
 7959TIP3    H145292   1.170   0.308  13.405  0.0761  1.9275  0.8076
 7959TIP3    H245293   1.166   0.315  13.556 -0.2534 -0.9100  0.9870
 7960TIP3   OH245294   4.180   6.648  14.676 -0.0429  0.2014 -0.0095
 7960TIP3    H145295   4.126   6.702  14.618 -0.3538  0.6303  0.6626
 7960TIP3    H245296   4.264   6.695  14.680  0.4831 -0.5897 -1.2421
 7961TIP3   OH245297   2.749   5.134  14.172  0.0253  0.3900 -0.1185
 7961TIP3    H145298   2.670   5.185  14.190 -0.0309 -0.5359  2.7391
 7961TIP3    H245299   2.717   5.046  14.153  0.3142  0.4765 -1.0734
 7962TIP3   OH245300   5.630   2.464  11.689  0.2093  0.1442 -0.1711
 7962TIP3    H145301   5.714   2.466  11.643  0.5135  0.7260  0.3864
 7962TIP3    H245302   5.566   2.492  11.624  0.7167  1.5735 -0.1022
 7963TIP3   OH245303   4.450   6.720   2.066 -0.3567  0.0853 -0.4439
 7963TIP3    H145304   4.415   6.705   1.978 -0.6474  1.9112 -0.6843
 7963TIP3    H245305   4.372   6.729   2.121 -0.1973  0.3158 -0.2569
 7964TIP3   OH245306   1.106   6.483   9.610 -0.2864  0.3137 -0.0244
 7964TIP3    H145307   1.165   6.408   9.610  0.4904  0.8916 -1.2237
 7964TIP3    H245308   1.020   6.446   9.631  0.4238 -0.5822  1.4751
 7965TIP3   OH245309   1.709   5.130  13.615 -0.1081  0.2065 -0.3213
 7965TIP3    H145310   1.800   5.099  13.613 -0.2301 -0.7344  3.0052
 7965TIP3    H245311   1.713   5.215  13.659 -0.6267  1.4808 -2.6015
 7966TIP3   OH245312   1.339   5.756   3.890  0.0699  0.0910  0.3721
 7966TIP3    H145313   1.330   5.851   3.883  2.8199  0.5085  1.3022
 7966TIP3    H245314   1.329   5.738   3.984 -0.4168 -0.5593  0.2051
 7967TIP3   OH245315   0.355   5.786  15.109  0.2167 -0.0135  0.7745
 7967TIP3    H145316   0.371   5.743  15.026 -0.5286 -0.7455  0.9905
 7967TIP3    H245317   0.263   5.814  15.104 -0.2135 -1.1452  1.7929
 7968TIP3   OH245318   0.562   0.918   2.045 -0.7446 -0.1784  0.0926
 7968TIP3    H145319   0.591   0.966   1.967 -3.2600  1.2448 -0.0645
 7968TIP3    H245320   0.642   0.879   2.079  0.8554  1.1701 -1.8215
 7969TIP3   OH245321   4.447   3.231   3.309  0.4787  0.0630 -0.2438
 7969TIP3    H145322   4.441   3.325   3.291  1.3696 -0.0852 -1.4232
 7969TIP3    H245323   4.538   3.209   3.291  0.6065 -0.8009  1.2969
 7970TIP3   OH245324   0.077   3.326   5.406  0.8563  0.0232  0.8655
 7970TIP3    H145325   0.088   3.266   5.333 -0.9059 -1.1674  1.5217
 7970TIP3    H245326   0.010   3.388   5.377  0.6230 -0.0587  1.2192
 7971TIP3   OH245327   4.723   4.433   2.316 -0.2014 -0.1129 -0.2695
 7971TIP3    H145328   4.773   4.378   2.375  0.8517 -0.2353 -1.2377
 7971TIP3    H245329   4.700   4.375   2.243 -1.5459  0.0100  0.0437
 7972TIP3   OH245330   5.899   4.158   5.406 -0.2264  0.5694  0.2984
 7972TIP3    H145331   5.980   4.209   5.410 -0.2290  0.7318 -1.1485
 7972TIP3    H245332   5.852   4.181   5.487  0.9034  0.9013  0.8771
 7973TIP3   OH245333   2.475   2.528  12.723  0.4206  0.3641  0.0901
 7973TIP3    H145334   2.560   2.496  12.753  1.4560  2.1640 -0.7803
 7973TIP3    H245335   2.485   2.623  12.721 -1.5743  0.6038 -0.2050
 7974TIP3   OH245336   0.816   0.097  12.694  0.5785  0.5741  0.2363
 7974TIP3    H145337   0.785   0.175  12.740  0.8948  0.3218  0.8898
 7974TIP3    H245338   0.761   0.026  12.725  0.1704  0.5608 -0.4971
 7975TIP3   OH245339   0.563   4.391  13.210 -0.2862  0.8416 -0.3044
 7975TIP3    H145340   0.539   4.460  13.148 -1.1453  0.2045 -0.7022
 7975TIP3    H245341   0.510   4.315  13.183  0.9585 -0.1125 -0.1534
 7976TIP3   OH245342   0.599   1.556   3.373 -0.2119 -0.1264  0.8782
 7976TIP3    H145343   0.573   1.643   3.342  0.7915 -0.3221 -0.6134
 7976TIP3    H245344   0.694   1.561   3.382  0.0417 -1.4327 -0.5836
 7977TIP3   OH245345   2.323   0.903  11.136  0.0482  0.0099 -0.3822
 7977TIP3    H145346   2.351   0.969  11.199  1.2542 -0.7680 -0.0700
 7977TIP3    H245347   2.282   0.835  11.190 -0.2951  0.0304 -0.6093
 7978TIP3   OH245348   6.046   1.925  11.607 -0.1018 -0.5997 -0.9630
 7978TIP3    H145349   5.957   1.894  11.623  0.8154 -2.4837  1.0759
 7978TIP3    H245350   6.061   1.908  11.514 -1.0471 -2.6422 -0.7996
 7979TIP3   OH245351   5.536   3.011  11.599 -0.2069  0.5775  0.7592
 7979TIP3    H145352   5.523   3.075  11.669  0.1675 -0.4240  1.7952
 7979TIP3    H245353   5.536   2.926  11.645  3.8461  0.0476  0.1348
 7980TIP3   OH245354   5.395   0.432   0.487  0.0618 -0.0758 -0.2026
 7980TIP3    H145355   5.349   0.516   0.478  0.6511  0.6805  2.7091
 7980TIP3    H245356   5.335   0.377   0.538  1.3303  0.1158  1.5940
 7981TIP3   OH245357   5.761   4.775   0.854 -0.0000  0.4149  0.1430
 7981TIP3    H145358   5.848   4.760   0.891  0.8036  0.7957 -1.4916
 7981TIP3    H245359   5.708   4.704   0.889  1.0605 -0.0768  0.8357
 7982TIP3   OH245360   7.065   4.786   1.535  0.4425  0.7182  0.6520
 7982TIP3    H145361   7.114   4.844   1.594 -0.5778  1.9479  0.3385
 7982TIP3    H245362   6.976   4.821   1.536 -0.0448 -0.4569 -0.0860
 7983TIP3   OH245363   3.769   1.012   0.001  0.1954 -0.6073  0.8757
 7983TIP3    H145364   3.789   0.964   0.081  1.2129 -0.9168  0.4417
 7983TIP3    H245365   3.763   0.945  -0.067  1.2189 -0.1705  0.3402
 7984TIP3   OH245366   4.071   3.467  15.347  0.0663  0.7736  0.2424
 7984TIP3    H145367   4.014   3.483  15.272 -0.4415  2.9281  1.0378
 7984TIP3    H245368   4.011   3.444  15.418  0.6007 -2.4360 -0.1700
 7985TIP3   OH245369   4.299   7.019   4.945 -0.2173  0.0042  0.1698
 7985TIP3    H145370   4.299   7.087   4.878 -3.4738 -0.1662 -0.1766
 7985TIP3    H245371   4.336   6.942   4.902 -0.4996  0.4218 -0.8364
 7986TIP3   OH245372   3.755   6.363   9.811  0.7583 -0.0696  0.5815
 7986TIP3    H145373   3.758   6.459   9.813 -0.7242  0.0320 -0.4753
 7986TIP3    H245374   3.814   6.339   9.740  0.8001  0.0942  0.5599
 7987TIP3   OH245375   0.916   3.960  15.198 -0.1818  0.3977  0.1227
 7987TIP3    H145376   0.896   3.869  15.175  0.8290 -0.0013  0.7313
 7987TIP3    H245377   1.005   3.974  15.164 -0.6466  1.4511 -0.7284
 7988TIP3   OH245378   3.359   5.212  12.972  0.0163  0.0294 -0.8439
 7988TIP3    H145379   3.295   5.166  13.026  0.7722 -1.8664 -1.5065
 7988TIP3    H245380   3.343   5.305  12.990 -1.4401 -0.4739  0.6609
 7989TIP3   OH245381   0.725   6.680  13.896  0.0972  0.0213  0.4036
 7989TIP3    H145382   0.780   6.645  13.966 -0.7628 -1.2031  0.4999
 7989TIP3    H245383   0.636   6.656  13.921 -0.2826  0.0710 -0.8186
 7990TIP3   OH245384   0.743   1.018   6.210  0.0262 -0.3892  0.0868
 7990TIP3    H145385   0.695   0.960   6.152  2.3934 -3.4185  0.8920
 7990TIP3    H245386   0.800   0.960   6.261  2.1177  2.5982  1.4843
 7991TIP3   OH245387   3.234   0.336   3.874  0.0942 -0.4425 -0.1483
 7991TIP3    H145388   3.316   0.323   3.921  1.1255  0.3543 -1.6737
 7991TIP3    H245389   3.225   0.431   3.868  0.1438 -0.5253 -1.7985
 7992TIP3   OH245390   2.397   4.778  14.995 -0.0434  0.6059  0.0986
 7992TIP3    H145391   2.428   4.757  15.084 -0.1337  0.7186  0.1574
 7992TIP3    H245392   2.420   4.701  14.943  1.3623  1.1385 -0.1052
 7993TIP3   OH245393   4.286   6.947  13.692 -0.0622 -0.3075 -0.4437
 7993TIP3    H145394   4.212   6.907  13.738  0.8923 -1.5227  0.0950
 7993TIP3    H245395   4.349   6.967  13.761 -0.2918  1.7408 -0.7580
 7994TIP3   OH245396   0.625   6.617   1.662 -0.7166 -0.5829 -0.5228
 7994TIP3    H145397   0.558   6.622   1.731  1.2188  1.5981  1.3985
 7994TIP3    H245398   0.670   6.701   1.667  2.7190 -2.2207 -1.1355
 7995TIP3   OH245399   3.791   1.179   3.663 -0.1743  0.0634 -0.2304
 7995TIP3    H145400   3.871   1.170   3.715  0.7102  1.2781 -1.3272
 7995TIP3    H245401   3.725   1.133   3.714  0.8478  0.4640  1.5464
 7996TIP3   OH245402   6.557   2.755   0.872  0.0346 -0.3676  0.2310
 7996TIP3    H145403   6.652   2.758   0.863  0.1048  0.2113  1.0759
 7996TIP3    H245404   6.530   2.847   0.873 -0.5019 -0.5230  0.2681
 7997TIP3   OH245405   2.594   2.315  14.266 -0.3407 -0.0991  0.4597
 7997TIP3    H145406   2.557   2.230  14.245 -0.6492 -0.0323  0.7182
 7997TIP3    H245407   2.569   2.371  14.193  1.7613 -0.7522 -0.8207
 7998TIP3   OH245408   3.319   5.511   1.548  0.0479  0.5158  0.0629
 7998TIP3    H145409   3.278   5.424   1.551  0.0440  0.4669 -1.0615
 7998TIP3    H245410   3.395   5.504   1.605 -0.3532 -0.0141  0.5401
 7999TIP3   OH245411   1.706   3.082  14.036 -0.4261 -0.4965  0.1536
 7999TIP3    H145412   1.775   3.023  14.066 -0.2415  0.2285  1.1955
 7999TIP3    H245413   1.663   3.112  14.116  0.6186  2.1477 -0.1742
 8000TIP3   OH245414   3.902   6.660  11.500 -0.1131  0.8156 -0.4014
 8000TIP3    H145415   3.807   6.650  11.507 -0.4038  2.7618 -1.0470
 8000TIP3    H245416   3.930   6.683  11.589 -0.0817 -0.6262 -0.0056
 8001TIP3   OH245417   1.139   2.122  14.425  0.0983 -0.3367 -0.5493
 8001TIP3    H145418   1.063   2.064  14.413 -1.5735  1.9083 -1.4690
 8001TIP3    H245419   1.184   2.120  14.341  1.4521 -2.0678  0.1512
 8002TIP3   OH245420   1.381   5.284   1.332  0.0136 -0.2304  0.1140
 8002TIP3    H145421   1.325   5.243   1.398  0.5969 -0.2633  0.5921
 8002TIP3    H245422   1.334   5.271   1.249 -0.2404 -1.0542  0.3829
 8003TIP3   OH245423   6.562   3.687  15.459  0.4662 -0.7027  0.0716
 8003TIP3    H145424   6.519   3.659  15.378  1.4530 -1.0033 -0.3535
 8003TIP3    H245425   6.489   3.701  15.520 -0.3303 -0.0165 -0.9878
 8004TIP3   OH245426   5.621   4.447   1.106  0.0650  0.6369  0.2382
 8004TIP3    H145427   5.651   4.420   1.019  0.2690 -0.7578  0.7224
 8004TIP3    H245428   5.660   4.384   1.166  1.6717  2.7742  1.6120
 8005TIP3   OH245429   0.586   6.341  14.856 -0.9049 -0.0222 -0.1766
 8005TIP3    H145430   0.637   6.299  14.925 -1.0033  1.0864  0.5989
 8005TIP3    H245431   0.576   6.274  14.789  0.8746 -0.5211  0.0091
 8006TIP3   OH245432   5.760   7.156   9.140 -0.4397  0.3951 -0.5840
 8006TIP3    H145433   5.811   7.103   9.200 -1.7647  1.4875  1.6216
 8006TIP3    H245434   5.823   7.217   9.102  0.3275  0.0753  0.1615
 8007TIP3   OH245435   6.120   4.833  11.289  0.4191  0.3931  0.2575
 8007TIP3    H145436   6.185   4.790  11.234 -0.7892 -0.4279 -0.5721
 8007TIP3    H245437   6.126   4.926  11.266 -0.4164  0.0013 -1.6720
 8008TIP3   OH245438   4.159   2.508  10.109  0.8923 -0.1009 -0.0321
 8008TIP3    H145439   4.074   2.509  10.067 -0.7665  0.3500  3.0165
 8008TIP3    H245440   4.175   2.415  10.129  0.7082 -0.1047  0.1026
 8009TIP3   OH245441   0.582   1.303  13.997 -0.0349 -0.3865  0.1237
 8009TIP3    H145442   0.613   1.316  14.086 -2.3005 -0.5274  0.9772
 8009TIP3    H245443   0.604   1.384  13.952  0.0620  0.1535  1.1203
 8010TIP3   OH245444   2.142   3.922  10.876  0.0359  0.2708  0.2117
 8010TIP3    H145445   2.169   3.833  10.900 -0.2566 -0.0620 -0.6439
 8010TIP3    H245446   2.223   3.967  10.854  0.0202 -0.5690 -1.8441
 8011TIP3   OH245447   6.212   5.086   2.305  0.1743  0.2706  0.1142
 8011TIP3    H145448   6.188   5.050   2.220 -1.1728  0.8466  0.2236
 8011TIP3    H245449   6.196   5.181   2.296 -1.9425  0.1271  1.5687
 8012TIP3   OH245450   0.411   3.864  10.337 -0.2702  0.4948 -0.0067
 8012TIP3    H145451   0.498   3.855  10.300  1.2411  1.0677  3.1350
 8012TIP3    H245452   0.378   3.775  10.345 -0.8271  0.3581 -2.8604
 8013TIP3   OH245453   5.873   4.374   1.533 -0.2786  0.0575  0.3389
 8013TIP3    H145454   5.943   4.438   1.521 -1.0276  0.6928 -1.0180
 8013TIP3    H245455   5.865   4.331   1.448 -1.7459  0.2520  0.3490
 8014TIP3   OH245456   0.931   6.011  13.039 -0.4221 -0.0590 -0.2429
 8014TIP3    H145457   0.875   6.085  13.014  0.0770  0.1362 -0.7865
 8014TIP3    H245458   0.951   5.967  12.957 -0.2486 -0.4709  0.0183
 8015TIP3   OH245459   1.858   2.028  14.916  0.4677  0.2956 -0.6701
 8015TIP3    H145460   1.844   1.934  14.904  0.3585  0.2311 -0.0595
 8015TIP3    H245461   1.935   2.048  14.862  0.4077 -0.1119 -0.9127
 8016TIP3   OH245462   2.336   5.095   9.566  0.4247 -0.0838  0.6223
 8016TIP3    H145463   2.315   5.106   9.473 -0.1352 -0.5947  0.6811
 8016TIP3    H245464   2.430   5.109   9.571  0.8804 -2.2958 -0.4159
 8017TIP3   OH245465   6.528   6.417   3.037 -0.4479 -0.2675 -0.0060
 8017TIP3    H145466   6.472   6.446   3.109 -0.7970 -0.8214 -0.0490
 8017TIP3    H245467   6.476   6.432   2.958  0.2917  1.2193 -0.2417
 8018TIP3   OH245468   2.284   0.367   3.475 -0.2385  0.4331 -0.5054
 8018TIP3    H145469   2.269   0.297   3.538  0.3627 -1.1829 -2.0898
 8018TIP3    H245470   2.264   0.328   3.390 -0.0532  2.2456 -1.4345
 8019TIP3   OH245471   6.123   2.475  13.576  0.2431 -0.1858  0.2108
 8019TIP3    H145472   6.202   2.507  13.620  0.0417 -0.2594  0.6311
 8019TIP3    H245473   6.056   2.475  13.644  0.7411 -3.6921  0.9052
 8020TIP3   OH245474   4.938   0.898   4.588 -0.2801 -0.6067  0.6924
 8020TIP3    H145475   4.856   0.895   4.638 -0.5462 -0.9354  0.2462
 8020TIP3    H245476   4.911   0.883   4.497  0.1888  0.1159  0.4331
 8021TIP3   OH245477   0.737   1.375   0.891  0.7052 -0.1909  0.0476
 8021TIP3    H145478   0.759   1.425   0.970  1.4768  1.4981 -1.1537
 8021TIP3    H245479   0.686   1.436   0.838 -0.7185 -1.6546 -0.3353
 8022TIP3   OH245480   0.792   2.683   0.046 -0.3121  0.5503  0.2515
 8022TIP3    H145481   0.737   2.713   0.118 -1.1388 -0.7629  0.2068
 8022TIP3    H245482   0.837   2.606   0.080 -0.3746  0.1782 -0.4790
 8023TIP3   OH245483   2.434   1.426  11.201 -0.0753  0.3021 -0.1567
 8023TIP3    H145484   2.491   1.468  11.137  0.0325  0.1031 -0.1924
 8023TIP3    H245485   2.485   1.353  11.235  0.7872  1.7948  1.9160
 8024TIP3   OH245486   5.292   0.737  10.853 -0.4271 -0.0889 -0.1640
 8024TIP3    H145487   5.381   0.704  10.853 -0.6844 -0.8203 -1.3725
 8024TIP3    H245488   5.238   0.659  10.869 -0.9378  0.0463 -1.1939
 8025TIP3   OH245489   6.616   4.292  15.375 -0.2855  0.0338  0.1602
 8025TIP3    H145490   6.614   4.354  15.302 -0.4757  1.5480  1.3890
 8025TIP3    H245491   6.562   4.219  15.346 -0.1367  0.4732 -1.3019
 8026TIP3   OH245492   2.726   1.290   0.953 -0.4886  0.5039  0.3773
 8026TIP3    H145493   2.728   1.213   0.896 -0.6579 -0.1893  1.2932
 8026TIP3    H245494   2.817   1.317   0.960 -0.4605  0.5678 -0.1760
 8027TIP3   OH245495   7.147   2.475  11.897  0.0025 -0.3214 -0.5086
 8027TIP3    H145496   7.209   2.407  11.923  1.4611  1.0674 -0.1965
 8027TIP3    H245497   7.163   2.547  11.959 -3.6368 -0.7659  1.2208
 8028TIP3   OH245498   2.610   1.791   3.703  0.3652  0.2361 -0.0489
 8028TIP3    H145499   2.650   1.708   3.675 -0.3859  0.5219 -2.1824
 8028TIP3    H245500   2.541   1.766   3.764  1.5410 -0.5209  1.0091
 8029TIP3   OH245501   5.454   0.009  10.370 -0.3884  0.2056 -0.3781
 8029TIP3    H145502   5.471   0.062  10.292  0.4186  1.3580  0.5533
 8029TIP3    H245503   5.525  -0.055  10.372 -0.9127 -0.4095 -1.0628
 8030TIP3   OH245504   1.160   4.733  12.344 -0.3607  0.1533 -0.3730
 8030TIP3    H145505   1.122   4.802  12.289  0.3113  1.6360  0.9707
 8030TIP3    H245506   1.223   4.778  12.400  0.3570 -1.6172  0.3191
 8031TIP3   OH245507   0.636   0.270   0.410  0.5201 -0.1786  0.0386
 8031TIP3    H145508   0.724   0.299   0.435  1.0069 -0.0250 -1.6812
 8031TIP3    H245509   0.651   0.213   0.334 -0.9740  1.5621 -1.6756
 8032TIP3   OH245510   3.424   2.079  11.421 -0.1285 -0.0399 -0.0257
 8032TIP3    H145511   3.404   2.015  11.353  2.1146 -1.4552  0.5589
 8032TIP3    H245512   3.504   2.047  11.462 -0.3364  1.7975  2.0167
 8033TIP3   OH245513   1.745   2.204   1.647 -0.3424  0.0438 -0.3405
 8033TIP3    H145514   1.762   2.273   1.711  2.4797  0.1898 -1.1247
 8033TIP3    H245515   1.778   2.124   1.689 -1.4983 -0.4750 -0.3572
 8034TIP3   OH245516   0.711   0.838   2.967 -0.1164 -0.6911  0.5017
 8034TIP3    H145517   0.787   0.832   3.025 -1.5016  0.5357  2.5532
 8034TIP3    H245518   0.703   0.931   2.947 -1.1996 -0.7791  0.4913
 8035TIP3   OH245519   6.126   0.329  12.102  0.2161 -0.3543  0.0387
 8035TIP3    H145520   6.130   0.263  12.171 -0.4996 -0.5362 -0.0900
 8035TIP3    H245521   6.033   0.337  12.082  0.2734  0.7905  0.1530
 8036TIP3   OH245522   6.841   1.259   1.492 -0.3080 -0.1573 -0.1308
 8036TIP3    H145523   6.781   1.184   1.497 -1.1750  0.5325  0.0014
 8036TIP3    H245524   6.922   1.222   1.456 -0.8334 -1.0893 -0.4015
 8037TIP3   OH245525   2.676   6.555  11.120  0.0142 -0.1541 -0.2350
 8037TIP3    H145526   2.678   6.651  11.116 -0.4442 -0.0819  0.8675
 8037TIP3    H245527   2.674   6.527  11.029  0.2866  0.8856 -0.5712
 8038TIP3   OH245528   6.474   0.364   2.873 -0.5020 -0.2586  0.1301
 8038TIP3    H145529   6.542   0.368   2.940 -1.9290 -0.5370  1.6930
 8038TIP3    H245530   6.397   0.332   2.921 -1.8915  0.6545 -1.4159
 8039TIP3   OH245531   2.941   5.184  14.723 -0.2197 -0.0658  0.5353
 8039TIP3    H145532   2.854   5.186  14.762 -0.8106 -0.4510 -0.7250
 8039TIP3    H245533   2.972   5.094  14.737 -0.5518 -0.2861 -0.1307
 8040TIP3   OH245534   3.986   3.029   0.326 -0.3296 -0.2652 -0.0417
 8040TIP3    H145535   3.900   3.012   0.364 -0.1875  0.4786  0.6168
 8040TIP3    H245536   4.034   3.076   0.393  0.3920 -0.1284 -0.6366
 8041TIP3   OH245537   2.537   5.163   0.941  0.4056 -0.1574  0.0443
 8041TIP3    H145538   2.610   5.101   0.946  0.3151 -0.1568  2.1457
 8041TIP3    H245539   2.538   5.207   1.025 -1.9807 -0.1031  0.0870
 8042TIP3   OH245540   1.015   0.982  11.367 -0.2406 -0.9589 -0.3929
 8042TIP3    H145541   1.074   1.042  11.322 -0.9228 -0.4039 -0.5658
 8042TIP3    H245542   0.927   1.016  11.348 -0.5705  0.8801  3.4658
 8043TIP3   OH245543   6.852   4.711   2.293 -0.0717 -0.4662 -0.5826
 8043TIP3    H145544   6.788   4.780   2.309  2.1330  1.7868 -0.8773
 8043TIP3    H245545   6.816   4.634   2.338 -0.7854  1.8637  3.3346
 8044TIP3   OH245546   4.265   5.862  14.515 -0.3575 -0.0190 -0.1048
 8044TIP3    H145547   4.322   5.855  14.591 -1.8035  0.7103  1.0828
 8044TIP3    H245548   4.321   5.838  14.441  0.9042 -1.4029  1.2326
 8045TIP3   OH245549   4.586   5.944  10.787  0.4418 -0.2787 -0.7405
 8045TIP3    H145550   4.601   5.852  10.764 -1.4794 -1.1415  1.1104
 8045TIP3    H245551   4.537   5.980  10.713 -0.9332 -1.4745 -0.4615
 8046TIP3   OH245552   0.407   4.260  12.864 -0.0239  0.4978  0.3694
 8046TIP3    H145553   0.393   4.267  12.769  2.7952  3.0789  0.0338
 8046TIP3    H245554   0.325   4.222  12.896 -1.4554  0.3826 -2.9577
 8047TIP3   OH245555   1.535   5.449   0.787  0.4296 -0.0276 -0.0749
 8047TIP3    H145556   1.571   5.455   0.699 -0.7026  0.6006 -0.5155
 8047TIP3    H245557   1.488   5.365   0.789  1.4422 -0.5939  0.3238
 8048TIP3   OH245558   5.108   0.237  11.930  0.2162  0.2719  0.2111
 8048TIP3    H145559   5.179   0.245  11.993  0.5976 -0.1824 -0.1503
 8048TIP3    H245560   5.091   0.327  11.901  0.7992  0.3605  0.1310
 8049TIP3   OH245561   5.110   4.499  13.178  0.1322  0.0338  0.3201
 8049TIP3    H145562   5.172   4.463  13.241  1.6110  3.3554  0.9420
 8049TIP3    H245563   5.161   4.560  13.125 -1.7518 -0.3132 -2.1053
 8050TIP3   OH245564   1.556   6.445   9.720 -0.2202 -0.3834  0.1481
 8050TIP3    H145565   1.573   6.367   9.773  0.2231 -1.0650 -0.9536
 8050TIP3    H245566   1.530   6.410   9.635  0.4457  0.6785 -0.5083
 8051TIP3   OH245567   0.044   2.621  12.265 -0.5783  0.9205 -0.0068
 8051TIP3    H145568  -0.014   2.651  12.195 -1.0681  0.1551  0.0601
 8051TIP3    H245569   0.118   2.581  12.219 -0.2958  1.5269 -0.0892
 8052TIP3   OH245570   2.229   1.447  12.492 -0.0964 -0.7280  0.6890
 8052TIP3    H145571   2.247   1.494  12.410 -0.3716 -0.9728  0.4862
 8052TIP3    H245572   2.268   1.502  12.560 -1.0831  0.1844  0.5390
 8053TIP3   OH245573   5.657   3.644  13.230 -0.2238  0.0998 -0.8044
 8053TIP3    H145574   5.702   3.728  13.218  0.3397 -0.1309 -0.3360
 8053TIP3    H245575   5.700   3.585  13.168 -0.0516 -0.0559 -0.5376
 8054TIP3   OH245576   3.071   5.115   1.811 -0.1115 -0.5965  0.3938
 8054TIP3    H145577   3.125   5.036   1.813 -2.2247 -2.1283  3.0186
 8054TIP3    H245578   3.082   5.153   1.899 -2.0429 -0.1159  0.4692
 8055TIP3   OH245579   5.552   6.201  12.474  0.7094  0.1983  0.3691
 8055TIP3    H145580   5.459   6.176  12.474 -0.0062  2.4307  2.5917
 8055TIP3    H245581   5.599   6.118  12.479 -1.1608 -0.9802 -0.2776
 8056TIP3   OH245582   5.737   4.968  15.291 -0.0434 -0.3251  0.0504
 8056TIP3    H145583   5.651   4.926  15.289  0.0978 -0.6051 -0.2687
 8056TIP3    H245584   5.799   4.896  15.277  0.1341  0.1958 -2.1643
 8057TIP3   OH245585   1.331   3.969  12.834 -0.0707 -0.7941  0.2730
 8057TIP3    H145586   1.241   3.936  12.824 -0.1883 -0.8411  1.2855
 8057TIP3    H245587   1.334   4.047  12.779 -0.3570 -1.4609 -0.7153
 8058TIP3   OH245588   1.377   1.953   1.945 -0.3874 -0.2069  0.0889
 8058TIP3    H145589   1.370   2.046   1.923  1.4429  0.0055  0.3152
 8058TIP3    H245590   1.463   1.943   1.985 -1.8788 -1.3526  3.4193
 8059TIP3   OH245591   3.352   1.606   5.457  0.2141  0.4854  0.1164
 8059TIP3    H145592   3.430   1.562   5.423 -0.1389 -0.6807  0.7252
 8059TIP3    H245593   3.370   1.616   5.551  0.4329  2.0109 -0.0674
 8060TIP3   OH245594   0.764   3.176   0.736 -0.0820 -0.6027 -0.1045
 8060TIP3    H145595   0.783   3.084   0.756 -0.6273 -0.5679  0.6428
 8060TIP3    H245596   0.843   3.223   0.761 -0.5487 -0.6332  1.5601
 8061TIP3   OH245597   4.194   0.159   3.020  0.2572 -0.1386  0.4217
 8061TIP3    H145598   4.123   0.188   3.077 -1.6532 -2.4852 -0.6196
 8061TIP3    H245599   4.271   0.207   3.052 -1.3935  1.1669  2.7341
 8062TIP3   OH245600   3.881   0.485   1.878 -0.6302  0.0081 -0.6242
 8062TIP3    H145601   3.912   0.507   1.966 -2.0383 -0.2957 -0.0234
 8062TIP3    H245602   3.927   0.404   1.856 -1.9879 -1.2276  0.8448
 8063TIP3   OH245603   6.771   5.447   3.215 -0.4701 -0.1191 -0.2618
 8063TIP3    H145604   6.680   5.475   3.204 -0.1453  1.4394  0.6924
 8063TIP3    H245605   6.788   5.458   3.309  1.0735  0.8690 -0.6247
 8064TIP3   OH245606   5.454   4.031   3.145 -0.0071  0.1001 -0.2571
 8064TIP3    H145607   5.458   4.036   3.241 -0.2521  2.6980 -0.3332
 8064TIP3    H245608   5.463   3.937   3.127  2.6558 -0.2893  2.1716
 8065TIP3   OH245609   6.338   4.590  14.896  0.2115  0.1458  0.0441
 8065TIP3    H145610   6.286   4.515  14.866  0.6846 -0.0040 -0.4217
 8065TIP3    H245611   6.396   4.553  14.963 -0.7150  0.4434  1.0398
 8066TIP3   OH245612   1.192   2.903  12.044 -0.3490 -0.2949  0.4761
 8066TIP3    H145613   1.096   2.904  12.049 -0.5413 -0.4976 -2.0904
 8066TIP3    H245614   1.220   2.895  12.135 -2.7340  0.6844  1.3881
 8067TIP3   OH245615   4.430   6.532  15.482  0.4024 -0.4842  0.8890
 8067TIP3    H145616   4.421   6.437  15.488 -0.5084 -0.4119  0.9103
 8067TIP3    H245617   4.518   6.546  15.447 -0.7622 -1.5002 -2.9106
 8068TIP3   OH245618   0.236   5.032  14.418  0.8800  0.5397  0.1473
 8068TIP3    H145619   0.214   4.975  14.491 -1.2655 -1.1459 -1.6839
 8068TIP3    H245620   0.176   5.107  14.427 -2.2037 -1.4584 -1.7932
 8069TIP3   OH245621   5.348   4.122   2.849 -0.0960  0.3962  0.0553
 8069TIP3    H145622   5.362   4.112   2.943  0.7166  1.3638  0.0588
 8069TIP3    H245623   5.391   4.205   2.827 -1.3440  0.8152 -0.9484
 8070TIP3   OH245624   1.599   0.655   1.645  0.1863 -0.3722  0.2316
 8070TIP3    H145625   1.561   0.600   1.713 -1.5416  1.5615  0.9659
 8070TIP3    H245626   1.540   0.646   1.570 -0.2089  0.5586  0.4158
 8071TIP3   OH245627   6.776   3.056  11.503  0.0430  0.8027 -0.2884
 8071TIP3    H145628   6.718   3.123  11.466 -0.1106  0.3798 -0.8220
 8071TIP3    H245629   6.796   2.998  11.430 -0.3873 -0.1394  0.3248
 8072TIP3   OH245630   6.141   0.160  14.574  0.5559 -0.3138  0.1692
 8072TIP3    H145631   6.085   0.215  14.520 -0.4496  0.7273  2.1724
 8072TIP3    H245632   6.105   0.071  14.565 -0.7584  0.1600  0.5686
 8073TIP3   OH245633   5.915   5.200  13.736  0.3215 -0.1082  0.5195
 8073TIP3    H145634   5.876   5.212  13.823 -0.7519 -0.9598  0.1838
 8073TIP3    H245635   5.842   5.211  13.675  0.5451 -1.8278 -0.1320
 8074TIP3   OH245636   3.016   5.762  12.600 -0.3215  0.2030  0.9356
 8074TIP3    H145637   3.012   5.668  12.615 -0.6756 -0.0568 -0.6097
 8074TIP3    H245638   2.998   5.772  12.506  1.2524  1.6811  0.7373
 8075TIP3   OH245639   0.915   2.300   3.378 -0.5671 -0.5725 -0.0195
 8075TIP3    H145640   0.834   2.295   3.429  0.1384  0.0370  1.2013
 8075TIP3    H245641   0.968   2.228   3.410  0.1093  0.1574  0.5489
 8076TIP3   OH245642   4.394   6.401   4.896 -0.3683  0.0797  0.0989
 8076TIP3    H145643   4.335   6.477   4.902 -1.4439 -0.7549  0.5619
 8076TIP3    H245644   4.438   6.411   4.812  0.5059  1.9121  0.7278
 8077TIP3   OH245645   1.648   0.706   0.823 -0.3086  0.3476  0.6159
 8077TIP3    H145646   1.715   0.662   0.875 -0.9824 -0.0750  1.1295
 8077TIP3    H245647   1.634   0.649   0.748  1.2120  1.3224 -0.4643
 8078TIP3   OH245648   1.545   5.905   2.500  0.2499 -0.2690 -0.3099
 8078TIP3    H145649   1.495   5.873   2.575 -0.6504 -0.2200 -0.8746
 8078TIP3    H245650   1.586   5.827   2.463 -1.4140 -0.7335 -1.2968
 8079TIP3   OH245651   0.287   2.016   0.584 -0.0995 -0.1984  0.0789
 8079TIP3    H145652   0.227   2.018   0.509  0.7194 -2.0862 -0.6847
 8079TIP3    H245653   0.279   2.103   0.624 -1.4709  0.4265 -1.4641
 8080TIP3   OH245654   5.106   4.851   2.055  0.4134  0.1956 -0.5490
 8080TIP3    H145655   5.021   4.817   2.026  1.2410 -0.2141 -2.7298
 8080TIP3    H245656   5.161   4.773   2.063  1.3581  0.6706 -2.0637
 8081TIP3   OH245657   6.464   2.940   9.966 -0.3057  0.2461  0.5642
 8081TIP3    H145658   6.527   2.944   9.894 -1.3146 -1.2751 -0.4633
 8081TIP3    H245659   6.498   2.874  10.025 -1.0216 -0.7834 -0.1335
 8082TIP3   OH245660   4.378   6.406   9.966  0.5226 -0.0294  0.1845
 8082TIP3    H145661   4.418   6.491   9.946  1.4281 -0.2336  1.0799
 8082TIP3    H245662   4.450   6.352   9.996 -0.3171 -0.6173  1.2030
 8083TIP3   OH245663   6.288   0.024   9.616  0.2549 -0.1872 -0.1971
 8083TIP3    H145664   6.316   0.013   9.525 -0.6236 -0.3744 -0.4627
 8083TIP3    H245665   6.198  -0.009   9.616  0.8309 -1.8785  1.1373
 8084TIP3   OH245666   5.678   2.496  12.536 -0.1119  0.1743 -0.3821
 8084TIP3    H145667   5.684   2.591  12.550 -2.7776  0.7252 -2.2403
 8084TIP3    H245668   5.748   2.460  12.591  1.0864  3.1885  0.3150
 8085TIP3   OH245669   0.499   2.417   0.766  0.5592  0.7740  0.1727
 8085TIP3    H145670   0.420   2.390   0.719  1.4458  0.5686 -1.2577
 8085TIP3    H245671   0.512   2.349   0.832  0.5544 -0.1658 -0.7805
 8086TIP3   OH245672   2.560   4.793  13.706  0.0273  0.3653 -0.2520
 8086TIP3    H145673   2.484   4.774  13.761 -0.2088  0.4035 -0.5597
 8086TIP3    H245674   2.628   4.733  13.737 -0.1000  0.3879  0.0798
 8087TIP3   OH245675   4.079   5.191   0.111 -0.4101 -0.5350 -0.1974
 8087TIP3    H145676   4.092   5.284   0.088  1.4743 -0.1075  2.1969
 8087TIP3    H245677   4.118   5.143   0.037 -1.2974  0.5401 -1.4175
 8088TIP3   OH245678   2.732   5.238  14.886 -0.5245  0.0489  0.1619
 8088TIP3    H145679   2.658   5.268  14.832 -0.5887  2.5205  1.4939
 8088TIP3    H245680   2.693   5.178  14.949 -1.2518  0.5253  0.1855
 8089TIP3   OH245681   6.772   4.767  10.611 -0.3868 -0.1106 -0.1258
 8089TIP3    H145682   6.776   4.714  10.691  1.6835 -0.6461 -0.5454
 8089TIP3    H245683   6.678   4.779  10.596 -0.8612 -1.6400  1.3065
 8090TIP3   OH245684   5.627   0.354   9.448  0.0577  0.4337  0.5001
 8090TIP3    H145685   5.671   0.437   9.469 -0.8929  0.7536  1.3012
 8090TIP3    H245686   5.627   0.351   9.352  1.0130  0.8549  0.4720
 8091TIP3   OH245687   2.513   4.608   1.703  0.5572  0.6384 -0.4443
 8091TIP3    H145688   2.509   4.700   1.729  1.1209  0.6202 -0.2809
 8091TIP3    H245689   2.492   4.560   1.783  1.1069  0.6098 -0.3126
 8092TIP3   OH245690   6.704   2.874   2.931 -0.2130  0.1028 -0.0847
 8092TIP3    H145691   6.664   2.867   3.018 -0.1122  0.1220 -0.0367
 8092TIP3    H245692   6.781   2.818   2.936 -0.0870  0.2762 -0.0948
 8093TIP3   OH245693   0.464   6.922  10.392 -0.4495 -0.2296  0.1678
 8093TIP3    H145694   0.556   6.900  10.384  0.5548  1.9003  3.6881
 8093TIP3    H245695   0.421   6.841  10.418  0.4450 -1.1614 -1.1612
 8094TIP3   OH245696   0.448   5.530   0.303 -0.1907 -0.8688  0.0429
 8094TIP3    H145697   0.434   5.489   0.218  1.3209 -1.0035 -0.1695
 8094TIP3    H245698   0.506   5.604   0.285 -1.5503  0.4056  0.6685
 8095TIP3   OH245699   1.474   0.134  10.461 -0.2716 -0.1693  0.1628
 8095TIP3    H145700   1.518   0.053  10.486 -0.5285 -0.5820 -0.6948
 8095TIP3    H245701   1.533   0.174  10.396  0.1689  0.6648  1.0464
 8096TIP3   OH245702   2.094   4.232   5.131  0.3043 -0.2467  0.0880
 8096TIP3    H145703   2.034   4.161   5.153 -0.1997 -0.6621 -2.2982
 8096TIP3    H245704   2.157   4.191   5.071 -0.2983  1.3898 -1.7415
 8097TIP3   OH245705   1.376   3.575  14.669  0.2440  0.6299  0.4059
 8097TIP3    H145706   1.337   3.615  14.592  0.2086  0.3390  0.2693
 8097TIP3    H245707   1.306   3.578  14.735  0.8665  2.5491  1.0305
 8098TIP3   OH245708   1.985   5.380   0.481  0.4103 -0.5345  0.6479
 8098TIP3    H145709   1.911   5.413   0.430 -0.3042 -2.2230  0.5328
 8098TIP3    H245710   2.017   5.456   0.529 -0.0466  0.6973 -0.9140
 8099TIP3   OH245711   4.622   3.145  12.298  0.1310  0.6277  0.0841
 8099TIP3    H145712   4.699   3.165  12.245  1.6324 -1.5196  1.2703
 8099TIP3    H245713   4.638   3.056  12.331 -2.9926  0.0006  0.2125
 8100TIP3   OH245714   1.592   2.601  15.146  0.1407  0.4505 -0.2793
 8100TIP3    H145715   1.660   2.534  15.156  0.2771  0.4556 -1.0854
 8100TIP3    H245716   1.613   2.667  15.212  0.3273 -0.0314  0.1520
 8101TIP3   OH245717   3.148   2.699  11.297  0.4295 -0.1172  0.3556
 8101TIP3    H145718   3.132   2.755  11.221  2.8611 -1.1961 -1.0909
 8101TIP3    H245719   3.082   2.630  11.291  0.9374 -0.5185 -1.1956
 8102TIP3   OH245720   6.516   2.349   1.000 -1.5977 -0.5482  0.6481
 8102TIP3    H145721   6.458   2.310   1.066 -1.2477  1.5431  2.3166
 8102TIP3    H245722   6.557   2.423   1.045 -0.2353  0.1150 -1.5244
 8103TIP3   OH245723   4.896   0.937   0.669  0.2133 -0.1548 -0.1694
 8103TIP3    H145724   4.824   0.884   0.703 -1.0789  1.4832 -0.2106
 8103TIP3    H245725   4.951   0.955   0.745  0.7155 -1.5698 -0.1694
 8104TIP3   OH245726   4.714   5.411  13.458 -0.5019 -0.1874 -0.3097
 8104TIP3    H145727   4.798   5.367  13.466 -0.2585  0.1219 -1.0563
 8104TIP3    H245728   4.732   5.502  13.478 -1.2436 -0.5651  2.4780
 8105TIP3   OH245729   6.825   5.163  11.303  0.1669 -0.0090 -0.1291
 8105TIP3    H145730   6.850   5.081  11.260 -1.2128 -0.7242  0.3970
 8105TIP3    H245731   6.754   5.139  11.363  0.2564  1.4385  0.5998
 8106TIP3   OH245732   4.594   0.138  13.848  0.7690  0.6122 -0.1654
 8106TIP3    H145733   4.514   0.098  13.882  0.3876  3.1951  2.3909
 8106TIP3    H245734   4.653   0.065  13.833 -1.6495 -1.2710 -0.9914
 8107TIP3   OH245735   1.001   5.240   9.902  0.2438 -0.6550  0.1737
 8107TIP3    H145736   1.087   5.265   9.869 -0.3175  0.8700 -0.2490
 8107TIP3    H245737   0.997   5.145   9.891  0.8449 -0.4519 -2.3615
 8108TIP3   OH245738   4.625   3.788  15.331  0.5635  0.1517 -0.1116
 8108TIP3    H145739   4.599   3.863  15.384  0.3190  0.3018 -0.4386
 8108TIP3    H245740   4.543   3.741  15.315  0.7644 -0.3683  0.3744
 8109TIP3   OH245741   1.939   3.379   2.895  0.1995 -0.3216 -0.4563
 8109TIP3    H145742   1.892   3.418   2.969  1.1229 -0.2483  0.1020
 8109TIP3    H245743   1.919   3.286   2.902 -0.5998 -0.1887 -0.7737
 8110TIP3   OH245744   5.439   2.577  12.043  0.4333 -0.0287  0.2303
 8110TIP3    H145745   5.516   2.600  11.991 -0.0869  1.7993  0.2178
 8110TIP3    H245746   5.405   2.498  12.002  2.2735 -0.8542  0.2109
 8111TIP3   OH245747   3.538   4.397   4.697  0.6437  0.0939 -0.3835
 8111TIP3    H145748   3.474   4.398   4.625  0.4290  1.6179 -0.1976
 8111TIP3    H245749   3.496   4.447   4.767  1.5332  0.0463  0.1975
 8112TIP3   OH245750   5.026   4.672  11.000 -0.8497 -0.0440  0.3845
 8112TIP3    H145751   5.051   4.745  10.943  0.4381 -0.3271  0.5621
 8112TIP3    H245752   5.078   4.598  10.969  1.1673  0.1837  2.8964
 8113TIP3   OH245753   1.805   0.618   4.203 -0.0420 -0.4293 -0.4862
 8113TIP3    H145754   1.808   0.528   4.236 -0.6890  0.1227  1.1714
 8113TIP3    H245755   1.837   0.612   4.113 -0.8320 -2.4405 -0.6833
 8114TIP3   OH245756   6.949   5.922  15.449 -0.4241  0.6440 -0.2146
 8114TIP3    H145757   6.939   5.860  15.377  1.7744  0.9005 -0.8223
 8114TIP3    H245758   6.885   5.991  15.431 -0.5293  0.2518 -1.4343
 8115TIP3   OH245759   2.698   1.962  11.062  0.3206  0.2565 -0.6290
 8115TIP3    H145760   2.671   2.045  11.023  1.0844  0.1238 -1.4546
 8115TIP3    H245761   2.622   1.935  11.114  0.1955  1.6498 -0.0330
 8116TIP3   OH245762   4.023   4.884  13.686 -0.2449  0.0494 -0.6721
 8116TIP3    H145763   4.042   4.817  13.621 -0.2022  0.9861 -1.6632
 8116TIP3    H245764   4.105   4.894  13.735 -0.1531 -0.3663 -0.7374
 8117TIP3   OH245765   6.724   4.253   3.200 -0.1703 -0.1588  0.4668
 8117TIP3    H145766   6.687   4.268   3.287  0.2916  1.3871  0.4216
 8117TIP3    H245767   6.790   4.185   3.215  0.6031  0.7827  1.5411
 8118TIP3   OH245768   4.817   2.754  10.775 -0.3114 -0.1148 -0.1814
 8118TIP3    H145769   4.903   2.734  10.812 -0.4148  1.2559  0.8661
 8118TIP3    H245770   4.757   2.749  10.849 -1.1823 -1.1884 -0.9309
 8119TIP3   OH245771   1.363   3.372   4.327 -0.4123  0.3990  0.3670
 8119TIP3    H145772   1.449   3.403   4.355 -0.0964 -0.1478  0.0215
 8119TIP3    H245773   1.358   3.396   4.235 -0.5035  0.1613  0.3094
 8120TIP3   OH245774   0.004   2.792  12.563  0.2704 -0.3579 -0.0163
 8120TIP3    H145775  -0.079   2.793  12.517 -0.4392 -0.3151  1.2138
 8120TIP3    H245776   0.024   2.700  12.576 -0.9451 -0.4155  1.9562
 8121TIP3   OH245777   6.454   4.038  12.374  0.1199 -0.9148 -0.0789
 8121TIP3    H145778   6.409   3.956  12.393  0.4033 -0.6790  1.7502
 8121TIP3    H245779   6.530   4.038  12.433 -0.1774  0.9087  0.3657
 8122TIP3   OH245780   2.853   2.586   0.047 -0.0332  0.2632  0.0543
 8122TIP3    H145781   2.913   2.614   0.116  0.3953 -2.1386  0.7573
 8122TIP3    H245782   2.800   2.517   0.088 -1.3527  0.3807 -1.3756
 8123TIP3   OH245783   3.289   3.271   3.234  0.1741  0.0290 -0.0674
 8123TIP3    H145784   3.347   3.335   3.276 -0.4979  0.5503  0.0959
 8123TIP3    H245785   3.313   3.187   3.274  0.3455  0.3415  0.5048
 8124TIP3   OH245786   6.906   0.107   3.814 -0.1144 -0.3107  0.4256
 8124TIP3    H145787   6.979   0.168   3.809 -0.2917 -0.0744  0.6518
 8124TIP3    H245788   6.828   0.162   3.803 -0.3230 -0.3418  1.5724
 8125TIP3   OH245789   1.868   2.311  12.110  1.0085  0.5361  0.0226
 8125TIP3    H145790   1.905   2.223  12.118 -0.5544 -0.2443 -0.8197
 8125TIP3    H245791   1.934   2.360  12.062  1.1110 -0.7419 -1.2223
 8126TIP3   OH245792   3.849   6.170  11.688 -0.2640 -0.4653  0.1905
 8126TIP3    H145793   3.840   6.110  11.762  0.6462 -0.6911  0.1331
 8126TIP3    H245794   3.869   6.255  11.728 -1.3727 -0.2282  0.2632
 8127TIP3   OH245795   5.764   3.326   3.366  0.3615  0.0296  0.2302
 8127TIP3    H145796   5.704   3.253   3.380  2.6448 -2.0254  0.0053
 8127TIP3    H245797   5.783   3.359   3.454 -2.1028  1.6738  0.2241
 8128TIP3   OH245798   5.058   4.806   4.282 -0.3283  0.5545 -0.4485
 8128TIP3    H145799   5.051   4.711   4.267 -1.4812  0.7201 -0.9936
 8128TIP3    H245800   5.143   4.816   4.325  0.2797 -0.6134 -1.3102
 8129TIP3   OH245801   2.198   3.895  13.213 -0.0697  0.1288 -0.1826
 8129TIP3    H145802   2.267   3.896  13.147 -0.3826 -0.4375 -0.5299
 8129TIP3    H245803   2.232   3.840  13.282  0.2353  0.6759  0.1118
 8130TIP3   OH245804   3.676   7.144   0.666 -0.4965  0.5029  0.0558
 8130TIP3    H145805   3.761   7.102   0.675  0.6681  2.7037  0.0103
 8130TIP3    H245806   3.655   7.174   0.754  0.2380  2.5315 -0.4067
 8131TIP3   OH245807   2.071   0.720   4.869 -0.0773 -0.2467  0.1208
 8131TIP3    H145808   2.081   0.660   4.943  1.2627  0.5678  0.6228
 8131TIP3    H245809   2.026   0.796   4.905  2.4787  1.1076  0.7186
 8132TIP3   OH245810   4.624   1.954   0.415  0.6178 -0.5006 -0.7872
 8132TIP3    H145811   4.551   1.928   0.359 -0.0244 -0.9318  0.2317
 8132TIP3    H245812   4.692   1.889   0.397 -0.3307 -1.8804  0.4136
 8133TIP3   OH245813   7.003   4.773   0.596  0.4689  0.0541 -0.0023
 8133TIP3    H145814   7.035   4.686   0.620  0.5225  0.4723  1.5015
 8133TIP3    H245815   7.069   4.833   0.629 -0.1972  0.7429  0.0938
 8134TIP3   OH245816   1.324   5.840   1.386 -0.0257 -0.4400  0.1363
 8134TIP3    H145817   1.404   5.847   1.334 -1.5711  0.7310 -2.2889
 8134TIP3    H245818   1.310   5.746   1.396 -0.2301 -0.8137 -2.7120
 8135TIP3   OH245819   1.897   3.702  11.097  0.0286 -0.2526  0.2822
 8135TIP3    H145820   1.873   3.612  11.120  2.7142 -1.0900  0.0820
 8135TIP3    H245821   1.871   3.753  11.173 -0.8427 -1.2865  0.7221
 8136TIP3   OH245822   5.282   1.703  11.046 -0.3703  0.2119 -0.0138
 8136TIP3    H145823   5.247   1.791  11.027  0.8585  0.7869  0.3245
 8136TIP3    H245824   5.361   1.697  10.993 -1.5642 -1.5592 -1.7425
 8137TIP3   OH245825   5.925   4.211  11.120 -0.0167  0.7822  0.4321
 8137TIP3    H145826   5.963   4.268  11.187  1.6531  1.1136 -0.7317
 8137TIP3    H245827   5.863   4.155  11.168  0.2177  1.8219  2.0212
 8138TIP3   OH245828   5.450   6.588  13.292  0.7316 -0.6134  0.3692
 8138TIP3    H145829   5.433   6.680  13.311  1.5312 -0.2027 -0.7810
 8138TIP3    H245830   5.410   6.541  13.365 -2.7108  0.4035 -0.6690
 8139TIP3   OH245831   2.227   6.458   4.599 -0.0922  0.4253  0.1433
 8139TIP3    H145832   2.170   6.413   4.661 -0.2705 -0.4511 -0.6362
 8139TIP3    H245833   2.247   6.393   4.532  1.4578  0.8433  0.1408
 8140TIP3   OH245834   4.236   1.338  10.250 -0.0658  0.1512 -0.6622
 8140TIP3    H145835   4.298   1.369  10.316  1.5750 -3.4069 -0.3130
 8140TIP3    H245836   4.215   1.249  10.276 -0.5899 -0.8724 -4.0844
 8141TIP3   OH245837   7.046   3.479  14.455  0.2784 -0.3216  0.2880
 8141TIP3    H145838   7.084   3.392  14.443 -0.8665 -0.6913 -0.9301
 8141TIP3    H245839   7.039   3.489  14.550  3.4525 -0.1455  0.6048
 8142TIP3   OH245840   0.919   4.618   5.164  0.6107  0.0183 -0.1821
 8142TIP3    H145841   0.828   4.627   5.191  0.1714 -0.7399 -1.3350
 8142TIP3    H245842   0.956   4.706   5.173  0.0340  0.1448  1.1755
 8143TIP3   OH245843   4.571   5.239  12.670  0.6144 -0.0976  0.1942
 8143TIP3    H145844   4.649   5.185  12.669 -1.3036 -3.1381  0.3703
 8143TIP3    H245845   4.550   5.251  12.763  1.0081  1.0319  0.1607
 8144TIP3   OH245846   6.312   7.061   3.294 -0.2299  0.0212  0.1968
 8144TIP3    H145847   6.288   7.119   3.367  0.3122  1.8433 -1.0048
 8144TIP3    H245848   6.397   7.024   3.320 -0.5839 -0.2622  0.9801
 8145TIP3   OH245849   0.638   2.540   0.579  0.1054 -0.6236  0.5653
 8145TIP3    H145850   0.594   2.484   0.642 -1.1929 -0.9718 -0.6035
 8145TIP3    H245851   0.593   2.523   0.496  1.1582  0.4895 -0.2687
 8146TIP3   OH245852   4.243   5.144  14.094  0.1253  0.0283  0.0551
 8146TIP3    H145853   4.173   5.091  14.131 -0.6858  1.6673  0.9955
 8146TIP3    H245854   4.308   5.151  14.163  1.3439 -1.5841 -0.8554
 8147TIP3   OH245855   3.335   2.896  14.271 -0.1284 -0.6060 -0.1857
 8147TIP3    H145856   3.252   2.938  14.249  0.1597  1.1753  1.8699
 8147TIP3    H245857   3.402   2.958  14.240  0.3444 -0.3555  1.2813
 8148TIP3   OH245858   1.737   4.664  14.944 -0.4970 -0.0392  0.4046
 8148TIP3    H145859   1.743   4.648  14.850 -2.2462 -2.1032  0.5566
 8148TIP3    H245860   1.726   4.577  14.982 -1.1831  0.8641  2.3827
 8149TIP3   OH245861   6.339   0.413   0.105  0.2630 -0.1757 -0.7417
 8149TIP3    H145862   6.344   0.507   0.089 -0.7046  0.2353  1.1321
 8149TIP3    H245863   6.255   0.387   0.068  0.1626 -0.1376 -0.5423
 8150TIP3   OH245864   3.530   4.300   1.303 -0.3777 -0.2644  0.0267
 8150TIP3    H145865   3.521   4.237   1.232 -3.1311 -1.2925  1.1235
 8150TIP3    H245866   3.462   4.366   1.285  1.6237  1.7933 -0.4328
 8151TIP3   OH245867   2.752   1.937  11.796  0.0571 -0.1406 -0.3774
 8151TIP3    H145868   2.773   1.944  11.703  0.9789  0.3876 -0.1402
 8151TIP3    H245869   2.727   1.846  11.808 -1.1882  0.0414 -1.3548
 8152TIP3   OH245870   6.469   4.560   0.253  0.2488 -0.2105  0.0945
 8152TIP3    H145871   6.559   4.590   0.260  0.4160 -0.0211 -2.2523
 8152TIP3    H245872   6.476   4.470   0.221 -0.3590  0.8258 -3.2616
 8153TIP3   OH245873   0.115   4.875  14.604 -0.5552  0.5389  0.3127
 8153TIP3    H145874   0.041   4.864  14.664  0.6794 -1.0306  1.6218
 8153TIP3    H245875   0.129   4.788  14.567  0.9872  0.6696  0.5335
 8154TIP3   OH245876   0.885   0.440  10.350  0.4604  0.0645 -0.1102
 8154TIP3    H145877   0.879   0.531  10.379  1.8185  0.1709 -0.0876
 8154TIP3    H245878   0.797   0.418  10.319  0.3888  1.7622 -1.2404
 8155TIP3   OH245879   3.591   3.747  14.962 -0.4507 -0.1397 -0.5246
 8155TIP3    H145880   3.623   3.833  14.989  1.3261  0.0217 -2.8830
 8155TIP3    H245881   3.670   3.698  14.939 -1.5976 -0.4477 -4.5804
 8156TIP3   OH245882   5.378   0.465  11.406 -0.2112 -0.1253 -0.0602
 8156TIP3    H145883   5.459   0.461  11.355 -0.0529  2.0358 -0.0745
 8156TIP3    H245884   5.310   0.484  11.341 -0.2508  1.0204  0.2892
 8157TIP3   OH245885   2.107   2.290   1.427 -0.0925  0.0557 -0.2553
 8157TIP3    H145886   2.098   2.201   1.459 -0.6494  0.4317  0.6671
 8157TIP3    H245887   2.026   2.333   1.453  0.7895  1.2370  0.6510
 8158TIP3   OH245888   4.442   2.568   3.919 -0.2639 -1.2105  0.3888
 8158TIP3    H145889   4.392   2.599   3.843 -0.0626 -0.6483  0.4843
 8158TIP3    H245890   4.472   2.481   3.893 -0.3404 -1.0948 -0.1085
 8159TIP3   OH245891   3.096   2.098   0.008  0.0854 -0.5305  0.1412
 8159TIP3    H145892   3.013   2.143   0.024 -0.4262 -1.3181 -0.2403
 8159TIP3    H245893   3.083   2.011   0.045  1.2808 -0.1913  1.4343
 8160TIP3   OH245894   6.523   6.639  12.282 -0.0367  0.1689  0.2596
 8160TIP3    H145895   6.455   6.704  12.300  1.2909  1.2193  1.7616
 8160TIP3    H245896   6.575   6.637  12.362  1.5767 -0.7537 -0.7772
 8161TIP3   OH245897   0.149   1.254  14.602  0.2943 -0.2480  0.1650
 8161TIP3    H145898   0.225   1.308  14.584 -0.4184  0.7058 -0.0668
 8161TIP3    H245899   0.076   1.302  14.563 -0.7622  0.0178  2.3046
 8162TIP3   OH245900   6.350   1.586   4.005 -0.3719  0.2866  0.2070
 8162TIP3    H145901   6.292   1.608   4.079  0.3324  1.4599  0.4314
 8162TIP3    H245902   6.337   1.658   3.943  1.6885  1.2092  0.7680
 8163TIP3   OH245903   3.188   6.866  11.829  0.2661  0.5488 -0.1939
 8163TIP3    H145904   3.196   6.917  11.909 -3.0341  0.6034  0.2524
 8163TIP3    H245905   3.143   6.924  11.768 -1.2309 -0.8804 -0.5304
 8164TIP3   OH245906   0.792   0.438   0.929 -0.0151  0.4730  0.1570
 8164TIP3    H145907   0.697   0.450   0.929 -0.0369  0.3092  0.1335
 8164TIP3    H245908   0.806   0.358   0.879 -0.0459 -0.8820  2.1838
 8165TIP3   OH245909   0.774   4.013   4.098 -0.2275  0.3768 -0.3516
 8165TIP3    H145910   0.853   4.067   4.093 -0.3399  0.6450  0.4522
 8165TIP3    H245911   0.704   4.076   4.120 -0.4825  0.0077 -0.0913
 8166TIP3   OH245912   1.918   1.566   0.371  0.4988 -0.1871  0.4784
 8166TIP3    H145913   1.936   1.540   0.462  1.1422 -2.1785 -0.1586
 8166TIP3    H245914   1.913   1.483   0.324 -0.2909  0.7922 -1.2405
 8167TIP3   OH245915   5.263   6.667  11.231 -0.2635  0.0572 -0.9060
 8167TIP3    H145916   5.220   6.606  11.171 -1.1447  0.6424 -0.8858
 8167TIP3    H245917   5.281   6.744  11.178  0.1842  0.0648 -0.7469
 8168TIP3   OH245918   6.714   1.283   4.411  0.4399  0.1112 -0.2108
 8168TIP3    H145919   6.673   1.199   4.428 -1.0007  1.0817  1.4532
 8168TIP3    H245920   6.727   1.285   4.316 -1.7746 -0.9689 -0.5904
 8169TIP3   OH245921   2.673   1.171  14.321 -0.1374 -0.1443 -0.0651
 8169TIP3    H145922   2.714   1.193  14.238  1.0684 -0.6120  0.3918
 8169TIP3    H245923   2.741   1.127  14.371 -0.5622  0.8991  1.5169
 8170TIP3   OH245924   1.289   2.637   5.321 -0.6238  0.6481 -0.3960
 8170TIP3    H145925   1.237   2.561   5.296 -2.6896  1.5838  0.7988
 8170TIP3    H245926   1.368   2.631   5.266 -1.4813 -1.4021 -1.5298
 8171TIP3   OH245927   5.415   1.013   3.802  0.2811  0.1341  0.3042
 8171TIP3    H145928   5.380   0.962   3.729  1.6439  0.6407 -0.7648
 8171TIP3    H245929   5.493   1.056   3.766  1.3783 -0.0876  2.2339
 8172TIP3   OH245930   0.723   5.657   2.499  0.1497 -0.1968 -0.2038
 8172TIP3    H145931   0.772   5.721   2.551  1.2624 -1.1016 -0.0954
 8172TIP3    H245932   0.713   5.699   2.413 -1.6989  1.3008  0.6652
 8173TIP3   OH245933   5.778   6.182  12.092 -0.4270  0.7593  0.0394
 8173TIP3    H145934   5.841   6.247  12.124 -0.6680  0.6455  0.7719
 8173TIP3    H245935   5.773   6.117  12.162 -1.2121  0.6698 -0.0860
 8174TIP3   OH245936   1.587   3.351  14.929 -0.3020  0.1562 -0.1452
 8174TIP3    H145937   1.638   3.314  14.857  2.5547  2.8765  0.2697
 8174TIP3    H245938   1.570   3.441  14.903 -2.5807  0.1308  1.0057
 8175TIP3   OH245939   5.725   0.042   3.632  0.3197 -0.0574 -0.0702
 8175TIP3    H145940   5.744   0.122   3.681  1.0095 -0.3926  0.2232
 8175TIP3    H245941   5.713  -0.025   3.699  1.0404 -0.4707 -0.3443
 8176TIP3   OH245942   3.484   6.806   0.815 -0.1489 -0.2857 -0.2866
 8176TIP3    H145943   3.420   6.872   0.787  0.9644  1.1447  0.3806
 8176TIP3    H245944   3.526   6.778   0.734  1.4667  2.1361 -0.3923
 8177TIP3   OH245945   6.865   5.445   3.483 -0.0055 -0.3194 -0.7883
 8177TIP3    H145946   6.949   5.479   3.515 -0.9463  0.6916  0.7876
 8177TIP3    H245947   6.870   5.351   3.499  1.4629 -0.5566 -2.3417
 8178TIP3   OH245948   1.307   0.595   3.607  0.3223 -0.0733 -0.2507
 8178TIP3    H145949   1.261   0.650   3.671  0.2764 -0.0928 -0.2666
 8178TIP3    H245950   1.352   0.529   3.661  1.4864  0.7832 -0.1346
 8179TIP3   OH245951   6.761   0.458   2.760  0.2901 -0.0583 -0.0096
 8179TIP3    H145952   6.780   0.550   2.783 -2.2299  0.7071 -0.6547
 8179TIP3    H245953   6.740   0.417   2.844 -1.0902  0.6753  0.0444
 8180TIP3   OH245954   2.280   2.291  13.599  0.1908  0.3419  0.7246
 8180TIP3    H145955   2.265   2.297  13.693  0.1454 -1.4063  0.8654
 8180TIP3    H245956   2.192   2.295  13.560  0.3214  3.2508  0.5425
 8181TIP3   OH245957   2.668   6.890   3.002 -0.0640  0.2185  0.3698
 8181TIP3    H145958   2.738   6.898   2.938 -1.3431 -0.9700 -1.2599
 8181TIP3    H245959   2.636   6.979   3.014  1.7768  0.8052  1.2708
 8182TIP3   OH245960   5.239   5.892  13.871 -0.4636  0.2116  0.2046
 8182TIP3    H145961   5.314   5.865  13.820 -0.4284  1.7440 -0.6086
 8182TIP3    H245962   5.268   5.970  13.919 -1.1048 -0.0148  1.0051
 8183TIP3   OH245963   5.495   5.493  14.346  0.0678 -0.6295 -0.1155
 8183TIP3    H145964   5.542   5.519  14.266  1.9698 -0.5827  0.9542
 8183TIP3    H245965   5.486   5.574  14.396  0.2561 -0.9133  0.3865
 8184TIP3   OH245966   1.260   6.460  13.137 -0.1668  0.1654  0.2151
 8184TIP3    H145967   1.180   6.513  13.137  1.1476  2.2670  0.1661
 8184TIP3    H245968   1.274   6.438  13.229 -0.5131  0.2334  0.2870
 8185TIP3   OH245969   6.829   6.081   1.348 -0.1064 -0.1120  0.9795
 8185TIP3    H145970   6.810   6.175   1.348  0.6491  0.0697 -0.3782
 8185TIP3    H245971   6.750   6.041   1.311 -0.8141 -0.1259  2.4536
 8186TIP3   OH245972   4.688   0.492   1.251  0.5960 -0.0145 -0.2924
 8186TIP3    H145973   4.599   0.487   1.216  0.6922  0.5768 -0.6389
 8186TIP3    H245974   4.729   0.411   1.223  0.1352 -0.3381 -0.0409
 8187TIP3   OH245975   3.105   5.040  15.409  0.0707  0.5070 -0.5031
 8187TIP3    H145976   3.011   5.051  15.393  0.0561  0.7549 -0.2513
 8187TIP3    H245977   3.122   5.092  15.487  0.2804 -0.1277 -0.1255
 8188TIP3   OH245978   0.745   5.277   0.301 -0.1666 -0.3803  0.4321
 8188TIP3    H145979   0.710   5.291   0.389 -1.3880 -0.9862  0.0661
 8188TIP3    H245980   0.722   5.187   0.280 -1.4891  0.2802 -1.1797
 8189TIP3   OH245981   6.063   7.089  11.273 -0.0576  0.1522  0.4812
 8189TIP3    H145982   6.150   7.127  11.283 -0.5056  1.2952  0.2807
 8189TIP3    H245983   6.078   6.995  11.261  1.1631  0.3858  0.0791
 8190TIP3   OH245984   2.095   6.179   4.704 -0.0514  0.0109 -0.8071
 8190TIP3    H145985   2.174   6.169   4.757 -0.9498 -0.1800  0.5388
 8190TIP3    H245986   2.023   6.182   4.767 -1.2618 -1.1866 -2.0560
 8191TIP3   OH245987   3.996   3.318   1.509 -0.5883 -0.5576  0.2380
 8191TIP3    H145988   3.927   3.252   1.497 -1.7055  0.6385 -0.0825
 8191TIP3    H245989   3.998   3.334   1.603  0.1334 -1.4737  0.4031
 8192TIP3   OH245990   1.244   5.516  11.008 -0.2661 -0.4867  0.0686
 8192TIP3    H145991   1.217   5.532  11.098 -0.1923 -1.3289  0.2475
 8192TIP3    H245992   1.164   5.528  10.957 -0.0648  1.1763  0.0787
 8193TIP3   OH245993   2.158   0.251   3.244  0.0859 -0.4322  0.0678
 8193TIP3    H145994   2.136   0.159   3.238 -0.1507 -0.3227 -1.0605
 8193TIP3    H245995   2.140   0.286   3.156  1.5366  0.3749  0.0453
 8194TIP3   OH245996   3.508   0.177   3.954 -0.0172 -0.3401  0.3015
 8194TIP3    H145997   3.526   0.127   3.874  1.6352 -0.8197  0.9374
 8194TIP3    H245998   3.571   0.248   3.953  1.7164 -1.7301  2.3130
 8195TIP3   OH245999   2.080   4.665   0.904 -0.2094  0.5465 -0.2669
 8195TIP3    H146000   2.060   4.682   0.812  0.3767  0.4328 -0.4183
 8195TIP3    H246001   1.996   4.639   0.942 -0.6745  1.6165 -0.5216
 8196TIP3   OH246002   5.950   5.284   2.180 -0.9026 -0.3880  0.4535
 8196TIP3    H146003   5.869   5.318   2.144 -0.0556  0.4594 -0.7016
 8196TIP3    H246004   6.000   5.253   2.105  0.3215  0.1498  1.0042
 8197TIP3   OH246005   6.833   0.007  13.104 -0.0150  0.3216  0.2892
 8197TIP3    H146006   6.800  -0.044  13.031  0.4449 -0.7337  0.8024
 8197TIP3    H246007   6.757   0.021  13.161 -0.2302  0.5709 -0.0574
 8198TIP3   OH246008   6.452   4.997   2.087  0.1921 -0.2531  0.4008
 8198TIP3    H146009   6.533   4.958   2.055  0.3352  2.7242 -3.5652
 8198TIP3    H246010   6.480   5.070   2.142  0.1363 -0.3974  0.6228
 8199TIP3   OH246011   0.415   3.245   3.137 -0.0017 -0.6540  0.2434
 8199TIP3    H146012   0.387   3.314   3.197  0.5151 -0.2005 -0.0227
 8199TIP3    H246013   0.381   3.273   3.051 -0.5997 -1.2147  0.2961
 8200TIP3   OH246014   5.550   4.906  12.681  0.5099  0.1604  0.9321
 8200TIP3    H146015   5.527   4.814  12.683 -1.2671  0.5780  0.8674
 8200TIP3    H246016   5.503   4.945  12.755  1.0801  1.0673  0.8437
 8201TIP3   OH246017   1.096   3.654  10.345 -0.2884 -0.2538  0.5147
 8201TIP3    H146018   1.019   3.684  10.297 -0.0940 -0.6296 -0.0491
 8201TIP3    H246019   1.150   3.610  10.279 -0.3497 -1.4156  1.2110
 8202TIP3   OH246020   5.377   1.713   5.897 -0.1235  0.2516 -0.1507
 8202TIP3    H146021   5.290   1.749   5.884 -0.4112 -0.2816  0.2599
 8202TIP3    H246022   5.421   1.723   5.813 -1.0014 -0.6058 -0.7247
 8203TIP3   OH246023   0.332   6.980  12.716  0.2216  0.7193  0.4404
 8203TIP3    H146024   0.277   6.911  12.752 -1.6450  1.9702  0.0917
 8203TIP3    H246025   0.336   6.960  12.622  1.8485 -0.3231  0.6829
 8204TIP3   OH246026   6.200   6.160  11.202  0.2663 -0.3323 -0.6247
 8204TIP3    H146027   6.263   6.124  11.264 -0.8917  1.0678  1.4876
 8204TIP3    H246028   6.173   6.085  11.148 -0.3018 -2.1469  2.0235
 8205TIP3   OH246029   1.202   1.728  10.787  0.2334 -0.1397 -0.0320
 8205TIP3    H146030   1.169   1.816  10.802 -0.0492 -0.3891  0.8694
 8205TIP3    H246031   1.227   1.727  10.694  1.0753  1.1564  0.1508
 8206TIP3   OH246032   6.869   4.940   1.227 -0.3000 -0.0837  0.3808
 8206TIP3    H146033   6.948   4.969   1.273 -0.3326  0.3523  0.1783
 8206TIP3    H246034   6.890   4.852   1.196  0.0797 -0.0009  0.3955
 8207TIP3   OH246035   5.467   0.813   2.228  0.3437 -0.4912  0.0331
 8207TIP3    H146036   5.508   0.727   2.233 -1.4017 -1.7729 -3.9021
 8207TIP3    H246037   5.444   0.824   2.136  0.5330  4.3105  0.2775
 8208TIP3   OH246038   0.221   5.946  14.437  0.2165 -0.1475 -0.0591
 8208TIP3    H146039   0.192   5.860  14.470 -1.2339 -0.0053 -0.9224
 8208TIP3    H246040   0.173   5.959  14.356  0.1700  1.6447  0.2175
 8209TIP3   OH246041   4.450   2.127  14.563 -0.1380  0.5424 -0.3857
 8209TIP3    H146042   4.393   2.053  14.586  0.3358  0.5415  0.8684
 8209TIP3    H246043   4.515   2.090  14.503 -1.5738  0.5973 -2.0553
 8210TIP3   OH246044   6.251   0.854  14.808 -0.6229  0.0834  0.3235
 8210TIP3    H146045   6.188   0.835  14.877  0.1856  0.5929  1.2270
 8210TIP3    H246046   6.286   0.768  14.784 -0.8665 -0.0934  0.5898
 8211TIP3   OH246047   1.278   2.935  12.296  0.2811 -0.4210  0.2031
 8211TIP3    H146048   1.364   2.973  12.281  0.4278 -0.5962  0.5905
 8211TIP3    H246049   1.238   2.992  12.362 -0.0352 -0.1443 -0.2147
 8212TIP3   OH246050   0.185   0.580   3.494  0.2087  0.5507 -0.2440
 8212TIP3    H146051   0.140   0.649   3.446 -0.0876 -1.2886 -2.8032
 8212TIP3    H246052   0.264   0.563   3.443  1.1286  0.1032  1.2658
 8213TIP3   OH246053   3.559   0.477  14.443  0.4615 -0.3408  0.6088
 8213TIP3    H146054   3.495   0.479  14.371  2.4682 -0.5110 -1.2856
 8213TIP3    H246055   3.509   0.446  14.518 -1.6087 -0.7745 -0.8411
 8214TIP3   OH246056   3.426   7.133   9.989  0.0127 -0.2667  0.4508
 8214TIP3    H146057   3.495   7.197  10.007  0.0887 -0.1652 -0.1692
 8214TIP3    H246058   3.382   7.166   9.911  0.3318 -1.1815 -0.1327
 8215TIP3   OH246059   3.691   6.373  14.088 -0.3229  0.0479  0.1413
 8215TIP3    H146060   3.632   6.379  14.013 -0.8689  2.0646  0.6671
 8215TIP3    H246061   3.661   6.442  14.148  1.3747 -0.1485  1.2919
 8216TIP3   OH246062   7.074   2.015  12.352 -0.1827  0.3261  0.8660
 8216TIP3    H146063   7.167   2.033  12.338 -0.4123  1.3086  0.5154
 8216TIP3    H246064   7.029   2.083  12.302 -1.1314 -1.5171 -0.9252
 8217TIP3   OH246065   4.710   3.789  10.638 -0.2253 -0.6129 -0.2245
 8217TIP3    H146066   4.640   3.819  10.696 -0.0214 -1.5685  0.5316
 8217TIP3    H246067   4.683   3.702  10.610 -0.2365 -0.2409 -1.4530
 8218TIP3   OH246068   7.149   6.075  12.576  0.1487 -0.1302 -0.3472
 8218TIP3    H146069   7.104   6.045  12.655  0.8426 -2.0433 -0.6157
 8218TIP3    H246070   7.202   6.149  12.604 -1.2307  0.5848  0.4938
 8219TIP3   OH246071   6.665   3.584   1.098  0.0533 -0.0730 -0.1847
 8219TIP3    H146072   6.603   3.516   1.127  0.7651 -0.2628  0.9582
 8219TIP3    H246073   6.673   3.643   1.173  2.6435 -1.0693  0.4258
 8220TIP3   OH246074   5.474   4.760  10.412  0.3331  0.4171 -0.0472
 8220TIP3    H146075   5.473   4.854  10.432  0.7786  0.7429 -1.4200
 8220TIP3    H246076   5.565   4.735  10.421 -0.1821 -0.6900  3.5188
 8221TIP3   OH246077   4.239   5.662  14.891 -0.4301 -0.4378  0.3724
 8221TIP3    H146078   4.227   5.574  14.855 -0.3139 -0.6428  0.8223
 8221TIP3    H246079   4.274   5.647  14.979  2.5692  0.1253 -0.6295
 8222TIP3   OH246080   0.291   4.338   1.545 -0.4702 -0.0375  0.7561
 8222TIP3    H146081   0.271   4.414   1.492 -0.6970 -0.3902  0.3296
 8222TIP3    H246082   0.370   4.362   1.594  0.3619 -0.0883 -0.5302
 8223TIP3   OH246083   5.717   5.958  11.796  0.0377 -0.3219  0.2717
 8223TIP3    H146084   5.643   5.996  11.842  1.2226  1.2033  0.9920
 8223TIP3    H246085   5.793   5.981  11.849  0.9541 -2.8328  0.1807
 8224TIP3   OH246086   1.526   7.159  10.000 -0.6999 -0.2812 -0.2904
 8224TIP3    H146087   1.469   7.186  10.072 -1.0717  0.8396 -0.9863
 8224TIP3    H246088   1.614   7.184  10.028 -0.6414 -1.1642  0.3780
 8225TIP3   OH246089   6.524   2.861  15.317 -0.1887 -0.2235  0.3677
 8225TIP3    H146090   6.450   2.831  15.264  1.5161  1.1643 -3.1676
 8225TIP3    H246091   6.581   2.785  15.323 -0.1244 -0.2411 -0.3753
 8226TIP3   OH246092   2.805   4.150  11.110 -0.0196  0.4881  0.2888
 8226TIP3    H146093   2.732   4.161  11.172  0.1649  0.2598  0.5532
 8226TIP3    H246094   2.818   4.236  11.073 -0.1796  0.6148  0.5223
 8227TIP3   OH246095   3.958   3.029  14.590 -0.1580  0.1163 -0.4474
 8227TIP3    H146096   3.933   3.064  14.675 -0.3133  0.0945 -0.4837
 8227TIP3    H246097   3.901   2.953  14.578 -1.7942  1.4464 -1.5975
 8228TIP3   OH246098   0.763   2.574   1.083  0.6683 -0.4514  0.2563
 8228TIP3    H146099   0.731   2.545   0.998  1.0163 -0.2529  0.0539
 8228TIP3    H246100   0.688   2.564   1.142  0.4406 -0.6340 -0.0619
 8229TIP3   OH246101   0.582   6.710   0.950  0.2723 -0.1594  0.1128
 8229TIP3    H146102   0.516   6.761   0.904 -1.7668 -2.0186  0.8031
 8229TIP3    H246103   0.573   6.622   0.916  0.8864 -0.9131  1.7698
 8230TIP3   OH246104   1.452   4.076   3.108  0.2642  0.0755  0.1227
 8230TIP3    H146105   1.383   4.134   3.142  1.6698  2.0937 -0.2434
 8230TIP3    H246106   1.414   4.035   3.031 -1.4364 -1.0698  1.4762
 8231TIP3   OH246107   2.206   3.458   3.208 -0.0523 -0.3938 -0.0546
 8231TIP3    H146108   2.114   3.464   3.232  0.2577 -0.8503  1.3754
 8231TIP3    H246109   2.210   3.386   3.145 -0.5639 -0.8848  0.4684
 8232TIP3   OH246110   4.991   3.345  11.405  0.0571  0.1954  0.2880
 8232TIP3    H146111   4.948   3.301  11.332 -1.3779  1.1511  0.5099
 8232TIP3    H246112   5.063   3.394  11.364 -0.2850  0.1511 -0.3787
 8233TIP3   OH246113   4.732   0.400  10.748  0.1168  0.4379  0.4383
 8233TIP3    H146114   4.734   0.359  10.661 -1.3982 -0.5654  0.8430
 8233TIP3    H246115   4.772   0.335  10.806 -2.4299 -0.6630  1.1097
 8234TIP3   OH246116   0.461   6.292   3.524 -0.3003  0.4017 -0.2242
 8234TIP3    H146117   0.491   6.360   3.584 -0.7767  0.5334 -0.1344
 8234TIP3    H246118   0.537   6.235   3.513  0.1973  1.1106 -0.5341
 8235TIP3   OH246119   0.945   4.847  11.567  0.3565 -0.0667 -0.1665
 8235TIP3    H146120   0.877   4.812  11.624  0.9719  2.0159  2.0356
 8235TIP3    H246121   0.950   4.786  11.494 -1.5354 -2.0665  1.2701
 8236TIP3   OH246122   3.323   3.920   0.674  0.2028 -0.0614 -0.2760
 8236TIP3    H146123   3.367   3.944   0.593  2.0385 -3.5115 -0.5001
 8236TIP3    H246124   3.394   3.895   0.733 -1.2536 -1.1409  1.0895
 8237TIP3   OH246125   5.382   1.187   2.447 -0.0062 -0.1803 -0.2776
 8237TIP3    H146126   5.420   1.179   2.535 -2.1139 -1.9836  0.5709
 8237TIP3    H246127   5.399   1.103   2.406 -0.3943  0.0929 -1.0174
 8238TIP3   OH246128   3.364   6.423  11.291 -0.1139 -0.1167  0.0181
 8238TIP3    H146129   3.328   6.395  11.207 -0.1790 -3.9521  1.1129
 8238TIP3    H246130   3.436   6.362  11.307  2.1103  2.6249  1.3154
 8239TIP3   OH246131   3.968   4.053  13.930  0.5331  0.8488 -0.7009
 8239TIP3    H146132   3.890   4.005  13.959  0.1060  2.7220  1.5808
 8239TIP3    H246133   3.958   4.062  13.835 -1.3367 -0.1160 -0.6287
 8240TIP3   OH246134   6.113   1.014   1.461 -0.3370 -0.2434 -0.7696
 8240TIP3    H146135   6.108   0.925   1.426 -0.1336 -0.3337 -0.5690
 8240TIP3    H246136   6.196   1.048   1.428 -0.4394 -0.1084 -0.8908
 8241TIP3   OH246137   3.438   4.037   3.825 -0.8022 -0.2091 -0.1012
 8241TIP3    H146138   3.376   3.987   3.772 -0.1437 -0.9190 -0.2147
 8241TIP3    H246139   3.503   3.973   3.853  0.2119  0.6318 -0.4814
 8242TIP3   OH246140   1.314   4.999   4.974 -0.8019 -0.3709 -0.3621
 8242TIP3    H146141   1.366   4.937   5.024 -1.3086 -0.1612  0.4519
 8242TIP3    H246142   1.346   5.085   5.003  0.9004 -0.2060 -2.5349
 8243TIP3   OH246143   5.624   5.217   0.653  0.1869  0.0555 -0.0257
 8243TIP3    H146144   5.553   5.252   0.706  0.1313 -1.1347  0.7045
 8243TIP3    H246145   5.701   5.221   0.710  0.5433  0.5417 -0.5239
 8244TIP3   OH246146   3.587   3.189  11.923 -0.1949  0.3414 -0.8289
 8244TIP3    H146147   3.622   3.198  12.012  1.6018 -0.2475 -1.4403
 8244TIP3    H246148   3.630   3.111  11.888 -0.6399  0.7408 -2.3384
 8245TIP3   OH246149   6.148   4.050   2.236  0.4364 -0.1375 -0.4287
 8245TIP3    H146150   6.070   4.087   2.278  1.1890  0.7771  0.2138
 8245TIP3    H246151   6.158   3.964   2.277 -0.5133 -0.4846 -0.8915
 8246TIP3   OH246152   1.044   5.554  11.494  0.0592 -0.0761  0.0593
 8246TIP3    H146153   0.993   5.482  11.530 -0.2182 -0.3175 -0.8004
 8246TIP3    H246154   1.006   5.632  11.533 -1.7389 -0.1515 -1.4195
 8247TIP3   OH246155   4.806   1.500   2.098 -0.1566 -0.3898  0.0936
 8247TIP3    H146156   4.870   1.565   2.127 -0.7795 -0.0942  0.8624
 8247TIP3    H246157   4.850   1.452   2.028 -0.2073  1.8492 -1.5784
 8248TIP3   OH246158   4.643   1.134  15.455 -0.3852 -0.5547  0.6797
 8248TIP3    H146159   4.551   1.114  15.477 -0.2574 -0.1106  1.7006
 8248TIP3    H246160   4.642   1.225  15.427 -0.6465 -1.2925 -1.9635
 8249TIP3   OH246161   4.794   0.695   2.381  0.1562  0.0076 -0.4211
 8249TIP3    H146162   4.709   0.676   2.340  0.0217  2.5817 -1.5270
 8249TIP3    H246163   4.858   0.684   2.310  0.5036 -0.1116 -0.0895
 8250TIP3   OH246164   4.578   4.535   3.571 -0.0610 -0.3736  0.5913
 8250TIP3    H146165   4.503   4.512   3.517  0.4096 -0.2364 -0.1355
 8250TIP3    H246166   4.654   4.504   3.521  0.5615  1.9236 -0.0412
 8251TIP3   OH246167   3.878   3.664   4.311 -0.2710 -0.1345 -0.0420
 8251TIP3    H146168   3.883   3.662   4.407 -1.0632  1.0072  0.0513
 8251TIP3    H246169   3.818   3.593   4.288 -0.0575 -0.4295  0.2997
 8252TIP3   OH246170   5.159   0.596   2.257 -0.0149 -0.8777  0.7301
 8252TIP3    H146171   5.099   0.641   2.198 -0.5325 -0.2355  1.7327
 8252TIP3    H246172   5.246   0.629   2.233 -0.2227 -0.6012  0.3567
 8253TIP3   OH246173   5.981   5.129   9.563 -0.2351 -0.1366 -0.1287
 8253TIP3    H146174   6.062   5.118   9.612  0.3662  0.3542 -0.9916
 8253TIP3    H246175   5.956   5.220   9.578  0.2447  0.1739 -1.1545
 8254TIP3   OH246176   5.720   0.200   3.037 -0.1027 -0.1062 -0.4449
 8254TIP3    H146177   5.675   0.242   2.963 -1.0981  0.8951  0.6862
 8254TIP3    H246178   5.715   0.106   3.017 -1.1640  0.0866 -1.2002
 8255TIP3   OH246179   4.676   4.059  11.909 -0.3288 -0.4382 -0.5953
 8255TIP3    H146180   4.699   4.095  11.995 -3.2031  1.0324 -0.3059
 8255TIP3    H246181   4.614   3.989  11.929  1.8258 -2.7309 -1.4006
 8256TIP3   OH246182   2.162   6.383  11.827  0.2673 -0.1495 -0.3502
 8256TIP3    H146183   2.231   6.447  11.809 -0.4215  0.3384 -1.4491
 8256TIP3    H246184   2.199   6.325  11.892  0.7194  1.7266  1.1642
 8257TIP3   OH246185   7.161   6.221  12.932  0.2582 -0.1390 -0.3286
 8257TIP3    H146186   7.156   6.207  13.026  0.3609  2.4503  0.1293
 8257TIP3    H246187   7.236   6.169  12.904  0.9195 -0.0748  1.2208
 8258TIP3   OH246188   7.097   1.845  14.941  0.2007  0.3677 -0.1231
 8258TIP3    H146189   7.038   1.828  14.868  1.3299 -2.3636 -0.5357
 8258TIP3    H246190   7.131   1.933  14.925 -0.8912  0.5038 -1.9276
 8259TIP3   OH246191   6.481   3.454   5.096  0.0158  0.3297  0.8422
 8259TIP3    H146192   6.523   3.413   5.172  1.2093 -1.4253 -0.6716
 8259TIP3    H246193   6.433   3.528   5.133  0.6782 -0.3378  3.2757
 8260TIP3   OH246194   0.087   5.543   1.040  0.2735 -0.2390  0.4783
 8260TIP3    H146195   0.179   5.569   1.038  0.4354 -0.8171 -0.6634
 8260TIP3    H246196   0.081   5.472   0.976 -0.8761 -0.5305  0.8821
 8261TIP3   OH246197   6.990   1.019   9.643 -0.3828 -0.2151  0.0394
 8261TIP3    H146198   7.007   0.980   9.557 -1.2833  0.4412 -0.4624
 8261TIP3    H246199   6.983   1.113   9.625 -1.3881 -0.1515  0.6923
 8262TIP3   OH246200   0.788   3.851  14.286  0.4638  0.7255  0.2343
 8262TIP3    H146201   0.779   3.794  14.210 -0.4998 -1.6999  2.0171
 8262TIP3    H246202   0.852   3.807  14.342 -0.6374  1.1263  1.8814
 8263TIP3   OH246203   3.629   4.750  14.119 -0.0311  0.0961 -0.4313
 8263TIP3    H146204   3.657   4.659  14.127  1.6090  0.4884 -1.3061
 8263TIP3    H246205   3.688   4.799  14.176 -0.5014  0.6837 -0.4400
 8264TIP3   OH246206   4.460   1.510  13.298 -0.3174  1.2048  0.6858
 8264TIP3    H146207   4.496   1.592  13.263  1.8332 -0.1572 -0.5630
 8264TIP3    H246208   4.529   1.476  13.355 -0.5543 -0.3823  0.0822
 8265TIP3   OH246209   5.546   0.129  14.300 -0.1898 -0.1943  0.1866
 8265TIP3    H146210   5.456   0.107  14.276 -0.8406  1.5781  0.8127
 8265TIP3    H246211   5.547   0.126  14.396  0.4086 -0.1776  0.1895
 8266TIP3   OH246212   3.555   5.802  12.225 -0.1069  0.0428 -0.1815
 8266TIP3    H146213   3.603   5.748  12.288  1.8077 -0.5121 -1.9695
 8266TIP3    H246214   3.482   5.747  12.197  0.5953 -0.8026 -0.4085
 8267TIP3   OH246215   4.170   0.864  11.372 -0.0652  0.2042 -0.0474
 8267TIP3    H146216   4.104   0.892  11.308  1.0127 -0.7116 -1.6352
 8267TIP3    H246217   4.157   0.922  11.447 -2.0049  0.7011 -0.7043
 8268TIP3   OH246218   4.156   1.201  12.484 -0.0091  0.1766  0.7325
 8268TIP3    H146219   4.087   1.147  12.445  0.7182 -0.0499 -0.3157
 8268TIP3    H246220   4.157   1.177  12.576 -1.7532  0.6746  0.9043
 8269TIP3   OH246221   3.281   1.896  12.763 -0.3887  0.0411  0.4780
 8269TIP3    H146222   3.263   1.843  12.685  2.5664 -0.1156 -0.2330
 8269TIP3    H246223   3.204   1.953  12.772 -0.5384  0.6116 -3.0372
 8270TIP3   OH246224   1.542   4.638   4.132  0.7576 -0.7281  0.0261
 8270TIP3    H146225   1.493   4.595   4.062 -1.3366  1.9315 -0.3042
 8270TIP3    H246226   1.614   4.682   4.087 -0.3848  0.6931 -0.4816
 8271TIP3   OH246227   0.056   2.986  12.085  0.0413 -0.5664  0.0496
 8271TIP3    H146228   0.106   3.050  12.135 -1.2690  0.6980 -0.1887
 8271TIP3    H246229   0.068   3.012  11.994  0.7617 -1.6305 -0.1780
 8272TIP3   OH246230   5.474   6.605   3.428 -0.0576  0.2722  0.5159
 8272TIP3    H146231   5.529   6.528   3.438  1.7474  1.4469  0.1914
 8272TIP3    H246232   5.526   6.676   3.465 -0.1739  1.9111 -2.1711
 8273TIP3   OH246233   3.556   1.978  11.799  0.2861  0.1620  0.3559
 8273TIP3    H146234   3.576   2.064  11.835  0.6491  0.6890 -1.0126
 8273TIP3    H246235   3.466   1.986  11.766  0.1931 -0.0934  0.5465
 8274TIP3   OH246236   4.577   2.178  12.266 -0.3467  0.6896  0.2442
 8274TIP3    H146237   4.615   2.194  12.180 -0.7337  1.8850  0.2689
 8274TIP3    H246238   4.549   2.087  12.264  1.5509  0.0880 -0.1352
 8275TIP3   OH246239   1.992   2.856  11.336 -0.3924  0.0209  0.4588
 8275TIP3    H146240   2.024   2.943  11.361  1.2754 -0.6151  0.6530
 8275TIP3    H246241   1.962   2.817  11.417 -1.1302  0.3841  0.3740
 8276TIP3   OH246242   1.921   2.452  12.380  0.4542 -0.5440  0.4538
 8276TIP3    H146243   1.970   2.372  12.394 -1.2365 -1.4817  1.3549
 8276TIP3    H246244   1.839   2.424  12.340 -0.7683  0.5096  2.0327
 8277TIP3   OH246245   2.716   4.497  10.451  0.6170 -0.6131 -0.6781
 8277TIP3    H146246   2.634   4.494  10.401  1.2275  0.9591 -1.8622
 8277TIP3    H246247   2.772   4.557  10.401  1.7423 -0.0033  1.2173
 8278TIP3   OH246248   4.341   3.827  15.070 -0.3416 -0.0923  0.3663
 8278TIP3    H146249   4.404   3.823  14.997  1.0449 -1.9448  1.5379
 8278TIP3    H246250   4.321   3.920  15.080 -2.0651  0.1477 -3.5004
 8279TIP3   OH246251   0.599   2.344   1.450  0.2199  0.6949 -0.1389
 8279TIP3    H146252   0.663   2.409   1.478  0.0073  0.2385  1.4785
 8279TIP3    H246253   0.564   2.379   1.368  0.3258  2.4681  0.5401
 8280TIP3   OH246254   0.852   1.208  12.443 -0.6290  0.2358 -0.9722
 8280TIP3    H146255   0.859   1.219  12.349 -1.9948 -0.8404 -1.2299
 8280TIP3    H246256   0.885   1.290  12.480  1.9866 -0.1300 -2.2703
 8281TIP3   OH246257   0.247   1.241   2.220  0.0302 -0.4694 -0.2355
 8281TIP3    H146258   0.188   1.260   2.293 -0.0570  0.8451 -0.6228
 8281TIP3    H246259   0.334   1.239   2.260 -0.0943 -0.5600  0.0362
 8282TIP3   OH246260   2.168   5.034  10.654  0.0571 -0.3276 -0.0709
 8282TIP3    H146261   2.198   5.069  10.570 -1.0778  0.3882 -0.2096
 8282TIP3    H246262   2.073   5.044  10.651  0.0053 -0.2252  1.3269
 8283TIP3   OH246263   1.982   6.907  13.238  0.6442 -0.5844  0.2031
 8283TIP3    H146264   2.009   6.931  13.149  0.2847  2.2728  0.7770
 8283TIP3    H246265   2.064   6.904  13.287  0.6266  0.5496  0.3252
 8284TIP3   OH246266   6.723   4.597   4.022 -0.0401 -0.7562  0.4568
 8284TIP3    H146267   6.764   4.657   3.958 -1.2459  0.7984  1.0593
 8284TIP3    H246268   6.631   4.623   4.022 -0.4937 -2.2739  1.1873
 8285TIP3   OH246269   0.167   5.616  14.719  0.4440  0.1584  0.5400
 8285TIP3    H146270   0.081   5.631  14.757 -0.1271 -1.5079  0.0128
 8285TIP3    H246271   0.162   5.651  14.630  0.5443  0.6784  0.7375
 8286TIP3   OH246272   0.576   1.256   4.637 -0.0645 -0.0123 -0.1630
 8286TIP3    H146273   0.616   1.239   4.722 -0.4725  0.6891  0.1855
 8286TIP3    H246274   0.642   1.304   4.588 -0.0350  0.0813 -0.0318
 8287TIP3   OH246275   2.566   5.226  13.185 -0.6333  0.5738  0.6820
 8287TIP3    H146276   2.574   5.133  13.206 -0.2541  0.7478  1.3410
 8287TIP3    H246277   2.475   5.237  13.159 -1.1428  0.3299  2.2466
 8288TIP3   OH246278   5.760   5.003  10.888 -0.4061 -0.3313  0.3827
 8288TIP3    H146279   5.736   4.963  10.805 -0.8946 -1.9508  1.2650
 8288TIP3    H246280   5.677   5.030  10.928 -0.1131  1.2544 -0.0142
 8289TIP3   OH246281   1.812   4.047  11.115 -0.1728  0.2378 -0.0534
 8289TIP3    H146282   1.900   4.010  11.118  0.0619  0.6422 -1.3022
 8289TIP3    H246283   1.821   4.134  11.155  0.5889  1.3068 -2.3265
 8290TIP3   OH246284   2.262   1.002  14.187 -0.2209 -0.3876 -0.6035
 8290TIP3    H146285   2.297   1.091  14.177  0.5332 -0.6564 -0.4169
 8290TIP3    H246286   2.320   0.947  14.134 -0.3128 -0.8535 -0.2284
 8291TIP3   OH246287   2.187   3.818  11.674 -0.3152  0.1405  0.1401
 8291TIP3    H146288   2.121   3.839  11.739 -1.5309  0.1762 -1.0476
 8291TIP3    H246289   2.206   3.725  11.687 -1.2713 -0.0925 -0.0566
 8292TIP3   OH246290   5.955   4.492   0.474 -0.1077  0.3054 -0.1832
 8292TIP3    H146291   5.939   4.433   0.401 -0.5266  1.0368 -0.6960
 8292TIP3    H246292   5.964   4.578   0.434  0.7139  0.5601  0.5307
 8293TIP3   OH246293   3.388   6.445   0.076 -0.1902  0.3396  0.0139
 8293TIP3    H146294   3.401   6.382   0.146  0.9923 -1.5298 -1.7702
 8293TIP3    H246295   3.346   6.520   0.118 -1.3991 -1.4943  2.3028
 8294TIP3   OH246296   0.644   0.337  10.242  0.0319  0.2399 -0.3180
 8294TIP3    H146297   0.644   0.241  10.245  1.3268  0.1960 -1.2185
 8294TIP3    H246298   0.551   0.360  10.237 -0.2720 -1.0100 -0.9087
 8295TIP3   OH246299   2.896   3.211  13.815 -0.1012  0.8296  0.2599
 8295TIP3    H146300   2.967   3.178  13.760  1.2873  2.8175  0.7342
 8295TIP3    H246301   2.864   3.134  13.861  0.6463 -0.3951 -1.1948
 8296TIP3   OH246302   0.110   3.515   2.092 -0.4471  0.5200 -0.3517
 8296TIP3    H146303   0.026   3.535   2.052  0.0191  0.3399 -1.4691
 8296TIP3    H246304   0.157   3.598   2.093 -0.0138  0.3034 -1.3063
 8297TIP3   OH246305   2.116   1.512   4.389 -0.1058  0.1354  0.0235
 8297TIP3    H146306   2.033   1.532   4.433  0.4727  2.2855  0.2676
 8297TIP3    H246307   2.092   1.453   4.317 -1.6133 -0.4186  0.9404
 8298TIP3   OH246308   4.595   0.720  11.089  0.6940  0.2770 -0.2684
 8298TIP3    H146309   4.538   0.700  11.163  2.2356  0.0807  0.9150
 8298TIP3    H246310   4.601   0.638  11.040 -0.1535  0.3472 -0.5022
 8299TIP3   OH246311   1.411   6.432  12.528 -1.0250  0.0963  0.3695
 8299TIP3    H146312   1.469   6.368  12.569 -1.8121 -0.0438  1.3095
 8299TIP3    H246313   1.426   6.421  12.434  1.0509  0.6370  0.5783
 8300TIP3   OH246314   2.571   0.868   3.267 -0.1435 -0.6096 -0.3086
 8300TIP3    H146315   2.655   0.842   3.305 -0.0301  0.2119  0.0115
 8300TIP3    H246316   2.509   0.863   3.340  0.0041  0.6112 -0.0743
 8301TIP3   OH246317   4.480   6.231  14.683 -0.4402  0.1512  0.0652
 8301TIP3    H146318   4.540   6.293  14.642 -0.4438 -0.5662 -1.0655
 8301TIP3    H246319   4.419   6.286  14.732  0.5195  0.9393  0.4015
 8302TIP3   OH246320   0.459   6.049  11.009 -0.5397  0.4310  0.7043
 8302TIP3    H146321   0.498   5.979  10.956  0.8212  1.4299  0.3352
 8302TIP3    H246322   0.406   6.002  11.074 -1.8430 -0.8426 -1.1641
 8303TIP3   OH246323   1.293   3.590  10.568 -0.1029  0.3171  0.4551
 8303TIP3    H146324   1.263   3.657  10.506 -1.3557 -2.0210 -1.6407
 8303TIP3    H246325   1.237   3.601  10.644 -0.5961  1.3617 -0.0404
 8304TIP3   OH246326   4.348   0.574   9.979 -0.2790 -1.0846  0.4073
 8304TIP3    H146327   4.260   0.607   9.994  1.3349  3.7305  0.8012
 8304TIP3    H246328   4.363   0.587   9.886  1.2427  2.2287  0.9777
 8305TIP3   OH246329   0.370   7.136  13.340  0.0672 -0.0512 -0.0160
 8305TIP3    H146330   0.360   7.074  13.267 -0.0016  0.4033 -0.3973
 8305TIP3    H246331   0.454   7.113  13.379  0.0413 -0.3889 -0.1532
 8306TIP3   OH246332   2.425   5.793   1.951  0.4602 -0.3137 -0.2761
 8306TIP3    H146333   2.426   5.883   1.985  1.4361 -0.3318 -0.2343
 8306TIP3    H246334   2.438   5.739   2.029 -0.5606 -0.5301 -0.2370
 8307TIP3   OH246335   7.153   1.787   0.208  0.4934  0.3503 -0.7393
 8307TIP3    H146336   7.114   1.810   0.124  0.1768  0.0043 -0.6895
 8307TIP3    H246337   7.243   1.762   0.186  0.0918 -0.8423 -1.1434
 8308TIP3   OH246338   1.375   6.688  14.455 -0.1599  0.4697 -0.1690
 8308TIP3    H146339   1.310   6.735  14.508  0.3405 -0.1485  1.0166
 8308TIP3    H246340   1.430   6.757  14.418  0.0811  0.8618  0.9054
 8309TIP3   OH246341   3.641   6.030   3.066  0.4283  1.0886  0.0757
 8309TIP3    H146342   3.689   5.947   3.077  0.7427  1.1309 -0.8807
 8309TIP3    H246343   3.549   6.005   3.074  0.4597  0.4310 -1.3886
 8310TIP3   OH246344   6.199   4.697  10.097 -0.3724  0.3043  0.2347
 8310TIP3    H146345   6.247   4.637  10.039 -2.0714 -1.0449  0.1462
 8310TIP3    H246346   6.211   4.659  10.185 -1.1622  0.0044  0.2218
 8311TIP3   OH246347   1.711   6.317  13.024 -0.6966  0.1826  0.8324
 8311TIP3    H146348   1.691   6.395  12.973  1.1772 -0.6173 -1.3172
 8311TIP3    H246349   1.656   6.249  12.986  1.3961 -0.6385 -0.9251
 8312TIP3   OH246350   1.463   4.196   0.550 -0.8162  0.3554 -0.1414
 8312TIP3    H146351   1.510   4.279   0.541 -1.8030  1.0352  0.6696
 8312TIP3    H246352   1.459   4.161   0.462 -1.0133  1.5474 -0.6262
 8313TIP3   OH246353   2.347   4.640  14.393 -0.1309  0.2562  0.1114
 8313TIP3    H146354   2.287   4.593  14.334  0.2532  0.2331 -0.2673
 8313TIP3    H246355   2.291   4.703  14.439 -0.5121 -0.0280  0.0438
 8314TIP3   OH246356   5.732   5.552  12.422 -0.5097 -0.2802  0.3471
 8314TIP3    H146357   5.657   5.609  12.442  1.1170  1.9781  0.4580
 8314TIP3    H246358   5.716   5.522  12.333 -0.3079  2.4352 -0.7057
 8315TIP3   OH246359   1.021   2.513   0.598 -0.3220 -0.6741 -0.5281
 8315TIP3    H146360   1.068   2.434   0.625 -0.8304 -0.9719 -0.4836
 8315TIP3    H246361   0.929   2.485   0.593 -0.4171 -0.2636 -1.2057
 8316TIP3   OH246362   3.083   5.072  12.348  0.0116 -0.1290 -0.1170
 8316TIP3    H146363   3.150   5.008  12.323 -0.9712 -0.5563 -1.8439
 8316TIP3    H246364   3.011   5.056  12.287 -1.4698  0.6653  1.3367
 8317TIP3   OH246365   0.131   2.007   0.336 -0.2792 -0.0617 -0.0531
 8317TIP3    H146366   0.070   1.945   0.296 -1.6863  0.6333  0.9272
 8317TIP3    H246367   0.115   2.089   0.290  0.2458  0.0295 -0.0797
 8318TIP3   OH246368   2.002   2.140   1.172 -0.0773 -1.0436 -0.2396
 8318TIP3    H146369   1.978   2.141   1.264 -0.8668  0.2512 -0.4331
 8318TIP3    H246370   1.957   2.216   1.134  0.5395 -1.3209 -1.6095
 8319TIP3   OH246371   6.986   3.239   2.399  0.4054  0.2897  0.2717
 8319TIP3    H146372   7.075   3.258   2.369  0.4607 -0.8603 -0.3644
 8319TIP3    H246373   6.971   3.300   2.471  0.9639  1.8460 -0.8875
 8320TIP3   OH246374   3.518   0.111  13.725 -0.2607  0.7464  0.1979
 8320TIP3    H146375   3.581   0.068  13.668 -0.5105  1.3205 -0.5413
 8320TIP3    H246376   3.571   0.162  13.787  0.0093  0.5306  0.1442
 8321TIP3   OH246377   1.632   1.757  14.738 -0.1516  0.6769  0.3673
 8321TIP3    H146378   1.646   1.767  14.644  0.3668  2.0980  0.5778
 8321TIP3    H246379   1.628   1.846  14.772 -0.0657  0.1867  1.7400
 8322TIP3   OH246380   2.006   6.716  11.400  0.3159  0.2878 -0.1351
 8322TIP3    H146381   1.934   6.747  11.455 -1.1298 -0.8785 -1.2996
 8322TIP3    H246382   2.085   6.744  11.447 -0.8639  1.8924  1.0153
 8323TIP3   OH246383   3.660   4.244  15.277  0.5187 -0.4093 -0.0831
 8323TIP3    H146384   3.601   4.311  15.242 -1.4718 -1.9999  0.0827
 8323TIP3    H246385   3.747   4.283  15.269 -0.1790  0.8447 -3.2160
 8324TIP3   OH246386   2.351   6.012  11.130 -0.1479  0.6649 -0.9839
 8324TIP3    H146387   2.284   6.075  11.104  0.1868  1.7161  0.6036
 8324TIP3    H246388   2.341   6.004  11.225  0.3298 -1.1068 -1.0353
 8325TIP3   OH246389   2.843   6.471  12.953  0.8524 -0.4268  0.6657
 8325TIP3    H146390   2.806   6.504  12.871 -0.7931 -0.9003  1.1802
 8325TIP3    H246391   2.904   6.539  12.981  2.5688 -0.8969 -1.6511
 8326TIP3   OH246392   4.716   2.624   3.769  0.5773 -0.1713 -0.3227
 8326TIP3    H146393   4.651   2.634   3.839  0.8015 -0.6444 -0.0474
 8326TIP3    H246394   4.686   2.685   3.701 -1.5981 -2.0910 -1.2648
 8327TIP3   OH246395   2.820   2.799   2.032 -0.5368  0.0941 -0.1028
 8327TIP3    H146396   2.897   2.853   2.015 -1.4160  1.1834 -0.8378
 8327TIP3    H246397   2.853   2.710   2.035  0.6864  0.4859 -0.9573
 8328TIP3   OH246398   3.593   1.419   3.680 -0.3455  0.1365 -0.5287
 8328TIP3    H146399   3.585   1.324   3.687  0.9939  0.0921  0.8861
 8328TIP3    H246400   3.504   1.449   3.662 -1.3063 -1.1812  1.6495
 8329TIP3   OH246401   3.439   5.880  11.672  0.0894  0.0275  0.0855
 8329TIP3    H146402   3.532   5.904  11.680 -0.3627  1.2843  2.2324
 8329TIP3    H246403   3.410   5.865  11.761 -1.5400 -1.5301 -0.6324
 8330TIP3   OH246404   3.642   2.453  14.241 -0.0391  0.0675 -0.3350
 8330TIP3    H146405   3.728   2.479  14.209  0.0098  0.8104  0.3843
 8330TIP3    H246406   3.644   2.357  14.241 -0.2359 -0.0128 -3.0598
 8331TIP3   OH246407   7.108   4.289   0.082  0.7005  0.1535 -0.0387
 8331TIP3    H146408   7.025   4.241   0.089  0.1505  1.0116 -0.6443
 8331TIP3    H246409   7.085   4.373   0.044  1.9592  0.1238 -0.9407
 8332TIP3   OH246410   1.555   4.944  13.480  0.5953 -0.1414  0.4344
 8332TIP3    H146411   1.460   4.952  13.491  0.2589 -0.7007 -1.5878
 8332TIP3    H246412   1.591   5.024  13.518 -0.7232  0.2919  0.8160
 8333TIP3   OH246413   6.729   1.560  13.465 -0.5446  0.0841  0.1773
 8333TIP3    H146414   6.729   1.592  13.375  0.2505 -1.3273 -0.3503
 8333TIP3    H246415   6.811   1.512  13.474 -0.8124 -0.1677  1.5277
 8334TIP3   OH246416   0.815   5.855  15.220 -0.3437 -0.3086  0.3029
 8334TIP3    H146417   0.806   5.824  15.130  0.2891  0.6154 -0.0981
 8334TIP3    H246418   0.883   5.801  15.258 -0.6980 -0.7830  0.2703
 8335TIP3   OH246419   6.808   2.406  11.756  0.2769 -0.5453 -0.4413
 8335TIP3    H146420   6.849   2.321  11.737  0.3384 -0.1030 -2.4885
 8335TIP3    H246421   6.721   2.401  11.717 -0.9584 -0.7130  2.0906
 8336TIP3   OH246422   5.694   3.252  11.369 -0.2651  0.0593 -0.1544
 8336TIP3    H146423   5.641   3.332  11.366 -0.5338 -0.0996  0.2412
 8336TIP3    H246424   5.637   3.185  11.331 -0.5546 -0.2197  0.7323
 8337TIP3   OH246425   0.765   0.242  10.548  0.2856 -0.1436 -0.1983
 8337TIP3    H146426   0.781   0.154  10.584 -0.0385 -0.2018 -0.1901
 8337TIP3    H246427   0.848   0.267  10.508  0.1795 -0.7513 -0.8235
 8338TIP3   OH246428   2.534   5.947  15.451 -0.4198  0.1023 -0.3294
 8338TIP3    H146429   2.474   5.925  15.381  0.1985 -1.8660 -0.3036
 8338TIP3    H246430   2.541   6.042  15.448 -1.1739  0.1359 -2.2734
 8339TIP3   OH246431   1.196   2.137   3.639  0.3636 -0.0651  0.5064
 8339TIP3    H146432   1.273   2.103   3.685  0.5723  0.7531  0.7879
 8339TIP3    H246433   1.140   2.172   3.709  1.2532  2.3550  0.1067
 8340TIP3   OH246434   3.314   2.397   0.948 -0.3805 -0.5977  0.6199
 8340TIP3    H146435   3.267   2.373   1.027  1.3270 -0.5665  1.6961
 8340TIP3    H246436   3.308   2.492   0.943 -1.9600 -0.7124 -0.2840
 8341TIP3   OH246437   6.327   4.199  12.980 -0.4349  0.1227 -0.1085
 8341TIP3    H146438   6.355   4.139  12.911  0.9659  1.0520 -0.3990
 8341TIP3    H246439   6.257   4.152  13.026 -0.1946 -1.2260 -1.0550
 8342TIP3   OH246440   0.408   1.637  13.064 -0.4267 -0.3462 -0.1884
 8342TIP3    H146441   0.440   1.684  13.141  0.9060  0.9620 -1.4781
 8342TIP3    H246442   0.360   1.702  13.014  0.6987 -0.5373 -1.5827
 8343TIP3   OH246443   1.527   1.416   0.733 -0.0628 -0.0999 -0.2484
 8343TIP3    H146444   1.466   1.489   0.722  0.6335  1.0478  2.6225
 8343TIP3    H246445   1.599   1.452   0.784  1.8142 -2.0704 -1.3618
 8344TIP3   OH246446   5.730   5.387  13.834 -0.5011 -0.5521  0.3615
 8344TIP3    H146447   5.806   5.408  13.781 -2.1236  0.7387 -1.5810
 8344TIP3    H246448   5.696   5.471  13.864 -0.5973 -1.1598  2.1121
 8345TIP3   OH246449   5.689   2.521  13.094  0.3995 -0.2017 -0.1495
 8345TIP3    H146450   5.742   2.466  13.152  1.6906  0.5790 -0.5517
 8345TIP3    H246451   5.605   2.476  13.089  0.7446 -1.0530  1.1541
 8346TIP3   OH246452   5.656   5.424  12.149  0.1413  0.3116  0.4114
 8346TIP3    H146453   5.659   5.338  12.191  0.1949 -0.4519 -1.0653
 8346TIP3    H246454   5.738   5.428  12.098  0.1867  1.2840  0.5490
 8347TIP3   OH246455   2.048   4.779  10.510 -0.2244  0.1873  0.0981
 8347TIP3    H146456   1.991   4.727  10.453 -0.7323 -0.3474  1.0681
 8347TIP3    H246457   2.062   4.724  10.587 -0.2983  1.2483  0.9015
 8348TIP3   OH246458   6.613   4.991  10.422  0.5439  0.0857 -0.2489
 8348TIP3    H146459   6.702   4.991  10.456  0.5525  1.4220 -0.2244
 8348TIP3    H246460   6.558   4.977  10.499  0.6928  0.2883 -0.1044
 8349TIP3   OH246461   7.086   0.981   0.907  0.1155 -0.3961  0.5186
 8349TIP3    H146462   7.003   1.010   0.869 -1.0514 -1.7431  1.9228
 8349TIP3    H246463   7.153   1.031   0.860 -1.5865  2.5524  0.9808
 8350TIP3   OH246464   4.204   0.532  12.271 -0.0191 -0.2976  0.1612
 8350TIP3    H146465   4.282   0.500  12.226 -0.8514 -1.1506 -0.7134
 8350TIP3    H246466   4.229   0.618  12.304  1.5391 -0.8656  0.5652
 8351TIP3   OH246467   3.271   2.695   3.366 -0.1973 -0.1546 -0.4056
 8351TIP3    H146468   3.335   2.715   3.298  0.6544 -2.6759 -0.4864
 8351TIP3    H246469   3.270   2.599   3.369  0.0750 -0.1751  3.3387
 8352TIP3   OH246470   0.286   2.321   0.615 -0.2170 -0.3268 -0.1696
 8352TIP3    H146471   0.197   2.296   0.591 -0.5491  1.9444 -1.5893
 8352TIP3    H246472   0.303   2.400   0.565  2.0033  0.2504  1.3462
 8353TIP3   OH246473   5.584   0.349  10.379 -0.3612 -0.6475  0.2939
 8353TIP3    H146474   5.604   0.266  10.336  2.0708 -0.2252  0.4624
 8353TIP3    H246475   5.643   0.412  10.337  0.7583  0.1456  2.8644
 8354TIP3   OH246476   0.178   3.673  12.287  0.1291  0.7298  0.7079
 8354TIP3    H146477   0.093   3.690  12.245 -0.2494 -0.2786  1.0423
 8354TIP3    H246478   0.163   3.597  12.342  2.0988 -1.7428 -1.8588
 8355TIP3   OH246479   0.683   0.931  11.568 -0.3457 -0.3963 -0.2558
 8355TIP3    H146480   0.704   0.932  11.475  1.6978 -1.2203  0.1479
 8355TIP3    H246481   0.760   0.893  11.610 -0.5402  1.4157  1.9514
 8356TIP3   OH246482   6.729   1.218  13.948  0.1908 -0.0359  0.4833
 8356TIP3    H146483   6.691   1.144  13.901 -0.4771 -0.2675  1.3561
 8356TIP3    H246484   6.703   1.203  14.039  0.0619  1.2671  0.6701
 8357TIP3   OH246485   7.080   3.327  10.415  0.0796  0.3278 -0.0010
 8357TIP3    H146486   7.063   3.322  10.509 -0.8189 -1.0513 -0.2100
 8357TIP3    H246487   7.125   3.411  10.403 -0.7592  1.0375  1.5036
 8358TIP3   OH246488   3.679   6.275   3.238  0.0575  0.2140  0.8027
 8358TIP3    H146489   3.716   6.249   3.322 -1.4952  0.1207  1.4919
 8358TIP3    H246490   3.676   6.195   3.186  0.2594  0.1116  0.9485
 8359TIP3   OH246491   5.663   0.524  13.680 -0.7300 -0.1141 -0.6712
 8359TIP3    H146492   5.708   0.513  13.596  0.0712 -1.0195 -0.1462
 8359TIP3    H246493   5.572   0.503  13.661 -0.6669  0.2958 -1.4477
 8360TIP3   OH246494   4.969   3.897   5.521 -0.3072 -0.6158 -0.6221
 8360TIP3    H146495   4.977   3.930   5.610  0.4746 -3.0736  0.3160
 8360TIP3    H246496   4.984   3.973   5.465 -0.8174  0.9861  1.3215
 8361TIP3   OH246497   4.415   0.115  12.549 -0.0932  0.7098  0.2055
 8361TIP3    H146498   4.433   0.181  12.616 -0.5521  0.7618  0.2802
 8361TIP3    H246499   4.319   0.106  12.549 -0.1818  1.3169 -1.0004
 8362TIP3   OH246500   4.365   0.228   1.321 -0.1122  0.6900  0.2445
 8362TIP3    H146501   4.287   0.235   1.266  0.1177  1.2477 -0.0115
 8362TIP3    H246502   4.360   0.305   1.379 -0.9674 -0.4708  1.8176
 8363TIP3   OH246503   6.862   2.561   3.309 -0.4612  0.0301 -0.1895
 8363TIP3    H146504   6.941   2.526   3.267 -1.4317 -1.0758 -1.2020
 8363TIP3    H246505   6.838   2.494   3.372  0.0889  0.9525  1.0302
 8364TIP3   OH246506   3.413   3.046   0.651  0.3314  0.2705 -0.0666
 8364TIP3    H146507   3.399   3.129   0.605  0.4023  0.2319 -0.1587
 8364TIP3    H246508   3.377   2.980   0.592 -1.7914  0.4145  0.9820
 8365TIP3   OH246509   2.745   3.814  13.945 -0.0213 -0.8807  0.2575
 8365TIP3    H146510   2.761   3.905  13.972  0.2939 -0.6138 -0.7814
 8365TIP3    H246511   2.650   3.807  13.941 -0.0636  0.0784 -1.7420
 8366TIP3   OH246512   3.764   6.990  12.178 -0.2308 -0.0277 -0.1792
 8366TIP3    H146513   3.830   6.926  12.150 -1.9891 -2.2804  0.5209
 8366TIP3    H246514   3.815   7.065  12.209  2.0499 -1.9455  1.0132
 8367TIP3   OH246515   3.997   1.501   0.075 -0.3543  0.8643  0.6055
 8367TIP3    H146516   3.941   1.429   0.046  2.1837 -0.3320 -1.7532
 8367TIP3    H246517   3.945   1.580   0.057 -0.9276 -0.1180 -2.6345
 8368TIP3   OH246518   4.774   2.374  11.800 -0.0981 -0.5999  0.6260
 8368TIP3    H146519   4.780   2.463  11.834  0.4312 -0.2588 -0.3254
 8368TIP3    H246520   4.839   2.324  11.849 -1.3416 -0.8026  2.1346
 8369TIP3   OH246521   3.358   3.857  14.009 -0.2056  0.0745  0.1181
 8369TIP3    H146522   3.380   3.916  14.081 -0.8433 -0.0052  0.3867
 8369TIP3    H246523   3.317   3.913  13.944  0.5457  0.1800 -0.2737
 8370TIP3   OH246524   0.512   3.168  14.379  0.3034  0.4570 -0.0742
 8370TIP3    H146525   0.443   3.229  14.404 -0.0547 -0.4852  1.3642
 8370TIP3    H246526   0.578   3.177  14.449  1.1914  0.6428 -0.9122
 8371TIP3   OH246527   0.592   4.326   1.474  0.3619 -0.2931  0.0950
 8371TIP3    H146528   0.579   4.362   1.562  0.8896  0.2732 -0.0544
 8371TIP3    H246529   0.518   4.361   1.423  1.1831  1.1106 -0.1980
 8372TIP3   OH246530   1.347   1.443  14.680 -0.3616 -0.1116  0.4976
 8372TIP3    H146531   1.313   1.361  14.718 -0.8902  0.5621  1.5173
 8372TIP3    H246532   1.270   1.500  14.673  0.4696  1.4021  2.7126
 8373TIP3   OH246533   3.006   3.249   3.050 -0.6788 -0.0431  0.3618
 8373TIP3    H146534   2.982   3.227   2.960 -0.2977  0.7519  0.0505
 8373TIP3    H246535   2.923   3.257   3.096 -1.0021  1.5410 -0.4173
 8374TIP3   OH246536   2.046   4.783  11.515  0.2150  0.4712  0.4942
 8374TIP3    H146537   1.990   4.730  11.572 -0.8260 -0.9307 -1.7117
 8374TIP3    H246538   2.131   4.738  11.517  0.1244  0.3082  0.7399
 8375TIP3   OH246539   4.279   2.158   5.199  0.0976  0.0747 -0.2802
 8375TIP3    H146540   4.301   2.066   5.212  0.6091  0.0846 -1.0589
 8375TIP3    H246541   4.236   2.184   5.281  0.7492 -0.6083  0.2872
 8376TIP3   OH246542   3.325   6.706  11.329 -0.5337 -0.1386  0.1675
 8376TIP3    H146543   3.343   6.612  11.322 -1.1882 -0.2096 -0.7031
 8376TIP3    H246544   3.231   6.712  11.343 -0.8623  0.4456 -1.9814
 8377TIP3   OH246545   7.081   5.671  10.950 -0.4712 -0.7498  0.3929
 8377TIP3    H146546   6.996   5.646  10.913 -0.3036  1.1276 -1.4695
 8377TIP3    H246547   7.084   5.766  10.942  0.9830 -0.5591  2.3733
 8378TIP3   OH246548   3.401   4.907   3.319 -0.1641 -0.3119 -0.6132
 8378TIP3    H146549   3.427   4.839   3.381 -1.7147 -0.5932 -0.2232
 8378TIP3    H246550   3.377   4.859   3.240  0.0214 -0.1008 -0.7985
 8379TIP3   OH246551   1.664   1.984   0.803  0.0149  0.0274  0.3841
 8379TIP3    H146552   1.604   1.920   0.840  1.5450 -1.0176  1.1962
 8379TIP3    H246553   1.666   2.056   0.867 -1.1717  0.5837 -0.1844
 8380TIP3   OH246554   0.956   4.128   0.546  0.3649 -0.4833 -0.1922
 8380TIP3    H146555   1.040   4.094   0.578  1.2789 -0.7213 -2.6080
 8380TIP3    H246556   0.949   4.215   0.585  1.3633 -0.7670  0.6656
 8381TIP3   OH246557   1.460   0.684   2.521  0.9858  0.3042 -0.1777
 8381TIP3    H146558   1.432   0.667   2.431  0.5884  0.5999 -0.1143
 8381TIP3    H246559   1.458   0.780   2.528 -0.8507  0.2420  0.7187
 8382TIP3   OH246560   4.544   2.665  11.695 -0.3547  0.1293 -0.0593
 8382TIP3    H146561   4.530   2.571  11.705  0.2206  0.0578  0.0725
 8382TIP3    H246562   4.638   2.675  11.681 -0.1727  0.7925  1.4182
 8383TIP3   OH246563   3.418   3.245   1.387  0.4778  0.4036 -0.0155
 8383TIP3    H146564   3.416   3.337   1.360 -0.9112  0.9977  1.9477
 8383TIP3    H246565   3.328   3.225   1.412  1.2146 -0.7749  1.8468
 8384TIP3   OH246566   0.301   0.824  11.293  0.4832  0.3306  0.2831
 8384TIP3    H146567   0.213   0.845  11.263  0.3460  1.2160  1.2340
 8384TIP3    H246568   0.343   0.783  11.218 -0.0087  1.9837 -0.9578
 8385TIP3   OH246569   1.894   3.538  10.613  0.5700  0.0694 -0.4228
 8385TIP3    H146570   1.977   3.571  10.647 -0.0889  0.0929  1.2444
 8385TIP3    H246571   1.918   3.457  10.567  1.6462  0.6840 -1.0024
 8386TIP3   OH246572   5.971   0.492   1.693 -0.1722 -0.0421 -0.3367
 8386TIP3    H146573   6.053   0.445   1.709 -0.6164 -0.8219 -0.2521
 8386TIP3    H246574   5.910   0.455   1.758 -0.6852  0.2758 -0.6298
 8387TIP3   OH246575   2.594   3.938  13.355 -0.1959  0.4582 -0.4028
 8387TIP3    H146576   2.592   3.992  13.276  2.9369  1.9197  0.3811
 8387TIP3    H246577   2.567   3.998  13.425  0.7999  0.3124  0.1212
 8388TIP3   OH246578   2.812   1.986   0.608  0.5906  0.5652  0.5884
 8388TIP3    H146579   2.889   1.956   0.656  1.3460 -1.9844 -1.9577
 8388TIP3    H246580   2.825   2.080   0.598  1.6301  0.7619  3.0659
 8389TIP3   OH246581   4.462   4.511   2.288  0.3113 -0.2329  0.6908
 8389TIP3    H146582   4.448   4.520   2.193  0.9112  0.3538  0.6508
 8389TIP3    H246583   4.556   4.494   2.296  0.2085 -0.5866  1.1701
 8390TIP3   OH246584   5.049   1.982  11.832 -0.0881 -0.1840  0.1107
 8390TIP3    H146585   5.137   1.964  11.866  0.9487  1.3525 -1.6223
 8390TIP3    H246586   5.010   2.040  11.898  0.0782 -1.0430  0.9974
 8391TIP3   OH246587   0.870   6.446  12.721  0.1053 -0.9749  0.4263
 8391TIP3    H146588   0.963   6.430  12.703 -0.0263 -1.9093  0.5046
 8391TIP3    H246589   0.859   6.540  12.709  0.6370 -1.1206 -1.6514
 8392TIP3   OH246590   3.819   5.696   1.736 -0.6074 -0.0604 -0.1443
 8392TIP3    H146591   3.907   5.666   1.760 -0.3836  0.0028 -0.8523
 8392TIP3    H246592   3.762   5.659   1.802 -0.2546 -1.4484 -0.5851
 8393TIP3   OH246593   4.244   6.771  10.394 -0.6702  0.4353 -1.0281
 8393TIP3    H146594   4.244   6.713  10.318  1.1116 -2.0684  0.6955
 8393TIP3    H246595   4.155   6.805  10.398 -2.4013 -3.5005 -1.3131
 8394TIP3   OH246596   3.006   4.773  13.012 -0.3372 -0.2786  0.5690
 8394TIP3    H146597   3.057   4.729  12.943  1.0623  0.4210  1.1221
 8394TIP3    H246598   2.981   4.702  13.071 -0.5360 -0.7220 -0.0299
 8395TIP3   OH246599   3.755   2.671  12.854  0.2604  0.0904  0.1800
 8395TIP3    H146600   3.846   2.699  12.846 -0.3937  2.0625 -0.9316
 8395TIP3    H246601   3.744   2.606  12.784  0.5519  0.5580 -0.3021
 8396TIP3   OH246602   5.237   3.140  12.462  0.1136 -0.0335 -0.0804
 8396TIP3    H146603   5.185   3.068  12.427  1.9233  0.0272 -3.2340
 8396TIP3    H246604   5.327   3.107  12.463  0.6470  1.3278  0.9342
 8397TIP3   OH246605   5.807   3.191   2.239 -0.2957 -0.1199 -0.7430
 8397TIP3    H146606   5.798   3.146   2.324  0.6553  1.5768  0.3210
 8397TIP3    H246607   5.895   3.169   2.210 -0.3405 -0.0653 -0.9191
 8398TIP3   OH246608   3.792   1.255  13.391  0.4015 -0.0924 -0.3647
 8398TIP3    H146609   3.799   1.329  13.330  2.3542 -1.1528 -1.5110
 8398TIP3    H246610   3.708   1.214  13.369  0.1137  0.7500 -0.8911
 8399TIP3   OH246611   4.320   5.438  12.698 -0.1874 -0.4153  0.2819
 8399TIP3    H146612   4.410   5.468  12.714 -0.5387  0.9660 -0.1688
 8399TIP3    H246613   4.287   5.414  12.785  1.1025 -2.4824  0.2678
 8400TIP3   OH246614   0.627   4.094   3.485 -0.3388 -0.3165  0.6120
 8400TIP3    H146615   0.698   4.141   3.530  0.7459 -0.5496 -0.8095
 8400TIP3    H246616   0.654   4.090   3.394 -2.5841  0.2971 -0.1581
 8401TIP3   OH246617   3.985   3.662   0.994  0.1429 -0.0422  0.4333
 8401TIP3    H146618   3.903   3.645   0.947  0.4713 -2.8515  0.6920
 8401TIP3    H246619   3.964   3.734   1.053 -2.6258 -1.4873  1.4331
 8402TIP3   OH246620   6.715   2.156   0.339  0.0557  0.2294  0.3217
 8402TIP3    H146621   6.789   2.170   0.398 -0.5118  0.6106  0.9643
 8402TIP3    H246622   6.638   2.178   0.392 -0.5771 -0.8970 -0.0832
 8403TIP3   OH246623   0.843   1.944  10.986 -0.5103  0.0014 -0.2806
 8403TIP3    H146624   0.925   1.984  11.013 -0.0976 -2.0129  1.7016
 8403TIP3    H246625   0.782   1.962  11.058 -1.0120 -0.8038 -0.4870
 8404TIP3   OH246626   3.247   3.089  12.946 -0.6511 -0.1973  0.4136
 8404TIP3    H146627   3.340   3.103  12.928 -1.3148  1.2640 -2.5951
 8404TIP3    H246628   3.222   3.161  13.004 -0.3357  0.7963 -0.6436
 8405TIP3   OH246629   6.601   5.122  10.167 -0.6585  0.0635  0.0632
 8405TIP3    H146630   6.516   5.161  10.148 -0.8120 -0.6899 -0.9181
 8405TIP3    H246631   6.585   5.061  10.239 -1.1346 -0.6775 -0.6562
 8406TIP3   OH246632   1.008   0.621   9.657 -0.2879  0.3772 -0.0194
 8406TIP3    H146633   1.013   0.713   9.683 -1.4708  0.2273  0.8605
 8406TIP3    H246634   0.918   0.595   9.679  0.3283 -1.2589  0.7354
 8407TIP3   OH246635   0.935   1.908   5.052  0.1397  0.5251  0.4638
 8407TIP3    H146636   0.909   1.950   5.133  1.4793 -1.2397  1.9071
 8407TIP3    H246637   0.869   1.840   5.038 -0.2704  1.0319 -0.1371
 8408TIP3   OH246638   4.454   0.161  11.202  0.6951 -0.5610  0.1839
 8408TIP3    H146639   4.415   0.143  11.288  1.5158 -1.2812  0.4183
 8408TIP3    H246640   4.441   0.255  11.190 -1.1908 -0.7812  0.1933
 8409TIP3   OH246641   0.115   6.765   5.018  0.0261  0.3773  0.7737
 8409TIP3    H146642   0.165   6.707   5.075  0.5327 -0.3758 -0.4131
 8409TIP3    H246643   0.023   6.744   5.037  0.1740  0.4548  1.6222
 8410TIP3   OH246644   2.711   2.419  13.079 -0.2651 -0.0666  0.0872
 8410TIP3    H146645   2.721   2.329  13.046 -1.1995 -0.0455 -0.2850
 8410TIP3    H246646   2.800   2.446  13.102 -0.0111 -1.1989  0.4948
 8411TIP3   OH246647   6.347   5.914  11.979 -0.1962  0.3073 -0.3097
 8411TIP3    H146648   6.280   5.982  11.980  0.5659  1.0873  1.1067
 8411TIP3    H246649   6.424   5.957  11.941 -0.1309 -0.2230 -0.7935
 8412TIP3   OH246650   3.914   0.334   0.234  0.6415  0.0705 -0.3781
 8412TIP3    H146651   3.895   0.413   0.285  0.1114 -0.1984 -0.1534
 8412TIP3    H246652   4.000   0.350   0.197  1.6286 -0.2285  1.6208
 8413TIP3   OH246653   0.876   5.120  10.913  0.4050 -0.1529  0.6538
 8413TIP3    H146654   0.820   5.042  10.917 -2.0662  1.5002  0.0738
 8413TIP3    H246655   0.911   5.120  10.823  2.0590 -1.5753  1.2294
 8414TIP3   OH246656   5.505   3.560   3.900  0.3092 -0.1962 -0.5157
 8414TIP3    H146657   5.534   3.637   3.948 -0.9131 -1.1553  1.9658
 8414TIP3    H246658   5.414   3.548   3.928  0.4429 -2.4662 -0.8847
 8415TIP3   OH246659   1.225   5.136   4.549 -0.5707  0.0098 -0.4399
 8415TIP3    H146660   1.265   5.055   4.517 -1.6921 -0.1122 -1.6359
 8415TIP3    H246661   1.168   5.108   4.621 -1.2311 -0.3518 -1.0802
 8416TIP3   OH246662   5.943   1.100  11.114 -0.2346  0.1205 -0.1923
 8416TIP3    H146663   5.862   1.053  11.099  0.1056 -0.1764 -1.2178
 8416TIP3    H246664   6.011   1.032  11.114  0.1232  0.4728 -0.4100
 8417TIP3   OH246665   6.370   1.836  13.147  0.0842  0.0726  0.2093
 8417TIP3    H146666   6.366   1.930  13.166 -0.7543 -0.0923  0.8994
 8417TIP3    H246667   6.367   1.794  13.233  0.7360 -0.5914 -0.0801
 8418TIP3   OH246668   6.105   4.084  10.957 -0.0464 -0.3430 -0.4302
 8418TIP3    H146669   6.074   4.120  10.873  0.0262  0.3901 -0.1517
 8418TIP3    H246670   6.044   4.120  11.022 -1.8830 -3.1647 -0.4253
 8419TIP3   OH246671   1.415   2.555   2.209  0.0070  0.3292 -0.1266
 8419TIP3    H146672   1.367   2.565   2.127 -2.2079 -1.3954  0.8264
 8419TIP3    H246673   1.396   2.635   2.258 -0.4523  0.4345 -0.4718
 8420TIP3   OH246674   3.284   4.469  12.502 -0.3201  0.7298  0.5074
 8420TIP3    H146675   3.219   4.504  12.441 -1.7679 -0.2029  1.4565
 8420TIP3    H246676   3.286   4.532  12.574  0.5085  1.2139  0.0758
 8421TIP3   OH246677   3.353   6.361   9.994  0.2960 -0.0194 -0.3245
 8421TIP3    H146678   3.406   6.324  10.065  1.2957 -0.4969 -1.2982
 8421TIP3    H246679   3.417   6.393   9.930 -0.5755 -0.7878 -1.6269
 8422TIP3   OH246680   3.481   5.450  14.334  0.1590 -0.3971 -0.2755
 8422TIP3    H146681   3.415   5.388  14.365 -1.4145  0.3000 -2.0333
 8422TIP3    H246682   3.452   5.535  14.367  1.5998 -0.3657  1.0319
 8423TIP3   OH246683   5.668   3.139   5.894 -0.3443  0.0596  0.0442
 8423TIP3    H146684   5.611   3.204   5.934 -0.7554 -1.1380  1.4688
 8423TIP3    H246685   5.659   3.154   5.800  0.6876  2.9895  0.3034
 8424TIP3   OH246686   4.888   3.528  10.811  0.0222  0.1898 -0.3741
 8424TIP3    H146687   4.846   3.534  10.725 -0.9790 -1.3285 -0.0387
 8424TIP3    H246688   4.972   3.485  10.794  0.2747  0.8087 -0.7108
 8425TIP3   OH246689   1.663   6.784   4.369  0.1263  0.1161 -0.3134
 8425TIP3    H146690   1.725   6.841   4.413  0.5663 -0.2398 -0.4526
 8425TIP3    H246691   1.714   6.746   4.297 -0.6781  0.9919 -1.3781
 8426TIP3   OH246692   3.572   2.746  15.431 -0.0568  0.0155 -0.2574
 8426TIP3    H146693   3.604   2.817  15.376  0.7854  1.2279  1.7059
 8426TIP3    H246694   3.626   2.750  15.509 -1.1459 -1.7046  0.6374
 8427TIP3   OH246695   6.322   1.555  12.217 -0.0866 -0.8483  0.4972
 8427TIP3    H146696   6.403   1.514  12.187  0.7721 -0.7370  2.5112
 8427TIP3    H246697   6.280   1.587  12.138  0.5788 -3.1563 -0.8748
 8428TIP3   OH246698   1.266   1.719   2.964  0.1363  0.0674  0.0040
 8428TIP3    H146699   1.205   1.666   3.015  0.2674  1.1293  1.3428
 8428TIP3    H246700   1.287   1.793   3.022  1.0044  0.8558 -1.2649
 8429TIP3   OH246701   5.313   3.736  10.557 -0.7490 -0.0628  0.0931
 8429TIP3    H146702   5.246   3.667  10.552 -0.6468 -0.2249  0.9267
 8429TIP3    H246703   5.362   3.727  10.474 -0.5409 -1.2055  0.3202
 8430TIP3   OH246704   0.420   2.657   9.865  0.6859  0.4951  0.0672
 8430TIP3    H146705   0.332   2.687   9.840  1.1635  1.3998 -0.5895
 8430TIP3    H246706   0.405   2.603   9.942 -0.4954  0.3114 -0.2573
 8431TIP3   OH246707   4.833   4.627   0.213 -0.6480  0.0313  0.7330
 8431TIP3    H146708   4.806   4.702   0.161 -0.6246 -0.3108  0.2072
 8431TIP3    H246709   4.813   4.551   0.157  0.8134 -0.2652  0.5715
 8432TIP3   OH246710   6.602   4.031  10.617  0.8316 -0.4082  0.6972
 8432TIP3    H146711   6.662   4.063  10.684 -1.1297  0.3429  2.2011
 8432TIP3    H246712   6.516   4.032  10.660 -0.4179 -0.4725 -1.6488
 8433TIP3   OH246713   4.417   5.678  13.576 -0.1568  0.2941  0.1886
 8433TIP3    H146714   4.415   5.721  13.490 -0.5385  1.6797  0.8546
 8433TIP3    H246715   4.480   5.730  13.627 -0.6277  0.0707  1.0200
 8434TIP3   OH246716   3.260   5.895   9.573 -0.5238 -0.1696 -0.2048
 8434TIP3    H146717   3.235   5.834   9.504 -2.4157  1.4566 -1.0549
 8434TIP3    H246718   3.247   5.845   9.654  1.3953 -1.9881 -0.8952
 8435TIP3   OH246719   3.740   3.052  12.427  0.0505  0.3958  0.1488
 8435TIP3    H146720   3.761   3.016  12.340  0.3763  3.3498 -1.1213
 8435TIP3    H246721   3.823   3.053  12.473  0.2879  0.6835 -0.2782
 8436TIP3   OH246722   4.142   1.433  11.830 -0.3250 -0.2423  0.3187
 8436TIP3    H146723   4.136   1.524  11.801  2.7838 -0.2063 -0.5718
 8436TIP3    H246724   4.164   1.439  11.923  0.5907 -0.0333  0.0964
 8437TIP3   OH246725   5.376   0.842  13.701  0.1606  0.4772  0.0151
 8437TIP3    H146726   5.397   0.857  13.609  0.1616  0.6995  0.0525
 8437TIP3    H246727   5.433   0.902  13.749  0.4319  0.0918  0.1791
 8438TIP3   OH246728   2.811   1.810   1.394  0.1463 -0.4026  0.2283
 8438TIP3    H146729   2.820   1.779   1.304 -0.2148  1.5895 -0.5559
 8438TIP3    H246730   2.724   1.850   1.396  0.2977 -0.1143  1.3680
 8439TIP3   OH246731   1.633   2.791  12.246  0.2154  0.9090 -0.0695
 8439TIP3    H146732   1.632   2.886  12.239 -2.1069  0.8506 -1.6247
 8439TIP3    H246733   1.604   2.760  12.160  2.9804 -1.3239 -0.3273
 8440TIP3   OH246734   0.997   5.446  13.372  0.1867 -0.2573 -0.5105
 8440TIP3    H146735   1.071   5.504  13.393 -0.3930 -0.1739  1.4844
 8440TIP3    H246736   1.025   5.400  13.293  1.6299  1.0582 -0.8205
 8441TIP3   OH246737   0.698   5.366   0.566 -0.1712 -0.0955 -0.0272
 8441TIP3    H146738   0.769   5.429   0.576 -0.3309  0.7963 -3.3290
 8441TIP3    H246739   0.736   5.282   0.589  1.1674  0.7191  0.8124
 8442TIP3   OH246740   1.504   0.908  14.931  0.1897  0.7548 -0.1747
 8442TIP3    H146741   1.447   0.866  14.995  1.8669  0.7552  1.3839
 8442TIP3    H246742   1.478   0.870  14.847  0.7512 -2.5080  0.9972
 8443TIP3   OH246743   3.896   6.673   4.400  0.3743 -0.2817  0.3160
 8443TIP3    H146744   3.986   6.680   4.431  0.5523  0.9174 -0.3977
 8443TIP3    H246745   3.846   6.645   4.477  1.0222  1.1961  1.3233
 8444TIP3   OH246746   1.911   1.656  13.233 -0.0360  0.3192 -0.3209
 8444TIP3    H146747   1.859   1.734  13.214 -1.0914 -0.6192 -1.5168
 8444TIP3    H246748   1.846   1.590  13.259  0.5293 -0.8473 -1.7538
 8445TIP3   OH246749   5.125   4.726   3.800  0.1054 -0.3873 -0.1606
 8445TIP3    H146750   5.102   4.654   3.859 -0.2049 -0.0459  0.1429
 8445TIP3    H246751   5.059   4.722   3.731  0.7837 -1.1218 -0.7926
 8446TIP3   OH246752   1.891   7.098   3.658  0.1225  0.0172 -0.1966
 8446TIP3    H146753   1.866   7.015   3.617  0.9371 -0.9978  1.2819
 8446TIP3    H246754   1.944   7.142   3.591  0.7981 -1.2622 -0.5435
 8447TIP3   OH246755   6.337   4.853  15.269 -0.3655  0.2945  0.3306
 8447TIP3    H146756   6.349   4.893  15.183  2.9724 -0.8478  0.1193
 8447TIP3    H246757   6.389   4.909  15.329 -1.6020  0.3500  1.3990
 8448TIP3   OH246758   0.143   0.127   9.475  0.2627  0.1165  0.0146
 8448TIP3    H146759   0.186   0.190   9.417  0.4682 -1.0978 -1.2153
 8448TIP3    H246760   0.215   0.083   9.519  0.2663 -0.8771 -0.9249
 8449TIP3   OH246761   4.137   2.894  12.052  0.0960  0.0962  0.3510
 8449TIP3    H146762   4.112   2.986  12.046  0.1655  0.3423  2.8267
 8449TIP3    H246763   4.230   2.893  12.029 -0.3838  0.2781 -1.7521
 8450TIP3   OH246764   4.225   2.885   0.567 -0.6390 -0.3900  0.7001
 8450TIP3    H146765   4.224   2.973   0.528 -1.0390 -0.4202  0.6310
 8450TIP3    H246766   4.298   2.886   0.628 -1.9066  0.6722  2.2572
 8451TIP3   OH246767   3.767   1.160   4.599 -0.3433  0.7770  0.0893
 8451TIP3    H146768   3.840   1.206   4.557  2.4869 -1.1763  2.5103
 8451TIP3    H246769   3.711   1.134   4.526  2.2542  0.9085 -2.1333
 8452TIP3   OH246770   4.327   3.374  12.737  0.2295 -0.1003  0.9000
 8452TIP3    H146771   4.246   3.378  12.788  0.1447 -1.6881  0.9525
 8452TIP3    H246772   4.333   3.459  12.695 -3.4403 -1.0343 -2.0698
 8453TIP3   OH246773   5.463   5.849   3.962 -0.5032 -0.2910 -0.2279
 8453TIP3    H146774   5.375   5.881   3.983 -0.9606 -0.1612 -2.1831
 8453TIP3    H246775   5.476   5.872   3.870  2.3523  1.4455  0.4637
 8454TIP3   OH246776   0.148   1.440  14.917 -0.6475  1.1317 -0.0450
 8454TIP3    H146777   0.180   1.483  14.997  0.2368 -0.2253  0.3828
 8454TIP3    H246778   0.215   1.459  14.851 -1.3089  2.1353 -0.4516
 8455TIP3   OH246779   4.385   1.457   0.616  0.1214  0.6739  0.4363
 8455TIP3    H146780   4.400   1.373   0.573 -0.7800  0.7240  0.0013
 8455TIP3    H246781   4.416   1.444   0.705 -1.6241 -0.7144  0.9085
 8456TIP3   OH246782   3.521   2.887   0.309  0.2039 -0.0914  0.0590
 8456TIP3    H146783   3.611   2.874   0.340  0.2373  0.3671  0.1739
 8456TIP3    H246784   3.521   2.978   0.276 -0.3920  0.1406  0.6870
 8457TIP3   OH246785   2.328   6.762  12.380 -0.5996 -0.0273  0.4879
 8457TIP3    H146786   2.325   6.736  12.288 -1.5137 -0.0942  0.5314
 8457TIP3    H246787   2.400   6.711  12.416  0.9934  1.3430 -0.5808
 8458TIP3   OH246788   0.217   5.437  14.369 -0.4680 -0.2257 -0.0654
 8458TIP3    H146789   0.287   5.464  14.429 -0.3361  0.1811 -0.4068
 8458TIP3    H246790   0.262   5.405  14.291 -0.6504 -0.4972 -0.0641
 8459TIP3   OH246791   1.670   6.622  10.608  0.3320 -0.3519  0.0121
 8459TIP3    H146792   1.683   6.661  10.522 -1.1828  2.2203  0.8638
 8459TIP3    H246793   1.656   6.696  10.667  0.2991 -2.0739  2.3120
 8460TIP3   OH246794   7.034   2.678  14.059  0.3663 -0.4428  0.0628
 8460TIP3    H146795   7.051   2.604  14.117 -0.5072 -1.0848 -0.4720
 8460TIP3    H246796   6.939   2.688  14.060 -0.0859 -2.5622 -3.6785
 8461TIP3   OH246797   7.099   4.504   4.687 -0.2513  0.3997 -0.0058
 8461TIP3    H146798   7.117   4.418   4.648  1.2408 -0.2017  1.8647
 8461TIP3    H246799   7.156   4.565   4.640  0.1133  0.0307 -0.0409
 8462TIP3   OH246800   1.988   4.279  14.424  0.2755 -0.1504  0.4997
 8462TIP3    H146801   1.918   4.262  14.360  1.0768  1.4167 -0.8655
 8462TIP3    H246802   1.941   4.303  14.504 -0.7487 -1.4936  0.3431
 8463TIP3   OH246803   2.613   3.657  14.266  0.2664 -0.0995  0.4306
 8463TIP3    H146804   2.564   3.650  14.349 -0.1242  0.7192  0.2771
 8463TIP3    H246805   2.683   3.719  14.285  1.2895 -1.3038  0.6595
 8464TIP3   OH246806   1.576   4.634   1.622 -0.1091  0.3042  0.1775
 8464TIP3    H146807   1.644   4.693   1.652  1.0044  0.9815 -3.2522
 8464TIP3    H246808   1.506   4.691   1.591  0.0600 -0.1900 -1.1783
 8465TIP3   OH246809   4.290   1.174   4.432  0.7131  0.2319  0.1158
 8465TIP3    H146810   4.386   1.181   4.439  0.9164  1.5927 -2.7097
 8465TIP3    H246811   4.274   1.085   4.403  0.9202 -0.5316  2.1476
 8466TIP3   OH246812   4.983   3.993  13.583 -0.2466 -0.5015 -0.4373
 8466TIP3    H146813   4.931   3.958  13.511 -0.2307 -1.5024  0.0358
 8466TIP3    H246814   5.007   3.917  13.636  0.4236  0.1241  0.1855
 8467TIP3   OH246815   0.108   5.648  12.753 -0.1453 -0.0208 -0.8311
 8467TIP3    H146816   0.151   5.589  12.691  2.1433 -2.1079  2.4294
 8467TIP3    H246817   0.150   5.733  12.740  1.7517 -0.9233 -0.8329
 8468TIP3   OH246818   4.671   1.312   5.146 -0.1260  0.4409 -0.3841
 8468TIP3    H146819   4.624   1.230   5.164  2.6631 -1.0280  0.7966
 8468TIP3    H246820   4.635   1.374   5.211 -0.6650 -0.5212  0.2665
 8469TIP3   OH246821   5.164   3.694  15.338 -0.0165 -0.6326  0.2645
 8469TIP3    H146822   5.086   3.740  15.369  0.4570 -0.0537  0.6114
 8469TIP3    H246823   5.159   3.608  15.380  0.3422 -0.0459  1.5638
 8470TIP3   OH246824   6.469   0.146   9.408 -0.0606 -0.3904 -0.7067
 8470TIP3    H146825   6.481   0.169   9.500  0.7000 -1.4786 -0.5211
 8470TIP3    H246826   6.542   0.188   9.363 -0.3391  0.0012 -0.8052
 8471TIP3   OH246827   6.242   3.520   2.157 -0.0099  1.0546 -0.3043
 8471TIP3    H146828   6.261   3.486   2.070 -3.3929  1.1296 -1.2027
 8471TIP3    H246829   6.228   3.443   2.211  1.4122  1.0231  0.0732
 8472TIP3   OH246830   0.907   1.101  14.020 -0.1134  0.8449 -0.4417
 8472TIP3    H146831   0.972   1.100  13.950  0.2118  2.8791 -0.2271
 8472TIP3    H246832   0.825   1.080  13.976  0.3829  0.1264 -1.0551
 8473TIP3   OH246833   6.683   5.679   1.562 -0.4322  0.2574  0.5092
 8473TIP3    H146834   6.636   5.678   1.478 -0.8939 -1.0770  0.7676
 8473TIP3    H246835   6.771   5.649   1.540  0.3195  2.5787  0.0578
 8474TIP3   OH246836   4.812   5.344  13.088  0.4244  0.8250 -0.2973
 8474TIP3    H146837   4.815   5.439  13.103 -0.4922  0.8604 -0.2566
 8474TIP3    H246838   4.733   5.316  13.134 -0.9289  0.4949 -2.6732
 8475TIP3   OH246839   2.758   5.146  11.395 -0.4041 -0.1914  0.1849
 8475TIP3    H146840   2.775   5.188  11.479  1.3411  0.0959 -0.2538
 8475TIP3    H246841   2.687   5.197  11.356 -1.0957 -0.2077  1.3733
 8476TIP3   OH246842   5.416   4.794   0.895 -0.0615 -0.0402  0.0661
 8476TIP3    H146843   5.417   4.890   0.892  0.2710 -0.0383  0.1388
 8476TIP3    H246844   5.502   4.771   0.931 -0.0399 -0.3753 -0.2033
 8477TIP3   OH246845   3.912   3.820  13.617  0.0263 -0.3816 -0.3835
 8477TIP3    H146846   3.893   3.746  13.675  0.0710  0.4279  0.6757
 8477TIP3    H246847   3.978   3.871  13.663  0.1933  0.1798 -1.2300
 8478TIP3   OH246848   4.199   3.279  10.497 -0.3806 -0.0179 -0.0633
 8478TIP3    H146849   4.154   3.363  10.486 -0.7673  0.0748  1.8266
 8478TIP3    H246850   4.129   3.215  10.509 -0.0853 -0.0567  1.7641
 8479TIP3   OH246851   6.972   5.090  14.185  0.1080 -0.8318 -0.1171
 8479TIP3    H146852   6.971   5.089  14.281  0.9992  0.3192 -0.0678
 8479TIP3    H246853   6.908   5.024  14.160 -0.8068 -0.5212  1.2679
 8480TIP3   OH246854   3.733   3.948  11.424  0.1709 -0.2752  0.7779
 8480TIP3    H146855   3.653   3.918  11.467  0.6742 -1.5520  0.8762
 8480TIP3    H246856   3.795   3.877  11.438  0.8352 -0.0122 -0.6721
 8481TIP3   OH246857   1.812   2.376  10.375  0.9453 -0.0631 -0.1282
 8481TIP3    H146858   1.725   2.415  10.368  0.8043 -0.2728  0.4315
 8481TIP3    H246859   1.856   2.401  10.294 -0.2538 -1.4708 -1.2762
 8482TIP3   OH246860   1.344   1.995  15.304  1.1419  0.2390  0.7599
 8482TIP3    H146861   1.340   2.085  15.271  0.5716  0.1046  0.4562
 8482TIP3    H246862   1.381   1.946  15.231  0.1583 -0.0078  0.4168
 8483TIP3   OH246863   3.300   3.974  15.485 -0.5633 -0.0419 -0.1602
 8483TIP3    H146864   3.393   3.995  15.489 -0.8354  0.9801  1.3099
 8483TIP3    H246865   3.255   4.058  15.492 -1.6094 -0.6310  0.5659
 8484TIP3   OH246866   6.183   0.937   4.453  0.0532 -0.0665  0.2136
 8484TIP3    H146867   6.229   1.012   4.491 -1.1950  0.4374  0.8058
 8484TIP3    H246868   6.107   0.925   4.511 -1.5996  0.3356 -1.7565
 8485TIP3   OH246869   4.360   3.797  13.271  0.4304 -0.0438  0.3361
 8485TIP3    H146870   4.297   3.777  13.340  1.4985  0.0463  1.3735
 8485TIP3    H246871   4.433   3.736  13.285  0.1499 -0.8721 -1.4941
 8486TIP3   OH246872   4.781   4.395   3.415 -0.0918  0.2331 -0.1728
 8486TIP3    H146873   4.836   4.450   3.359 -1.3669  1.2061 -0.5132
 8486TIP3    H246874   4.826   4.311   3.418  0.7358  0.6027 -1.4896
 8487TIP3   OH246875   5.994   5.138  10.814  0.0182 -0.2024 -0.1541
 8487TIP3    H146876   5.923   5.109  10.871 -0.4039  0.7278 -0.1872
 8487TIP3    H246877   5.959   5.216  10.771  0.3760 -0.7878 -1.5677
 8488TIP3   OH246878   1.601   4.540  11.063 -0.1120  0.4853 -0.0600
 8488TIP3    H146879   1.624   4.526  10.971  0.0994 -0.7893  0.1694
 8488TIP3    H246880   1.684   4.526  11.110 -0.2783  0.8624  0.3497
 8489TIP3   OH246881   4.517   0.231   1.755  0.2670 -0.6429 -0.7055
 8489TIP3    H146882   4.541   0.276   1.673 -0.2979  0.1673 -0.4367
 8489TIP3    H246883   4.540   0.293   1.824  1.0817 -1.4674 -0.2061
 8490TIP3   OH246884   2.297   5.927   2.688 -0.1196 -0.2026  0.2526
 8490TIP3    H146885   2.330   6.007   2.648  2.2546 -2.6986 -3.3976
 8490TIP3    H246886   2.204   5.925   2.665 -0.4914  1.9141  1.3564
 8491TIP3   OH246887   4.758   4.722  10.881 -0.1813  0.8173 -0.5251
 8491TIP3    H146888   4.726   4.780  10.812  0.8999  1.3735 -0.5746
 8491TIP3    H246889   4.842   4.760  10.908  1.3555 -1.5402 -1.6189
 8492TIP3   OH246890   3.724   5.716   2.466 -0.4237 -0.0233 -0.6843
 8492TIP3    H146891   3.750   5.807   2.482 -0.3045  0.0541 -1.2614
 8492TIP3    H246892   3.796   5.664   2.501 -0.2479  0.1265 -0.8194
 8493TIP3   OH246893   4.513   3.025  14.413 -0.4513  0.0500  0.4801
 8493TIP3    H146894   4.596   2.981  14.435 -0.5075  0.2344  1.0802
 8493TIP3    H246895   4.469   2.963  14.355 -0.2976 -0.4618  0.8969
 8494TIP3   OH246896   0.145   7.116  11.678 -0.5315 -0.5835  0.1205
 8494TIP3    H146897   0.088   7.158  11.614 -0.7580  1.5017  1.6033
 8494TIP3    H246898   0.085   7.078  11.742 -0.2767 -0.5014  0.4094
 8495TIP3   OH246899   0.976   3.197   5.148 -0.4707  0.0391  0.1141
 8495TIP3    H146900   1.042   3.267   5.155  0.2137 -0.4190 -1.3766
 8495TIP3    H246901   0.905   3.227   5.204 -0.9071  2.7851 -1.6955
 8496TIP3   OH246902   5.543   3.310  11.713 -0.0731 -0.4620  0.0179
 8496TIP3    H146903   5.623   3.259  11.724 -0.1167 -0.7134 -0.7771
 8496TIP3    H246904   5.573   3.398  11.692  0.0101 -0.0132  1.8090
 8497TIP3   OH246905   0.414   0.100  14.864 -0.3510 -0.6370  0.3018
 8497TIP3    H146906   0.341   0.054  14.824  0.1469 -0.4298 -0.9174
 8497TIP3    H246907   0.480   0.032  14.881 -0.1580 -0.5869 -0.2171
 8498TIP3   OH246908   0.072   3.374   0.180  0.0496 -0.4787  0.1699
 8498TIP3    H146909   0.072   3.441   0.249  1.3512 -2.0491  1.8043
 8498TIP3    H246910  -0.002   3.318   0.202  0.3362 -0.8585  0.1836
 8499TIP3   OH246911   1.670   1.093   1.504 -0.0237 -0.0406  0.2141
 8499TIP3    H146912   1.578   1.068   1.492 -0.0421  0.8803 -1.9041
 8499TIP3    H246913   1.699   1.040   1.578 -1.0775 -3.5917 -1.6983
 8500TIP3   OH246914   4.571   3.659   9.573  0.3896  0.4825 -0.2313
 8500TIP3    H146915   4.648   3.640   9.519 -1.0815  1.2168 -2.7892
 8500TIP3    H246916   4.590   3.744   9.612  0.9566  0.5568 -0.6509
 8501TIP3   OH246917   3.016   3.762  13.931  0.1031  0.2507 -0.4354
 8501TIP3    H146918   2.927   3.728  13.929  0.3745 -0.4974  0.0046
 8501TIP3    H246919   3.012   3.836  13.992  0.4407 -1.8132  2.2844
 8502TIP3   OH246920   2.965   3.129  12.949  0.0843 -0.0133  0.2883
 8502TIP3    H146921   3.049   3.172  12.932 -0.0423  0.3101  0.4650
 8502TIP3    H246922   2.979   3.038  12.923  0.1559  0.2724 -0.7518
 8503TIP3   OH246923   2.622   3.345   1.610  1.0186  0.0140  0.5928
 8503TIP3    H146924   2.693   3.283   1.590  0.8808  0.2355 -0.6288
 8503TIP3    H246925   2.624   3.409   1.539  1.2053  1.4948  1.8763
 8504TIP3   OH246926   7.056   1.284   9.566  0.0677  0.0622  0.7508
 8504TIP3    H146927   7.007   1.328   9.635  0.7847 -0.0700  1.3662
 8504TIP3    H246928   7.003   1.295   9.488 -1.3678 -0.8311  1.5506
 8505TIP3   OH246929   6.783   3.399   0.131  0.1106  0.2306 -0.3310
 8505TIP3    H146930   6.813   3.324   0.183  0.3361 -0.3206 -1.2274
 8505TIP3    H246931   6.825   3.387   0.045 -0.8153  0.7264 -0.8721
 8506TIP3   OH246932   0.844   5.198  13.649 -0.1097 -0.2758 -0.4133
 8506TIP3    H146933   0.896   5.268  13.688  0.1605  0.2437 -1.6669
 8506TIP3    H246934   0.761   5.201  13.696  0.1077  0.5043 -0.0557
 8507TIP3   OH246935   6.021   0.181  14.135  0.1666 -0.1324  0.3744
 8507TIP3    H146936   5.946   0.127  14.160  0.4690  0.0768  1.8259
 8507TIP3    H246937   5.983   0.265  14.110 -0.1601 -0.3953 -0.0306
 8508TIP3   OH246938   6.737   7.004   3.951 -0.0506  0.1307  0.3414
 8508TIP3    H146939   6.810   6.960   3.995 -0.1495 -0.3322  0.0508
 8508TIP3    H246940   6.765   7.013   3.860 -0.2913  0.0959  0.2631
 8509TIP3   OH246941   5.001   4.569  11.931 -0.1667 -0.1914  0.0098
 8509TIP3    H146942   5.024   4.661  11.941 -0.2578 -0.2961  1.3626
 8509TIP3    H246943   4.933   4.568  11.864  1.5322  0.4452 -1.8052
 8510TIP3   OH246944   5.545   4.301   0.217  0.2855 -0.0890  0.2654
 8510TIP3    H146945   5.561   4.297   0.311 -0.4186 -2.7256  0.3381
 8510TIP3    H246946   5.580   4.219   0.183  0.8127  0.9393 -1.8615
 8511TIP3   OH246947   0.870   0.964  10.162  0.2340  0.2822  0.7756
 8511TIP3    H146948   0.954   1.001  10.135  0.0246  0.2667  0.0747
 8511TIP3    H246949   0.882   0.869  10.154 -0.4421  0.3290 -1.2213
 8512TIP3   OH246950   7.088   4.774   0.925  0.1546 -0.0242  0.0746
 8512TIP3    H146951   7.063   4.843   0.863  0.7761  0.5552  0.4540
 8512TIP3    H246952   7.181   4.788   0.941  0.2406 -0.8288  0.3222
 8513TIP3   OH246953   5.650   4.934  13.930 -0.1385  0.4483 -0.1893
 8513TIP3    H146954   5.614   5.022  13.941 -1.4166 -0.0480 -0.2277
 8513TIP3    H246955   5.609   4.900  13.851  0.1389 -0.2771 -0.0344
 8514TIP3   OH246956   3.648   6.661  11.911 -0.1317  0.1245  0.0668
 8514TIP3    H146957   3.626   6.718  11.984 -0.2536 -1.0116  0.9364
 8514TIP3    H246958   3.606   6.702  11.835  0.4216  1.6011  0.5148
 8515TIP3   OH246959   3.359   3.408  13.336 -0.2362  0.3397 -0.0413
 8515TIP3    H146960   3.319   3.491  13.361 -1.6777 -0.8386  1.8171
 8515TIP3    H246961   3.412   3.382  13.412  1.7069  0.3892 -1.2976
 8516TIP3   OH246962   1.538   1.785   9.880  0.1601 -0.8342  0.1748
 8516TIP3    H146963   1.507   1.698   9.857 -0.4491 -0.6366  0.2159
 8516TIP3    H246964   1.610   1.803   9.820 -1.0324 -0.5468 -1.2179
 8517TIP3   OH246965   0.097   4.140   0.898  0.5690 -0.3467 -0.0394
 8517TIP3    H146966   0.143   4.059   0.921 -0.8597 -1.3428 -0.5632
 8517TIP3    H246967   0.008   4.112   0.877  0.2209  1.2828 -0.8947
 8518TIP3   OH246968   3.929   3.362  11.433  0.1569  0.1991  0.0026
 8518TIP3    H146969   4.015   3.323  11.448 -0.2971 -0.5547  0.7373
 8518TIP3    H246970   3.918   3.424  11.505 -0.8204 -1.3262  1.2266
 8519TIP3   OH246971   6.716   6.141   4.138  0.6615  0.0765 -0.0699
 8519TIP3    H146972   6.698   6.232   4.163 -0.4051 -0.0117 -0.4627
 8519TIP3    H246973   6.809   6.129   4.158  0.4525  0.7737  1.4887
 8520TIP3   OH246974   1.906   1.496  14.679 -0.0150 -0.1798  0.2530
 8520TIP3    H146975   1.947   1.411  14.663  1.7343  0.5894  0.4271
 8520TIP3    H246976   1.920   1.512  14.772 -2.0056 -0.5096  0.6502
 8521TIP3   OH246977   2.189   6.107  15.085 -0.0100 -0.0133  0.1318
 8521TIP3    H146978   2.191   6.101  14.989  0.3229 -1.6585  0.2118
 8521TIP3    H246979   2.280   6.120  15.110  0.7544 -4.2598  0.3679
 8522TIP3   OH246980   7.101   5.514  13.910  0.3933 -0.5528  0.1004
 8522TIP3    H146981   7.070   5.598  13.944  0.5111  0.1310 -1.4024
 8522TIP3    H246982   7.169   5.486  13.971  1.9472  1.5701 -0.5626
 8523TIP3   OH246983   4.705   7.090   4.865  0.0732 -0.5378 -0.2328
 8523TIP3    H146984   4.717   7.182   4.888  0.9682 -1.2126  2.3446
 8523TIP3    H246985   4.640   7.091   4.795 -0.4986  2.0039  0.2363
 8524TIP3   OH246986   3.000   4.384  11.664 -0.3070 -0.2434  0.1284
 8524TIP3    H146987   2.929   4.320  11.667 -1.4229  0.9695  0.4596
 8524TIP3    H246988   2.989   4.436  11.744 -0.9340  1.8765 -1.2438
 8525TIP3   OH246989   0.601   0.053   1.419 -0.2637 -0.2415 -0.1538
 8525TIP3    H146990   0.600   0.023   1.328 -2.7102  0.1640 -0.3356
 8525TIP3    H246991   0.693   0.050   1.445  0.4163 -0.9068 -2.4523
 8526TIP3   OH246992   4.059   5.868  15.067  0.4389 -0.5209  0.0272
 8526TIP3    H146993   4.081   5.868  14.974 -0.2048 -0.0645 -0.1295
 8526TIP3    H246994   4.140   5.843  15.111  1.3301  1.2050 -0.5308
 8527TIP3   OH246995   6.140   6.345  10.542 -0.2748  0.4309  0.2242
 8527TIP3    H146996   6.138   6.331  10.448 -0.3709 -1.5092  0.4775
 8527TIP3    H246997   6.215   6.405  10.555  0.8979 -0.7152 -0.9249
 8528TIP3   OH246998   2.198   1.162   2.853  0.0161 -0.5330  0.1773
 8528TIP3    H146999   2.253   1.219   2.907 -0.9206  0.7938 -0.2215
 8528TIP3    H247000   2.146   1.111   2.916  1.4661 -1.6248  0.5535
 8529TIP3   OH247001   2.916   0.083  11.921  0.0209 -0.1376  0.1329
 8529TIP3    H147002   2.977   0.033  11.976  0.2424  0.3463  0.3301
 8529TIP3    H247003   2.831   0.070  11.961  0.2666  0.6976  0.9457
 8530TIP3   OH247004   4.247   6.682  13.584  0.3761 -0.2925 -0.0171
 8530TIP3    H147005   4.184   6.664  13.654 -0.3552 -0.1687 -0.6286
 8530TIP3    H247006   4.223   6.769  13.553 -0.3718 -0.9971 -1.5147
 8531TIP3   OH247007   3.265   5.087   5.328 -0.0411  0.3447  0.8747
 8531TIP3    H147008   3.237   5.046   5.410  0.3381  0.7812  1.2206
 8531TIP3    H247009   3.355   5.115   5.344 -0.6053  2.2122  0.9840
 8532TIP3   OH247010   6.163   6.192  11.792  0.2551  0.3108 -0.5660
 8532TIP3    H147011   6.226   6.175  11.723  0.7790 -1.3088  0.2479
 8532TIP3    H247012   6.216   6.203  11.871 -0.3303  2.1349 -0.3744
 8533TIP3   OH247013   1.397   6.251  14.143 -0.1135 -1.0006  0.7223
 8533TIP3    H147014   1.346   6.285  14.069  1.8907 -1.0580 -0.7751
 8533TIP3    H247015   1.371   6.305  14.217 -1.1417  0.0137 -0.3382
 8534TIP3   OH247016   3.690   6.995  15.009  0.5405 -0.0529  0.2350
 8534TIP3    H147017   3.740   6.991  14.927 -1.8508 -0.1678 -1.2968
 8534TIP3    H247018   3.633   6.918  15.006 -0.3188  0.5104  1.5001
 8535TIP3   OH247019   1.687   5.445  11.438  0.0794  0.0950 -0.3624
 8535TIP3    H147020   1.651   5.509  11.500 -2.1941  1.4576 -2.8882
 8535TIP3    H247021   1.635   5.366  11.453  1.3029 -0.4824  1.1461
 8536TIP3   OH247022   1.524   2.828   4.382  0.4653  0.4580  0.3790
 8536TIP3    H147023   1.467   2.767   4.427  1.5919 -0.4659  0.6033
 8536TIP3    H247024   1.473   2.909   4.375 -1.6462 -0.9236 -1.3077
 8537TIP3   OH247025   3.544   1.326   3.406  0.3986 -0.7482 -0.2237
 8537TIP3    H147026   3.617   1.263   3.404  0.9613 -0.1389  0.4701
 8537TIP3    H247027   3.564   1.383   3.480  0.2715  0.7126 -1.2752
 8538TIP3   OH247028   1.929   5.839   4.528 -0.7774 -0.0058  0.2469
 8538TIP3    H147029   2.015   5.875   4.550 -1.2515  0.2386  1.8075
 8538TIP3    H247030   1.945   5.748   4.505 -0.1367 -0.0730  0.9351
 8539TIP3   OH247031   5.762   4.774   2.348 -0.5966  0.1858 -0.4720
 8539TIP3    H147032   5.683   4.791   2.400 -0.0580  1.1746  0.0306
 8539TIP3    H247033   5.819   4.849   2.364  0.8451 -0.9379 -0.1029
 8540TIP3   OH247034   0.622   4.580  12.259  0.0740 -0.3759  0.0388
 8540TIP3    H147035   0.540   4.532  12.245  0.1741 -0.2337 -1.0453
 8540TIP3    H247036   0.680   4.550  12.190  0.2318  1.1110 -0.5073
 8541TIP3   OH247037   3.873   5.574  11.873  0.1114 -0.4748  0.0832
 8541TIP3    H147038   3.841   5.665  11.874  0.1648 -0.4584  0.7251
 8541TIP3    H247039   3.851   5.542  11.786  2.2566  0.9222 -1.0596
 8542TIP3   OH247040   1.637   5.613  13.205  0.1695  0.5330  0.3508
 8542TIP3    H147041   1.660   5.541  13.263  0.9280 -0.9385 -1.6853
 8542TIP3    H247042   1.678   5.690  13.245 -0.6453 -0.0944  2.5490
 8543TIP3   OH247043   6.124   1.745  10.250 -0.6063 -0.3768  0.4522
 8543TIP3    H147044   6.106   1.833  10.285  0.0413 -0.2766  0.5321
 8543TIP3    H247045   6.037   1.711  10.226 -0.7548  0.8489 -0.9269
 8544TIP3   OH247046   3.608   0.370  13.873  0.5657  0.1708  0.5487
 8544TIP3    H147047   3.622   0.315  13.950 -0.2433  1.2347  1.4794
 8544TIP3    H247048   3.694   0.408  13.855  1.4954 -2.3691 -0.9511
 8545TIP3   OH247049   4.444   3.574  12.581 -0.3075  0.0593 -0.1692
 8545TIP3    H147050   4.513   3.598  12.643  0.2045  0.5994 -0.9353
 8545TIP3    H247051   4.491   3.540  12.505 -0.8958  0.1588 -0.5805
 8546TIP3   OH247052   5.783   5.598  14.527  0.0908 -0.0938  0.2492
 8546TIP3    H147053   5.701   5.640  14.552 -1.1444 -3.5042  2.5477
 8546TIP3    H247054   5.840   5.611  14.603  0.1001 -1.4330  0.4929
 8547TIP3   OH247055   6.931   1.723   0.917 -0.2985  0.3945 -0.3421
 8547TIP3    H147056   6.894   1.635   0.907  0.0231  0.1782  0.3189
 8547TIP3    H247057   6.865   1.771   0.967 -0.5624  0.5953 -0.8717
 8548TIP3   OH247058   5.252   2.372   1.158 -0.1770  0.0885 -0.3855
 8548TIP3    H147059   5.320   2.409   1.214 -0.3139 -1.4528  0.9022
 8548TIP3    H247060   5.289   2.289   1.127 -1.5776 -1.0506  0.7674
 8549TIP3   OH247061   4.118   4.473  10.234 -0.2339  0.2814  0.5622
 8549TIP3    H147062   4.166   4.552  10.208  0.9648 -0.8354 -0.8150
 8549TIP3    H247063   4.179   4.425  10.289 -0.8242  0.1271  1.0959
 8550TIP3   OH247064   7.032   7.075  10.172 -0.3401 -0.0082 -0.1776
 8550TIP3    H147065   7.093   7.101  10.103 -0.4487 -2.5423 -1.3284
 8550TIP3    H247066   6.948   7.112  10.145  0.1593  1.4959  0.1964
 8551TIP3   OH247067   0.850   3.144  11.775 -0.0539  0.0892  0.0473
 8551TIP3    H147068   0.780   3.208  11.792 -0.8314 -0.7829  0.2587
 8551TIP3    H247069   0.822   3.066  11.824  1.4578 -0.0357  0.7411
 8552TIP3   OH247070   2.646   5.192   2.525 -0.1794 -0.3841  0.2651
 8552TIP3    H147071   2.551   5.183   2.540 -0.2546 -1.3503 -0.6595
 8552TIP3    H247072   2.686   5.164   2.607 -0.6441 -2.6583 -0.2136
 8553TIP3   OH247073   4.814   1.393  13.270 -0.4978  0.1256 -0.9308
 8553TIP3    H147074   4.907   1.404  13.288 -0.7558 -0.2602  0.7893
 8553TIP3    H247075   4.803   1.299  13.258 -0.8212  0.0388 -0.0464
 8554TIP3   OH247076   0.023   6.262  12.340  0.4677 -0.0675  0.0153
 8554TIP3    H147077  -0.053   6.296  12.294  1.0707  1.0180 -0.2184
 8554TIP3    H247078  -0.010   6.186  12.388 -1.2680  1.5277  1.5655
 8555TIP3   OH247079   3.568   2.264  11.859 -0.3592  0.5960  0.0703
 8555TIP3    H147080   3.544   2.301  11.944  1.2473  1.0180  0.3652
 8555TIP3    H247081   3.626   2.329  11.820  0.8281 -0.6485 -0.3166
 8556TIP3   OH247082   3.750   2.383  15.442 -0.6272 -0.2697 -0.7063
 8556TIP3    H147083   3.837   2.353  15.414 -0.0809  0.4351  0.2024
 8556TIP3    H247084   3.766   2.435  15.520 -2.1388 -2.3992  1.1329
 8557TIP3   OH247085   2.655   5.261  10.607  0.4973  0.3324 -0.2431
 8557TIP3    H147086   2.649   5.289  10.515 -0.8392 -0.3824 -0.4062
 8557TIP3    H247087   2.743   5.224  10.615  0.1957 -0.8182 -1.6287
 8558TIP3   OH247088   0.105   2.806  14.294  0.6051 -0.2582 -0.2375
 8558TIP3    H147089   0.167   2.877  14.311  0.6156 -0.1685 -0.6474
 8558TIP3    H247090   0.143   2.730  14.338 -0.5063  0.4632  2.1537
 8559TIP3   OH247091   3.727   4.727  12.700 -0.4260 -0.4467 -1.0199
 8559TIP3    H147092   3.670   4.652  12.718 -1.6542  0.2419 -1.9040
 8559TIP3    H247093   3.804   4.689  12.659  0.3983 -1.5472  1.3590
 8560TIP3   OH247094   7.102   3.071   5.605  0.1769 -0.6590  0.9791
 8560TIP3    H147095   7.042   3.131   5.561 -0.3959 -0.2507  2.2532
 8560TIP3    H247096   7.047   3.028   5.672  0.7927 -1.9217  0.6998
 8561TIP3   OH247097   2.575   2.147   4.294 -0.5144  0.0736  0.5442
 8561TIP3    H147098   2.501   2.167   4.352 -1.0173  0.9859 -0.3766
 8561TIP3    H247099   2.642   2.211   4.319 -1.3719  1.6638 -1.0122
 8562TIP3   OH247100   4.012   4.167   0.053  0.1337 -0.1022 -0.0564
 8562TIP3    H147101   4.080   4.228   0.079  1.1240 -0.2005 -2.1617
 8562TIP3    H247102   3.930   4.215   0.064  0.8808  1.7256 -1.7532
 8563TIP3   OH247103   1.787   1.082  14.241  0.3279 -0.4202  0.0705
 8563TIP3    H147104   1.733   1.128  14.305  0.5064  1.2670 -0.9508
 8563TIP3    H247105   1.839   1.021  14.294 -0.1834  0.2686  1.4169
 8564TIP3   OH247106   1.316   1.567   0.954 -0.2543 -0.5656 -0.6843
 8564TIP3    H147107   1.229   1.542   0.985 -0.0219  1.4654  1.9207
 8564TIP3    H247108   1.299   1.636   0.890 -0.5504 -1.4829 -1.6472
 8565TIP3   OH247109   6.064   5.138   3.096 -0.0637 -0.1035  0.4960
 8565TIP3    H147110   6.137   5.177   3.048  0.2856 -1.7719 -0.4336
 8565TIP3    H247111   5.990   5.145   3.036 -0.2138 -0.0584  0.6862
 8566TIP3   OH247112   4.141   1.795   3.120  0.2034  0.2698  0.3787
 8566TIP3    H147113   4.172   1.867   3.065  0.3458 -0.2949 -0.2923
 8566TIP3    H247114   4.147   1.829   3.210  0.8611  0.8704  0.1155
 8567TIP3   OH247115   1.269   4.998  13.489 -0.1941 -0.0757  0.0308
 8567TIP3    H147116   1.201   4.952  13.538  0.3271 -2.6293 -1.4836
 8567TIP3    H247117   1.221   5.045  13.421 -0.5838  0.0858  0.4090
 8568TIP3   OH247118   6.586   6.484  14.827  0.7753  0.2179 -0.1332
 8568TIP3    H147119   6.647   6.476  14.754  0.8068  3.4141 -0.6385
 8568TIP3    H247120   6.502   6.504  14.786  0.7711  1.9669  0.6108
 8569TIP3   OH247121   0.763   5.526   0.182  0.3531  0.1669 -0.5132
 8569TIP3    H147122   0.853   5.543   0.210  0.5258  0.9503 -1.5147
 8569TIP3    H247123   0.743   5.439   0.217  0.9519  0.6127  1.0318
 8570TIP3   OH247124   2.166   2.800  10.660 -0.1011 -0.6998  0.3166
 8570TIP3    H147125   2.197   2.768  10.575 -0.6809 -0.1226 -0.1220
 8570TIP3    H247126   2.162   2.895  10.650  0.9174 -0.5235  1.3671
 8571TIP3   OH247127   4.087   1.728  11.493  0.0654  0.2505 -0.3900
 8571TIP3    H147128   4.088   1.678  11.411 -1.6569  1.4817 -1.2307
 8571TIP3    H247129   4.138   1.807  11.473  0.3728  0.1533  0.0085
 8572TIP3   OH247130   4.125   3.389   2.182  0.5833  0.1079 -0.7824
 8572TIP3    H147131   4.191   3.349   2.125  0.1094 -1.8313 -0.0403
 8572TIP3    H247132   4.097   3.319   2.240  1.1160  1.9898  1.9807
 8573TIP3   OH247133   5.888   0.344  10.418  0.4834  0.5466  0.1516
 8573TIP3    H147134   5.860   0.368  10.507  3.5723  0.1017  1.3711
 8573TIP3    H247135   5.853   0.413  10.362  0.0874  1.9403  2.0198
 8574TIP3   OH247136   3.314   2.907   0.041  0.0067  0.1600  0.2411
 8574TIP3    H147137   3.267   2.828   0.069  0.8447 -0.6610 -0.5959
 8574TIP3    H247138   3.406   2.888   0.059  0.0448  1.8350  2.0499
 8575TIP3   OH247139   6.493   2.097   2.599 -0.2903  0.0621  0.4612
 8575TIP3    H147140   6.424   2.123   2.538  1.0984  1.6951 -0.5026
 8575TIP3    H247141   6.495   2.166   2.665  0.5926  0.2091  0.3041
 8576TIP3   OH247142   7.142   6.933   4.318 -0.2730 -0.0280 -0.1206
 8576TIP3    H147143   7.200   6.908   4.245  0.0964 -4.3393  1.3321
 8576TIP3    H247144   7.201   6.938   4.394 -1.3152 -1.2826  0.8142
 8577TIP3   OH247145   2.606   1.435   0.067 -0.9083 -0.3890 -0.2350
 8577TIP3    H147146   2.654   1.391   0.137 -0.6239 -1.5816 -1.1514
 8577TIP3    H247147   2.514   1.414   0.084 -0.9013 -0.1392  0.1280
 8578TIP3   OH247148   0.380   3.879  13.191 -0.2300  0.2210 -0.1594
 8578TIP3    H147149   0.410   3.791  13.216 -1.7874 -0.5823 -0.9234
 8578TIP3    H247150   0.394   3.932  13.269  2.4434 -0.2143 -0.2548
 8579TIP3   OH247151   0.148   6.803  14.921  0.4678 -0.7403  0.2569
 8579TIP3    H147152   0.099   6.867  14.870  0.4303  0.0593  1.2542
 8579TIP3    H247153   0.232   6.795  14.876  1.4052  1.8105  1.3337
 8580TIP3   OH247154   0.773   0.625  12.238  0.6458 -0.1665  0.1721
 8580TIP3    H147155   0.831   0.588  12.172 -0.0882 -0.0375 -0.5559
 8580TIP3    H247156   0.725   0.549  12.273  0.8175 -0.1949  0.3503
 8581TIP3   OH247157   4.073   7.019  14.580  1.1376  0.0418  0.3864
 8581TIP3    H147158   4.076   7.022  14.675  0.8372  2.0223  0.3717
 8581TIP3    H247159   3.981   7.008  14.558  1.2069 -0.4193  0.3143
 8582TIP3   OH247160   2.126   6.879  14.111 -0.0313 -0.2499  0.5245
 8582TIP3    H147161   2.153   6.788  14.117 -0.0437 -0.2889  0.0155
 8582TIP3    H247162   2.140   6.914  14.199 -0.2506 -0.8001  0.7801
 8583TIP3   OH247163   2.527   1.774   3.397 -0.3895 -0.7426 -0.4293
 8583TIP3    H147164   2.559   1.791   3.485  2.7629 -1.7896 -1.2191
 8583TIP3    H247165   2.455   1.836   3.385 -0.3085  0.0759  2.5029
 8584TIP3   OH247166   0.174   1.310  10.296 -0.2362  0.3017  0.3440
 8584TIP3    H147167   0.097   1.253  10.294 -0.6678  0.8805  0.1697
 8584TIP3    H247168   0.179   1.347  10.208 -0.6420  1.4149  0.7637
 8585TIP3   OH247169   1.298   4.608  10.227  0.1954 -0.3264 -0.6811
 8585TIP3    H147170   1.301   4.591  10.321  0.9424  2.2374 -0.1616
 8585TIP3    H247171   1.389   4.620  10.201 -0.1547  2.2320 -0.9890
 8586TIP3   OH247172   6.992   2.373  10.495  0.3113 -0.2017  0.2770
 8586TIP3    H147173   6.912   2.398  10.450 -0.6982 -1.6190  1.2163
 8586TIP3    H247174   7.053   2.445  10.476 -1.1388  0.8912 -0.4851
 8587TIP3   OH247175   5.640   0.706  13.463  0.4892 -0.6447 -0.5337
 8587TIP3    H147176   5.706   0.763  13.426  0.2239  0.4894  0.6623
 8587TIP3    H247177   5.564   0.763  13.479  0.4971 -1.1030  1.4421
 8588TIP3   OH247178   2.144   6.334   3.751 -0.0621 -0.2159 -0.2474
 8588TIP3    H147179   2.128   6.303   3.662  0.8756 -1.2371 -0.0852
 8588TIP3    H247180   2.170   6.255   3.799 -0.1098  0.3998  0.8216
 8589TIP3   OH247181   2.451   0.774  12.681  0.4106  0.2450 -0.0961
 8589TIP3    H147182   2.369   0.740  12.645  0.6108  0.3380 -0.6572
 8589TIP3    H247183   2.483   0.834  12.613  0.5767  0.7677  0.4330
 8590TIP3   OH247184   4.107   6.307   2.505 -0.0108  0.1078  0.4168
 8590TIP3    H147185   4.023   6.264   2.515  0.0681 -0.3430 -0.7552
 8590TIP3    H247186   4.090   6.399   2.528 -0.8307  0.0365  0.1186
 8591TIP3   OH247187   7.011   2.373  12.585  0.2698 -0.0663  0.2139
 8591TIP3    H147188   7.011   2.320  12.505 -2.0559  2.1548 -1.4098
 8591TIP3    H247189   6.994   2.310  12.655 -1.0950 -1.6579 -1.4396
 8592TIP3   OH247190   2.844   5.985   0.286 -0.6679  0.0088 -0.6523
 8592TIP3    H147191   2.756   6.021   0.302  1.1180  4.4181  0.6522
 8592TIP3    H247192   2.869   6.019   0.200  0.4656  0.5510 -0.1296
 8593TIP3   OH247193   2.488   4.025   4.689  0.2615 -0.6515 -0.2901
 8593TIP3    H147194   2.568   4.020   4.740 -0.6024  0.0712  1.1958
 8593TIP3    H247195   2.486   3.944   4.639  0.4461 -2.0413  1.8705
 8594TIP3   OH247196   2.636   1.347   4.586 -0.4929 -0.1355  0.1842
 8594TIP3    H147197   2.635   1.260   4.545 -0.6401 -1.9613  3.6620
 8594TIP3    H247198   2.693   1.336   4.662 -0.5464  2.8745  0.7685
 8595TIP3   OH247199   0.640   1.723  14.128  0.0743 -0.1799  0.2624
 8595TIP3    H147200   0.693   1.791  14.169  0.9511 -1.0322  0.5880
 8595TIP3    H247201   0.604   1.764  14.050  0.9299  0.5383  0.2284
 8596TIP3   OH247202   5.552   2.253   4.691 -0.2491  0.2691  0.1432
 8596TIP3    H147203   5.552   2.268   4.597 -2.2469  1.4819  0.2702
 8596TIP3    H247204   5.479   2.192   4.706  2.2835 -2.8771  0.6040
 8597TIP3   OH247205   6.702   1.961  14.888  0.2416 -0.3475  0.2103
 8597TIP3    H147206   6.781   1.933  14.841 -0.7390  1.1141 -2.4556
 8597TIP3    H247207   6.657   1.879  14.909  1.6228 -1.1186  0.3072
 8598TIP3   OH247208   1.057   1.496   0.970 -0.0034  0.8338  0.3277
 8598TIP3    H147209   0.988   1.487   1.035  0.6646 -3.0047  0.7808
 8598TIP3    H247210   1.011   1.513   0.888 -1.2614  0.9606  1.0326
 8599TIP3   OH247211   4.011   3.427   3.197 -0.3861 -0.2763  0.2311
 8599TIP3    H147212   4.027   3.361   3.129 -1.1011 -0.6058  0.3679
 8599TIP3    H247213   3.916   3.436   3.198 -0.2508  2.6246 -1.5653
 8600TIP3   OH247214   1.725   1.581  11.103  0.4854 -0.2168 -0.2022
 8600TIP3    H147215   1.676   1.546  11.027  0.9948 -3.1680  0.7032
 8600TIP3    H247216   1.817   1.576  11.076  0.6412 -0.8795  0.4377
 8601TIP3   OH247217   0.779   4.720  11.900 -0.1589 -0.9443 -0.4476
 8601TIP3    H147218   0.797   4.627  11.918  0.4094 -0.7299  0.1332
 8601TIP3    H247219   0.781   4.762  11.986 -3.4787 -0.8583 -0.2762
 8602TIP3   OH247220   2.028   1.262  13.607  0.1114  0.4653  0.7301
 8602TIP3    H147221   1.951   1.306  13.644  0.5768  2.9283 -0.9870
 8602TIP3    H247222   2.103   1.306  13.648  0.6141  0.1731  0.1495
 8603TIP3   OH247223   3.341   3.100   1.167 -0.0369 -0.4335 -0.2781
 8603TIP3    H147224   3.340   3.156   1.089  0.7195  0.7765  0.5437
 8603TIP3    H247225   3.391   3.150   1.232  0.6134 -2.0553  0.5218
 8604TIP3   OH247226   4.692   2.004  11.788  0.1105 -0.1801  0.0987
 8604TIP3    H147227   4.783   1.972  11.790 -0.8554 -3.3264 -0.0079
 8604TIP3    H247228   4.662   1.984  11.700 -0.3875  1.9970 -0.2719
 8605TIP3   OH247229   3.200   0.854  13.539 -0.2212 -0.4498  0.1919
 8605TIP3    H147230   3.146   0.797  13.484 -0.8606  0.1317  0.2015
 8605TIP3    H247231   3.162   0.846  13.626  0.0607 -0.4663  0.3123
 8606TIP3   OH247232   2.922   0.695  13.501 -0.2586 -0.6143 -0.0135
 8606TIP3    H147233   2.845   0.673  13.449 -0.6124 -1.7422  0.9412
 8606TIP3    H247234   2.888   0.746  13.574  0.2015  0.7144 -0.6793
 8607TIP3   OH247235   0.100   0.321  10.213  0.0674  0.5952  0.0124
 8607TIP3    H147236   0.041   0.246  10.206  0.4290  0.3606 -0.6190
 8607TIP3    H247237   0.058   0.379  10.276 -0.0898 -0.2568  0.7087
 8608TIP3   OH247238   6.100   3.396  10.270 -0.4778 -0.0284 -0.2603
 8608TIP3    H147239   6.028   3.449  10.304  0.3398  0.5006  0.6840
 8608TIP3    H247240   6.170   3.458  10.253  1.2864 -0.9027  2.8804
 8609TIP3   OH247241   1.697   1.809   2.699 -0.0808  0.5489 -1.0079
 8609TIP3    H147242   1.620   1.810   2.642  1.5983  0.6910 -3.4515
 8609TIP3    H247243   1.702   1.899   2.733 -0.4639  0.8069 -1.6062
 8610TIP3   OH247244   5.820   6.400  13.341  0.1909 -0.1775  0.2200
 8610TIP3    H147245   5.746   6.384  13.283 -0.0538 -0.3087  0.5685
 8610TIP3    H247246   5.813   6.333  13.409 -0.4525  0.9552  1.3160
 8611TIP3   OH247247   3.587   3.816  12.698  0.0892 -0.2179  0.2105
 8611TIP3    H147248   3.569   3.745  12.761  0.3604 -0.9530 -0.5248
 8611TIP3    H247249   3.570   3.896  12.748 -0.7535 -0.8013  0.9014
 8612TIP3   OH247250   2.052   7.057   1.586 -0.1097  0.3674 -0.3291
 8612TIP3    H147251   2.058   7.083   1.495 -3.8199  0.2096 -0.7964
 8612TIP3    H247252   2.042   7.140   1.634 -1.4992  0.3345 -0.5272
 8613TIP3   OH247253   0.005   2.112  10.331  0.3906 -0.5015  0.3823
 8613TIP3    H147254  -0.007   2.205  10.312 -0.7542 -0.4717  1.1452
 8613TIP3    H247255   0.098   2.096  10.313  1.1283  1.2815  2.2026
 8614TIP3   OH247256   1.686   0.334  10.883 -0.4972 -0.5583  0.3631
 8614TIP3    H147257   1.612   0.340  10.823 -0.2269  0.2195  0.1033
 8614TIP3    H247258   1.711   0.241  10.880  0.9925 -0.1659 -2.5529
 8615TIP3   OH247259   1.382   5.494  10.437  0.2429  0.4900  0.4073
 8615TIP3    H147260   1.372   5.532  10.350  1.6832 -1.9657 -0.9414
 8615TIP3    H247261   1.294   5.469  10.463 -0.2184  1.3423 -0.2856
 8616TIP3   OH247262   4.889   5.154   1.645  0.6839  0.0734  0.1147
 8616TIP3    H147263   4.821   5.106   1.691 -0.5479  1.8902  0.2975
 8616TIP3    H247264   4.889   5.117   1.557  0.7607 -1.1983  0.6378
 8617TIP3   OH247265   3.757   6.419  14.677 -0.0358 -0.3766  0.3211
 8617TIP3    H147266   3.692   6.362  14.717  0.5692 -0.7334  0.8100
 8617TIP3    H247267   3.760   6.392  14.586 -3.7859  2.5605 -0.8982
 8618TIP3   OH247268   3.103   0.458  12.357  0.3702 -0.2016 -0.0945
 8618TIP3    H147269   3.079   0.538  12.311 -1.1425  0.1848  1.2891
 8618TIP3    H247270   3.157   0.410  12.294  2.0068  2.2346 -0.6486
 8619TIP3   OH247271   6.424   3.746   1.895  0.4366  0.7036  0.4740
 8619TIP3    H147272   6.519   3.740   1.895  0.4172  0.3613 -0.0714
 8619TIP3    H247273   6.396   3.689   1.967  0.7148  2.2709  1.8832
 8620TIP3   OH247274   4.806   0.379   9.540 -0.7220  0.2719  0.1228
 8620TIP3    H147275   4.797   0.466   9.500  0.6627 -0.0779 -0.9821
 8620TIP3    H247276   4.900   0.365   9.548 -0.9112 -1.3065 -0.0755
 8621TIP3   OH247277   2.968   7.054   3.197  0.1056  0.1379  0.1070
 8621TIP3    H147278   3.026   6.984   3.167 -1.4606 -1.2277  0.1323
 8621TIP3    H247279   2.982   7.056   3.292  0.1066 -0.2064  0.1178
 8622TIP3   OH247280   2.876   0.633   1.668  0.1104  0.3272  0.4549
 8622TIP3    H147281   2.795   0.683   1.670 -0.7829 -0.9768 -0.9974
 8622TIP3    H247282   2.943   0.698   1.646 -1.1199  0.8368 -2.1464
 8623TIP3   OH247283   1.496   5.055  12.339 -0.0324  0.0284  0.3420
 8623TIP3    H147284   1.547   5.136  12.331 -0.5044  0.6016  2.4476
 8623TIP3    H247285   1.454   5.045  12.254  4.5572 -1.3033 -2.1032
 8624TIP3   OH247286   1.910   3.829   3.604 -0.0099  0.2038  0.7445
 8624TIP3    H147287   1.906   3.745   3.559  1.6940 -0.3367  1.4991
 8624TIP3    H247288   1.991   3.869   3.574 -0.4664  1.2960  0.9011
 8625TIP3   OH247289   5.496   6.228  15.368  0.2274  0.3366 -0.0827
 8625TIP3    H147290   5.563   6.264  15.426 -0.3169  1.6812 -0.2562
 8625TIP3    H247291   5.529   6.243  15.279  1.1516 -1.8947 -0.1785
 8626TIP3   OH247292   5.854   0.618   5.409 -0.6754  0.7463  0.5665
 8626TIP3    H147293   5.853   0.523   5.400  1.5613  0.6704  0.7850
 8626TIP3    H247294   5.798   0.635   5.485 -0.8232 -0.3981  0.7355
 8627TIP3   OH247295   6.070   5.230   0.530 -0.3787 -0.8735  0.1483
 8627TIP3    H147296   6.101   5.148   0.569 -3.2422 -2.9438 -1.4821
 8627TIP3    H247297   6.057   5.209   0.437 -3.1971  0.7075  0.0710
 8628TIP3   OH247298   4.761   4.582  10.224  0.0003  0.3650  0.6511
 8628TIP3    H147299   4.757   4.628  10.140  0.1707 -1.5540 -0.4688
 8628TIP3    H247300   4.794   4.648  10.286 -1.3181  2.1930 -0.4780
 8629TIP3   OH247301   2.356   2.553   5.489  0.1277  0.4393 -0.0905
 8629TIP3    H147302   2.432   2.603   5.518  0.2299  0.2943 -0.1060
 8629TIP3    H247303   2.317   2.519   5.569  0.6843 -0.3584 -0.1464
 8630TIP3   OH247304   0.684   2.034   3.308 -0.2249  0.1667  0.2711
 8630TIP3    H147305   0.712   2.094   3.378  3.1834 -2.6251  1.6345
 8630TIP3    H247306   0.612   1.985   3.347  0.0543  0.2658  0.9380
 8631TIP3   OH247307   3.844   6.132   4.673 -0.5478 -0.9040  0.2446
 8631TIP3    H147308   3.778   6.133   4.604  0.5851 -1.0125 -0.8912
 8631TIP3    H247309   3.808   6.186   4.743 -0.2737  2.2698 -1.8518
 8632TIP3   OH247310   5.046   0.894  12.918 -0.1072  0.7131 -0.3052
 8632TIP3    H147311   4.969   0.950  12.926 -0.3822  0.2080  0.8648
 8632TIP3    H247312   5.012   0.805  12.924  0.5558  0.4827  0.2131
 8633TIP3   OH247313   1.295   0.456   9.146  0.1034 -0.1169 -0.6953
 8633TIP3    H147314   1.315   0.493   9.232 -0.8012  0.9866 -0.9374
 8633TIP3    H247315   1.326   0.366   9.152 -0.0227 -0.0967  0.8188
 8634TIP3   OH247316   1.470   2.315   3.093 -0.2272  0.0427 -0.0771
 8634TIP3    H147317   1.388   2.308   3.044 -0.3243  1.9543 -0.2641
 8634TIP3    H247318   1.523   2.375   3.042  0.4839  0.4564  1.1080
 8635TIP3   OH247319   0.507   6.088  12.207  0.3826  0.5906 -0.4581
 8635TIP3    H147320   0.454   6.066  12.130  0.9265 -0.5376 -0.5316
 8635TIP3    H247321   0.444   6.123  12.270  0.2365  3.8387 -2.2139
 8636TIP3   OH247322   0.701   3.161  10.959 -0.4996 -0.0918 -0.2802
 8636TIP3    H147323   0.695   3.117  10.874  1.7818 -2.2413  0.5594
 8636TIP3    H247324   0.679   3.094  11.023  0.0589  0.8384  0.9359
 8637TIP3   OH247325   4.426   0.930  13.178 -0.3447 -0.4244  0.1138
 8637TIP3    H147326   4.473   0.994  13.232  0.9906 -0.0377 -1.4286
 8637TIP3    H247327   4.410   0.975  13.095 -0.4554 -1.6845 -0.5802
 8638TIP3   OH247328   3.806   4.402  12.799  0.3848  0.1097  0.7056
 8638TIP3    H147329   3.900   4.394  12.787  0.2037 -0.2939 -0.5425
 8638TIP3    H247330   3.768   4.331  12.747 -0.5665 -0.6602  2.3519
 8639TIP3   OH247331   4.976   0.182  13.414 -0.5785  0.3553  0.2263
 8639TIP3    H147332   4.888   0.176  13.450 -0.6992 -0.5431 -0.1905
 8639TIP3    H247333   5.016   0.097  13.432 -0.2493  0.2873 -0.7326
 8640TIP3   OH247334   0.636   1.398  11.818 -0.0891  0.4105  0.0946
 8640TIP3    H147335   0.659   1.418  11.727 -0.7193  1.6370  0.1842
 8640TIP3    H247336   0.573   1.466  11.842 -1.3247 -0.9738  0.8797
 8641TIP3   OH247337   6.503   0.980  10.689  0.2957  0.3505  0.5252
 8641TIP3    H147338   6.447   1.052  10.657  0.2701  1.1966  2.3618
 8641TIP3    H247339   6.575   1.024  10.734  0.0482 -0.7483  2.0845
 8642TIP3   OH247340   4.578   0.745  11.916 -0.5025  0.3462 -0.5807
 8642TIP3    H147341   4.546   0.667  11.871  1.5341 -0.1622 -1.2498
 8642TIP3    H247342   4.630   0.791  11.850  1.6664  0.1543  0.9014
 8643TIP3   OH247343   4.111   4.242   0.407 -0.0811 -0.5364  0.0531
 8643TIP3    H147344   4.136   4.245   0.314 -0.5984 -0.7090 -0.0996
 8643TIP3    H247345   4.120   4.150   0.432 -0.7575 -0.6435 -0.0691
 8644TIP3   OH247346   0.895   5.779   5.214 -0.5036  0.6008 -0.2731
 8644TIP3    H147347   0.931   5.860   5.250 -0.4048 -0.2994  1.7412
 8644TIP3    H247348   0.971   5.721   5.205 -0.7560  0.3115 -0.5895
 8645TIP3   OH247349   5.283   6.649  14.531 -0.8686  0.4793 -0.4286
 8645TIP3    H147350   5.266   6.626  14.623  2.5622  1.1023  0.5199
 8645TIP3    H247351   5.261   6.569  14.482  0.0809 -0.9596  1.3501
 8646TIP3   OH247352   2.919   3.948   4.557 -0.2232  0.0083  0.1372
 8646TIP3    H147353   2.992   3.928   4.615 -0.3952  1.8414  1.0663
 8646TIP3    H247354   2.960   3.976   4.475  0.1311  0.6046  0.5073
 8647TIP3   OH247355   6.887   3.745   4.419  0.0656 -0.3433  0.3113
 8647TIP3    H147356   6.909   3.785   4.503 -1.2253  0.5072  0.2786
 8647TIP3    H247357   6.953   3.779   4.358  0.9591 -0.9000  0.9315
 8648TIP3   OH247358   3.798   2.311  12.209  0.0657 -0.5756 -0.5091
 8648TIP3    H147359   3.793   2.318  12.305 -1.0412 -1.3100 -0.4864
 8648TIP3    H247360   3.832   2.222  12.194 -1.4258 -1.1305 -0.7780
 8649TIP3   OH247361   3.101   6.010  10.344 -0.1768  0.0413 -0.1297
 8649TIP3    H147362   3.080   6.051  10.260  0.3550 -0.7026 -0.6415
 8649TIP3    H247363   3.158   6.073  10.388  0.5340 -0.0684 -0.8550
 8650TIP3   OH247364   2.833   2.839  12.859  0.0589  0.2513  0.8033
 8650TIP3    H147365   2.795   2.765  12.813 -1.8184  1.8831 -0.4506
 8650TIP3    H247366   2.928   2.827  12.851 -0.2099 -0.7803 -1.3971
 8651TIP3   OH247367   5.124   5.045  13.645  0.0597  0.5991 -0.6325
 8651TIP3    H147368   5.069   5.057  13.568  0.2190  0.6327 -0.7428
 8651TIP3    H247369   5.089   5.106  13.710 -1.2033 -0.6791 -0.0524
 8652TIP3   OH247370   5.441   6.945  14.831 -0.2049 -0.4291  0.7436
 8652TIP3    H147371   5.439   6.997  14.911 -1.6473  0.9491 -0.1159
 8652TIP3    H247372   5.351   6.950  14.796  0.6811  0.2466 -1.6711
 8653TIP3   OH247373   6.297   2.980  12.729  0.6693 -0.7154 -0.1642
 8653TIP3    H147374   6.232   2.946  12.790 -0.6461  0.6528 -0.7301
 8653TIP3    H247375   6.302   2.914  12.660  0.5775 -1.2700  0.3501
 8654TIP3   OH247376   5.203   5.438   1.120  0.3462 -0.3857  0.1864
 8654TIP3    H147377   5.227   5.498   1.050 -0.6139 -1.3802 -1.0297
 8654TIP3    H247378   5.287   5.413   1.159  0.8960  0.1842 -0.5988
 8655TIP3   OH247379   1.508   3.928  14.203  0.0243 -0.1006 -0.1497
 8655TIP3    H147380   1.419   3.943  14.235  0.1224  2.3514 -0.8005
 8655TIP3    H247381   1.501   3.935  14.108  0.6072 -2.0405 -0.3804
 8656TIP3   OH247382   1.083   1.960   2.020  0.2675 -0.6448  0.2514
 8656TIP3    H147383   1.159   1.974   1.964  0.7363 -0.8355  0.8281
 8656TIP3    H247384   1.037   2.044   2.021 -1.0933 -1.2614 -2.3547
 8657TIP3   OH247385   1.933   5.655  13.611  0.3382 -0.0659 -0.3289
 8657TIP3    H147386   1.923   5.583  13.673  0.1822  1.0281  0.9662
 8657TIP3    H247387   1.883   5.726  13.649  0.4336  0.7129 -1.6179
 8658TIP3   OH247388   2.540   5.027  13.610  0.4205 -0.5434 -0.5414
 8658TIP3    H147389   2.550   4.951  13.667 -0.2892 -0.7127 -0.6417
 8658TIP3    H247390   2.459   5.012  13.562 -1.4203  1.6879  1.6102
 8659TIP3   OH247391   1.528   5.507  12.090  0.4924  0.6332  0.1662
 8659TIP3    H147392   1.435   5.523  12.099  0.7921  1.9519  1.2451
 8659TIP3    H247393   1.567   5.594  12.083  1.5276  0.0734 -1.7019
 8660TIP3   OH247394   1.879   0.908   3.285  0.4233 -0.4970  0.3195
 8660TIP3    H147395   1.815   0.938   3.221  0.5617 -4.1148 -1.7881
 8660TIP3    H247396   1.862   0.961   3.363 -2.3489  1.4492 -1.4205
 8661TIP3   OH247397   3.580   2.476  10.475 -0.1098  0.1417  0.1936
 8661TIP3    H147398   3.560   2.521  10.557 -0.3282 -1.2958  0.9585
 8661TIP3    H247399   3.550   2.386  10.489  1.8674 -0.7068 -0.6266
 8662TIP3   OH247400   5.378   5.469  13.037 -0.4927 -0.1090  0.1372
 8662TIP3    H147401   5.299   5.512  13.070 -0.8853  2.3508 -3.3649
 8662TIP3    H247402   5.450   5.518  13.076 -0.7815 -0.2459  0.8549
 8663TIP3   OH247403   6.229   3.987   3.233  0.1352  0.0294 -0.4775
 8663TIP3    H147404   6.139   3.961   3.213 -0.0894 -1.3546  2.0227
 8663TIP3    H247405   6.284   3.928   3.180 -0.4413 -1.8234  0.9042
 8664TIP3   OH247406   2.970   0.591  13.822 -0.1682 -0.1070 -0.5896
 8664TIP3    H147407   2.897   0.647  13.795 -0.8181 -1.4672 -1.7401
 8664TIP3    H247408   2.965   0.515  13.765  0.9012 -1.2087  0.7171
 8665TIP3   OH247409   6.919   0.096  15.236 -0.7152 -0.3790 -0.0915
 8665TIP3    H147410   6.840   0.065  15.280 -0.4876 -0.4356  0.2873
 8665TIP3    H247411   6.990   0.074  15.297 -0.3634 -0.7219 -0.6228
 8666TIP3   OH247412   4.479   5.163   1.666 -0.0380 -0.1862  0.0392
 8666TIP3    H147413   4.534   5.193   1.594 -0.4312  0.5324  0.0215
 8666TIP3    H247414   4.414   5.106   1.625  1.5529 -2.2395  0.2700
 8667TIP3   OH247415   6.420   7.101   1.304 -0.1330 -0.0835  0.3795
 8667TIP3    H147416   6.355   7.030   1.308  0.1977 -0.4325 -0.2937
 8667TIP3    H247417   6.405   7.151   1.384 -1.4199 -0.0056  0.1203
 8668TIP3   OH247418   2.701   6.758  13.955 -0.0063 -0.3041  0.1224
 8668TIP3    H147419   2.710   6.792  14.044 -0.5041  0.9381 -0.2759
 8668TIP3    H247420   2.771   6.801  13.906  0.2921 -1.0179 -0.0861
 8669TIP3   OH247421   4.491   6.328  14.315 -0.4295  0.0928  0.1391
 8669TIP3    H147422   4.504   6.234  14.304 -1.1442 -0.1159  0.9949
 8669TIP3    H247423   4.407   6.336  14.361 -0.8217  1.1875 -0.7187
 8670TIP3   OH247424   5.015   6.119  12.589 -0.4853 -0.5366  0.1025
 8670TIP3    H147425   4.994   6.184  12.522  0.2379  1.2772  1.5524
 8670TIP3    H247426   4.956   6.140  12.662  1.0059 -0.3050  1.2795
 8671TIP3   OH247427   2.579   2.450  12.451  0.3069 -0.8590 -0.2928
 8671TIP3    H147428   2.573   2.357  12.472  0.9205 -0.7427  0.4545
 8671TIP3    H247429   2.503   2.489  12.495  1.6666 -0.5929  2.0089
 8672TIP3   OH247430   1.751   1.991  12.258 -0.9194  0.4299  0.0684
 8672TIP3    H147431   1.669   1.966  12.217 -1.2194  0.3829  0.6883
 8672TIP3    H247432   1.746   2.086  12.267 -1.3491  0.3213  1.0357
 8673TIP3   OH247433   3.650   6.400   1.727  0.2099 -0.2674  1.0422
 8673TIP3    H147434   3.704   6.330   1.690  1.6896  1.0386  0.6328
 8673TIP3    H247435   3.707   6.445   1.789 -0.0766  1.6647 -0.0094
 8674TIP3   OH247436   5.529   6.303  11.207  0.3690 -0.8256 -0.3743
 8674TIP3    H147437   5.571   6.262  11.131 -0.6333 -0.4913 -1.1417
 8674TIP3    H247438   5.556   6.395  11.203  2.3547 -1.2837  1.1590
 8675TIP3   OH247439   0.377   3.545  13.095 -0.0415 -0.1598  0.2231
 8675TIP3    H147440   0.342   3.570  13.009  1.3957 -0.3857 -0.4547
 8675TIP3    H247441   0.299   3.535  13.150 -0.8830  2.5570 -0.3303
 8676TIP3   OH247442   0.590   5.033  12.581  0.2585  0.3752 -0.4737
 8676TIP3    H147443   0.679   5.049  12.613  0.6269  0.8627 -1.6843
 8676TIP3    H247444   0.595   4.948  12.537  0.1668  0.4937 -0.7110
 8677TIP3   OH247445   2.147   2.375  11.223  0.1665 -0.0886  0.1673
 8677TIP3    H147446   2.116   2.426  11.297  0.5170  0.2255  0.0995
 8677TIP3    H247447   2.102   2.291  11.231 -1.8393  0.8513 -0.7699
 8678TIP3   OH247448   6.148   5.869   2.597  0.1788  0.0614 -0.5019
 8678TIP3    H147449   6.205   5.932   2.554 -0.4027 -0.8894 -2.7739
 8678TIP3    H247450   6.066   5.917   2.611  0.8127  0.7943  0.8866
 8679TIP3   OH247451   5.066   2.913  11.841 -0.1343  0.0765  0.3205
 8679TIP3    H147452   5.117   2.836  11.865 -1.3314 -0.5553  0.9385
 8679TIP3    H247453   5.064   2.966  11.921 -0.5585  0.0240  0.3485
 8680TIP3   OH247454   3.326   5.565  13.470 -0.2414 -0.2287 -0.0431
 8680TIP3    H147455   3.334   5.480  13.425 -0.9459 -1.4511  2.0063
 8680TIP3    H247456   3.407   5.572  13.520 -0.5634 -0.1328  0.4718
 8681TIP3   OH247457   7.056   4.118  12.527  0.0387  0.2097  0.0273
 8681TIP3    H147458   7.055   4.189  12.463 -0.2228  1.9900  1.8858
 8681TIP3    H247459   7.149   4.095  12.536  0.4319  1.9844  1.0628
 8682TIP3   OH247460   3.086   5.620  12.912  0.0988 -0.1757  0.5009
 8682TIP3    H147461   3.117   5.658  12.994  0.2817 -0.5739  0.6170
 8682TIP3    H247462   2.995   5.647  12.906  0.3342  0.6435  0.3721
 8683TIP3   OH247463   5.184   4.575  11.372 -0.0610  0.2102  0.0751
 8683TIP3    H147464   5.116   4.639  11.393 -0.4877 -0.3081  0.2947
 8683TIP3    H247465   5.167   4.501  11.430  0.6050  0.0111  0.0304
 8684TIP3   OH247466   1.427   7.111   3.117 -0.3853 -0.8701 -0.3334
 8684TIP3    H147467   1.489   7.126   3.046 -0.9759  0.5488 -0.5664
 8684TIP3    H247468   1.441   7.183   3.178  0.8912 -2.6529  1.6072
 8685TIP3   OH247469   3.243   3.182  12.174  0.1880  0.1602 -0.0692
 8685TIP3    H147470   3.252   3.127  12.096 -0.3052  1.7164 -1.2670
 8685TIP3    H247471   3.329   3.180  12.215  0.4095 -0.8098 -0.5414
 8686TIP3   OH247472   6.884   6.539  13.483  0.1239  0.3751 -0.0597
 8686TIP3    H147473   6.919   6.451  13.496  1.5322  1.1225  1.4762
 8686TIP3    H247474   6.823   6.552  13.555  0.1555  0.7784 -0.1014
 8687TIP3   OH247475   4.889   3.888  11.025  0.5717  0.7709 -0.3375
 8687TIP3    H147476   4.863   3.820  11.087  2.1084  2.0286  1.8342
 8687TIP3    H247477   4.814   3.897  10.966 -0.1631 -1.8666  0.0758
 8688TIP3   OH247478   0.355   2.469   4.443 -0.0924  0.3189  0.1670
 8688TIP3    H147479   0.424   2.446   4.382  0.5502  0.4524  0.8246
 8688TIP3    H247480   0.319   2.551   4.409  1.4601  1.3470  0.9151
 8689TIP3   OH247481   1.951   2.061   5.399  0.3087 -0.4321 -0.3744
 8689TIP3    H147482   1.925   1.970   5.411  0.5195 -0.4508 -0.0505
 8689TIP3    H247483   2.045   2.062   5.417  0.1184  0.0364  0.7061
 8690TIP3   OH247484   5.918   4.777  10.999  0.0095 -0.5082  0.0835
 8690TIP3    H147485   5.907   4.772  11.094  0.5650  0.7297  0.2159
 8690TIP3    H247486   5.856   4.844  10.971 -1.3224 -1.9587 -0.6608
 8691TIP3   OH247487   5.701   6.384  11.900 -0.5956  0.3868  0.0973
 8691TIP3    H147488   5.720   6.313  11.962 -2.7847 -1.8418 -1.5744
 8691TIP3    H247489   5.787   6.422  11.881  0.5547 -1.1224  1.8655
 8692TIP3   OH247490   5.905   2.886  13.564  0.2284 -0.0265  0.0931
 8692TIP3    H147491   5.890   2.907  13.656 -1.0508 -0.4801  0.0044
 8692TIP3    H247492   5.991   2.844  13.563  1.4741  2.3403  0.6915
 8693TIP3   OH247493   1.683   5.547  12.388  0.1935  0.2957  0.3460
 8693TIP3    H147494   1.745   5.561  12.460  0.7089 -0.3637  0.0433
 8693TIP3    H247495   1.598   5.572  12.425  0.5887  0.9242  0.8620
 8694TIP3   OH247496   3.631   3.684  12.146  0.2623  0.0088  0.0375
 8694TIP3    H147497   3.685   3.713  12.219 -1.0680  1.3419  0.5414
 8694TIP3    H247498   3.541   3.697  12.176 -0.3489 -1.2959 -1.1117
 8695TIP3   OH247499   4.261   4.644  14.866 -0.2462 -0.6724  0.1422
 8695TIP3    H147500   4.204   4.567  14.866 -1.3070  0.0921  1.2835
 8695TIP3    H247501   4.296   4.647  14.777 -3.3632 -0.1805 -1.2062
 8696TIP3   OH247502   2.628   4.718  13.009  0.3238  0.0249  0.3029
 8696TIP3    H147503   2.577   4.794  12.983 -0.4344 -0.5021  0.2258
 8696TIP3    H247504   2.653   4.676  12.927 -2.5487 -1.9577  0.2928
 8697TIP3   OH247505   1.504   0.216   5.760  0.1471  0.6244 -0.4468
 8697TIP3    H147506   1.487   0.185   5.849 -1.0569  3.2582  0.3478
 8697TIP3    H247507   1.589   0.179   5.737  0.5607 -0.0202  1.8638
 8698TIP3   OH247508   1.616   5.280  11.959  0.3729 -0.2086 -0.3746
 8698TIP3    H147509   1.544   5.252  11.903  0.6165  1.0833 -1.3921
 8698TIP3    H247510   1.583   5.358  12.004  0.6684 -0.4116  0.2004
 8699TIP3   OH247511   4.063   2.988  11.010 -0.1415  0.1200  0.0259
 8699TIP3    H147512   3.972   3.013  10.993 -1.0048 -1.7841  1.4764
 8699TIP3    H247513   4.062   2.955  11.100  1.2877 -2.8331 -0.9191
 8700TIP3   OH247514   3.122   0.389   0.254  0.7468 -0.4391  0.7394
 8700TIP3    H147515   3.056   0.391   0.185  0.9010  0.1994  0.6028
 8700TIP3    H247516   3.083   0.336   0.324 -0.5074  1.0812  1.2519
 8701TIP3   OH247517   3.000   1.029  12.380 -0.2642 -0.7756 -0.4811
 8701TIP3    H147518   3.075   1.064  12.333 -0.4126 -0.6491 -0.6259
 8701TIP3    H247519   2.932   1.020  12.313 -1.2680  1.6626  0.1126
 8702TIP3   OH247520   2.892   1.704  12.874 -0.4120 -0.2730  0.8383
 8702TIP3    H147521   2.902   1.679  12.782 -2.6211  1.0305  0.1977
 8702TIP3    H247522   2.982   1.721  12.904  0.2203  1.0163 -1.5836
 8703TIP3   OH247523   2.726   1.663  10.014  0.0390  0.2420 -0.1446
 8703TIP3    H147524   2.769   1.589   9.971 -0.1205 -0.2393  0.5121
 8703TIP3    H247525   2.787   1.690  10.083  0.7918  1.7083 -1.3230
 8704TIP3   OH247526   3.298   1.431  12.101 -0.1497 -0.2231 -0.3005
 8704TIP3    H147527   3.246   1.468  12.029 -2.8396  1.9952  2.5374
 8704TIP3    H247528   3.382   1.475  12.095 -1.2264  1.9165 -0.5966
 8705TIP3   OH247529   6.947   6.544  14.820 -0.0465  0.7259  0.0931
 8705TIP3    H147530   6.909   6.616  14.870 -0.9776 -0.8679  1.8175
 8705TIP3    H247531   7.021   6.513  14.873 -0.3552 -0.3031 -0.0426
 8706TIP3   OH247532   5.804   6.001  10.473 -0.0314 -0.1330 -0.7621
 8706TIP3    H147533   5.797   6.094  10.494  2.0250  0.7255 -3.2976
 8706TIP3    H247534   5.758   5.957  10.544  1.4290  2.6406  2.1989
 8707TIP3   OH247535   5.198   6.459  12.932 -0.0369 -0.3999 -0.3438
 8707TIP3    H147536   5.287   6.491  12.917  0.1942 -1.0041 -0.2736
 8707TIP3    H247537   5.208   6.366  12.948 -0.5511 -0.2386  1.0373
 8708TIP3   OH247538   2.778   0.493  12.643 -0.9153 -0.0833 -0.0681
 8708TIP3    H147539   2.783   0.433  12.719 -0.8356 -0.8664 -0.6757
 8708TIP3    H247540   2.806   0.439  12.569  1.1591  1.2670 -0.3474
 8709TIP3   OH247541   2.896   6.725   1.292 -0.1261  0.6462  0.3760
 8709TIP3    H147542   2.907   6.799   1.233 -3.0190  0.6832 -0.2636
 8709TIP3    H247543   2.930   6.650   1.243 -0.6536  0.9907 -0.5415
 8710TIP3   OH247544   4.128   2.418   1.064 -0.0125 -0.5183  0.1565
 8710TIP3    H147545   4.056   2.480   1.054  0.9802  0.8030  0.8876
 8710TIP3    H247546   4.090   2.343   1.109 -0.6466  0.7269  1.7629
 8711TIP3   OH247547   1.116   2.433  12.030  0.1683 -0.1889  0.8572
 8711TIP3    H147548   1.183   2.446  12.097 -0.7142  0.0955  1.7086
 8711TIP3    H247549   1.165   2.412  11.950  1.4206  2.5158  0.8162
 8712TIP3   OH247550   2.763   1.757  15.229  0.2162  0.1863  0.0710
 8712TIP3    H147551   2.773   1.666  15.257 -0.7712 -0.3808 -1.3141
 8712TIP3    H247552   2.836   1.771  15.168 -0.0087  0.0948 -0.2240
 8713TIP3   OH247553   4.794   6.988  12.095  0.0494 -0.2724  0.1053
 8713TIP3    H147554   4.812   7.014  12.186  1.4064 -2.2736  0.4660
 8713TIP3    H247555   4.877   7.002  12.050 -0.5662  0.5142 -0.8223
 8714TIP3   OH247556   6.999   4.194  11.749  0.6648 -0.7329 -0.1992
 8714TIP3    H147557   6.990   4.189  11.653 -0.1634 -2.1722 -0.0859
 8714TIP3    H247558   6.959   4.277  11.772  3.0596  0.8272 -1.2802
 8715TIP3   OH247559   6.921   4.177  12.955 -0.5159 -0.0987  0.1168
 8715TIP3    H147560   6.963   4.245  13.008 -0.2157 -0.2569  0.0807
 8715TIP3    H247561   6.831   4.172  12.988 -0.3613 -0.1171  0.5277
 8716TIP3   OH247562   4.075   6.935  11.070 -0.0846 -0.1022 -0.2093
 8716TIP3    H147563   4.004   6.991  11.037 -0.6233 -1.2809 -1.1545
 8716TIP3    H247564   4.151   6.993  11.073 -1.3478  1.6198  2.2685
 8717TIP3   OH247565   6.070   4.255   0.068 -0.0618  0.0924  0.4935
 8717TIP3    H147566   6.161   4.233   0.084  0.0693  0.4691  0.2832
 8717TIP3    H247567   6.073   4.330   0.009 -0.5068  0.1297  0.5097
 8718TIP3   OH247568   4.646   2.002   0.128 -0.2926 -0.1116  0.4456
 8718TIP3    H147569   4.633   1.915   0.165  0.5858  0.1081  1.3024
 8718TIP3    H247570   4.587   2.059   0.178  0.3892  0.0653  1.0720
 8719TIP3   OH247571   2.687   3.443  13.973 -0.1727  0.4422  0.0750
 8719TIP3    H147572   2.731   3.527  13.954  0.2419  0.2407  0.1314
 8719TIP3    H247573   2.595   3.466  13.979 -0.0404  0.9393  0.3140
 8720TIP3   OH247574   6.969   2.601  15.259  0.3402 -0.3758  0.1635
 8720TIP3    H147575   6.880   2.623  15.285  0.3150 -0.4143  0.1109
 8720TIP3    H247576   6.959   2.558  15.174  0.4072 -0.4014  0.1682
 8721TIP3   OH247577   0.037   2.735  11.944 -0.2893 -0.1195 -0.4193
 8721TIP3    H147578  -0.045   2.760  11.902 -0.5449 -1.4932 -0.7671
 8721TIP3    H247579   0.055   2.807  12.006 -2.5764 -0.5269  0.8201
 8722TIP3   OH247580   3.431   1.795  12.959 -0.4251  0.0659  0.2772
 8722TIP3    H147581   3.387   1.814  12.876  0.0808  0.4006  0.0809
 8722TIP3    H247582   3.484   1.718  12.941 -2.0137 -1.2339  0.9098
 8723TIP3   OH247583   3.089   1.718  14.055  0.1634  0.0239  0.1896
 8723TIP3    H147584   3.052   1.631  14.071  1.2766 -0.3547  0.8465
 8723TIP3    H247585   3.144   1.734  14.132  0.7844  0.8664 -0.4170
 8724TIP3   OH247586   0.009   3.853  10.347 -0.2598 -0.5466 -0.1254
 8724TIP3    H147587   0.063   3.921  10.386  0.1021 -0.5153 -0.6676
 8724TIP3    H247588   0.053   3.831  10.265 -0.0790 -1.8007  0.2896
 8725TIP3   OH247589   7.001   4.969  14.439 -0.1585  0.2892 -0.2653
 8725TIP3    H147590   7.049   4.926  14.509 -0.5056 -0.3328 -0.3931
 8725TIP3    H247591   6.973   4.897  14.382 -0.7762  0.6832 -0.4729
 8726TIP3   OH247592   4.101   3.643   2.979  0.4079  0.1148  0.2210
 8726TIP3    H147593   4.103   3.725   3.028  0.6162  0.6014 -0.5980
 8726TIP3    H247594   4.168   3.652   2.912 -1.7465  0.6461 -2.0121
 8727TIP3   OH247595   0.331   0.438  10.982  0.1439 -0.0124  0.2300
 8727TIP3    H147596   0.275   0.382  11.035  0.4220  1.3320  2.0338
 8727TIP3    H247597   0.419   0.402  10.993  0.3938  1.0016  1.7719
 8728TIP3   OH247598   3.143   4.465   4.288  0.0795 -0.1407 -0.0454
 8728TIP3    H147599   3.225   4.426   4.257  0.1612 -0.5188  0.6224
 8728TIP3    H247600   3.119   4.412   4.364  0.7547  1.7497  1.5781
 8729TIP3   OH247601   5.556   6.812  11.623 -0.1893  0.0985 -0.4500
 8729TIP3    H147602   5.560   6.723  11.587 -1.1412 -0.7572  1.4204
 8729TIP3    H247603   5.625   6.814  11.689 -0.4581  0.6127 -0.1793
 8730TIP3   OH247604   4.238   2.169  13.203  0.2266 -0.0869  0.3293
 8730TIP3    H147605   4.187   2.134  13.277  0.4680  0.8742  0.9702
 8730TIP3    H247606   4.211   2.116  13.128 -0.7504 -0.4527  0.9170
 8731TIP3   OH247607   6.194   6.014   1.875  0.3519  0.3608  0.1173
 8731TIP3    H147608   6.133   5.947   1.843 -0.4624  0.2608  1.7992
 8731TIP3    H247609   6.280   5.972   1.868 -0.1249 -0.8097  0.9495
 8732TIP3   OH247610   1.826   4.018   0.570 -0.2718 -0.7371  0.0593
 8732TIP3    H147611   1.750   4.004   0.627 -1.2785  0.6390 -0.8779
 8732TIP3    H247612   1.789   4.025   0.482  1.0788 -1.1597 -0.5696
 8733TIP3   OH247613   1.352   5.445  14.060  0.1978 -0.3248  0.3678
 8733TIP3    H147614   1.393   5.400  14.133  0.7363 -2.1142 -0.9594
 8733TIP3    H247615   1.278   5.389  14.036  0.4100 -0.1323 -0.8297
 8734TIP3   OH247616   0.247   0.932   4.244 -0.1084 -0.1320  0.2941
 8734TIP3    H147617   0.161   0.924   4.203  0.2734  0.4455 -0.6535
 8734TIP3    H247618   0.301   0.975   4.178  0.6706  0.3483  1.2160
 8735TIP3   OH247619   3.880   4.705   4.040 -0.2545  0.5565 -0.2209
 8735TIP3    H147620   3.943   4.777   4.036  1.1255 -0.6125 -0.8913
 8735TIP3    H247621   3.801   4.743   4.077  0.6137  2.2676 -0.0360
 8736TIP3   OH247622   4.166   0.385  11.097 -0.2206 -0.0749  0.1180
 8736TIP3    H147623   4.107   0.352  11.164  0.9927 -2.6518  0.0726
 8736TIP3    H247624   4.242   0.416  11.146 -1.1049  2.2524  0.1169
 8737TIP3   OH247625   0.982   4.912   1.730 -0.4016  0.8861  0.0159
 8737TIP3    H147626   0.930   4.850   1.679 -1.9638  1.6391  0.6480
 8737TIP3    H247627   1.073   4.884   1.715 -1.0414 -2.0088  0.8562
 8738TIP3   OH247628   1.913   6.464  11.741 -0.0453  0.0420  0.2858
 8738TIP3    H147629   1.927   6.559  11.735  0.6476 -0.0336  0.5992
 8738TIP3    H247630   1.989   6.432  11.789 -0.4127 -0.6433  0.4158
 8739TIP3   OH247631   0.362   5.335  11.329 -0.0741 -0.0399  0.0322
 8739TIP3    H147632   0.295   5.359  11.265 -0.6983  0.5117  0.8662
 8739TIP3    H247633   0.312   5.313  11.408  0.7285  0.5643  0.7224
 8740TIP3   OH247634   0.044   1.518  11.298 -0.1736  0.2293 -0.1114
 8740TIP3    H147635   0.094   1.436  11.297  0.1382  0.4185 -0.0918
 8740TIP3    H247636  -0.038   1.495  11.341  0.9273  0.5022  2.2997
 8741TIP3   OH247637   0.490   0.843  11.729 -0.1293 -0.0416  0.2628
 8741TIP3    H147638   0.558   0.863  11.663 -1.8521  0.6502 -1.4000
 8741TIP3    H247639   0.474   0.927  11.772 -1.1208  0.1935 -0.5468
 8742TIP3   OH247640   5.945   6.934  10.993  0.0315 -0.1357 -0.0394
 8742TIP3    H147641   5.958   6.920  10.900  1.2837  0.7939 -0.0285
 8742TIP3    H247642   5.854   6.962  11.000 -0.1641 -0.5145 -0.9347
 8743TIP3   OH247643   6.984   5.752   2.842 -0.4936 -0.2136 -0.6741
 8743TIP3    H147644   7.060   5.714   2.798  0.6811 -1.1415  1.9280
 8743TIP3    H247645   6.957   5.686   2.906 -0.0539  2.1433  2.1835
 8744TIP3   OH247646   2.507   0.747   4.752  0.3564 -0.2656  0.3700
 8744TIP3    H147647   2.442   0.805   4.791 -0.1860 -1.2223  0.9164
 8744TIP3    H247648   2.589   0.768   4.799  0.2505  0.2975  0.3121
 8745TIP3   OH247649   0.086   5.300   2.253 -0.0362  0.9321 -0.6169
 8745TIP3    H147650   0.084   5.204   2.250 -1.1394  0.7661  2.2636
 8745TIP3    H247651   0.179   5.322   2.263  0.1361  0.1049 -0.3362
 8746TIP3   OH247652   2.926   6.920  12.857  0.3810  0.1020 -0.0668
 8746TIP3    H147653   2.867   6.972  12.912  3.6255  1.3935  2.5385
 8746TIP3    H247654   2.926   6.833  12.897 -0.0286 -0.0229 -0.3300
 8747TIP3   OH247655   2.768   1.403   2.567 -0.0600  0.2149  0.7047
 8747TIP3    H147656   2.708   1.362   2.629 -0.1899  0.6207  0.8460
 8747TIP3    H247657   2.846   1.424   2.618  0.8404 -1.6768  0.2192
 8748TIP3   OH247658   2.419   0.748  12.360  0.2179 -0.2779  0.1149
 8748TIP3    H147659   2.378   0.825  12.320 -0.3259 -2.0082 -2.9987
 8748TIP3    H247660   2.345   0.699  12.397 -0.2087 -1.5371 -2.1709
 8749TIP3   OH247661   6.292   3.886  13.462  0.1605  0.1937  0.2031
 8749TIP3    H147662   6.324   3.797  13.445 -0.5499  0.4084 -2.7587
 8749TIP3    H247663   6.363   3.929  13.510  0.4779 -1.9440  1.8037
 8750TIP3   OH247664   0.012   6.946  14.679 -0.0552  0.3862  0.6013
 8750TIP3    H147665   0.055   6.894  14.611  0.7023  0.2136  1.2013
 8750TIP3    H247666  -0.074   6.968  14.642 -0.5956 -1.6934  0.5286
 8751TIP3   OH247667   2.785   1.708  11.075 -0.1511 -0.0570  0.1037
 8751TIP3    H147668   2.771   1.801  11.092 -1.0767 -0.0370 -0.6841
 8751TIP3    H247669   2.876   1.701  11.048 -0.1746  0.6829 -0.1798
 8752TIP3   OH247670   6.669   3.133   5.120 -0.4237 -0.8907  0.0443
 8752TIP3    H147671   6.752   3.165   5.156 -0.8406  1.6821 -1.0000
 8752TIP3    H247672   6.605   3.147   5.189 -0.6004  0.7377 -0.3994
 8753TIP3   OH247673   7.086   5.015   4.391  0.7026 -0.2962  0.2879
 8753TIP3    H147674   7.149   4.970   4.447 -0.5535 -1.9286  0.4771
 8753TIP3    H247675   7.108   4.987   4.303  1.2068  0.3879  0.1918
 8754TIP3   OH247676   4.403   5.478  14.087  0.2737  0.0162  0.0799
 8754TIP3    H147677   4.314   5.492  14.120  0.3658 -2.3304  1.5099
 8754TIP3    H247678   4.392   5.458  13.995 -0.8195 -1.1884  0.4417
 8755TIP3   OH247679   2.841   1.358  10.299 -0.1589 -0.1754  0.1677
 8755TIP3    H147680   2.895   1.383  10.374 -1.1698  0.9416  0.5515
 8755TIP3    H247681   2.867   1.268  10.279  3.3646  0.9205 -0.9911
 8756TIP3   OH247682   0.315   6.042   3.931  0.1316  0.2777  0.3908
 8756TIP3    H147683   0.238   6.028   3.986  1.3010 -4.0336  1.2921
 8756TIP3    H247684   0.280   6.066   3.846 -2.3689 -2.0678  0.6175
 8757TIP3   OH247685   1.660   5.428  13.399 -0.3978 -0.1167 -0.2760
 8757TIP3    H147686   1.675   5.436  13.493  0.0264  0.0540 -0.3591
 8757TIP3    H247687   1.730   5.372  13.367 -0.6688 -0.3556 -0.4564
 8758TIP3   OH247688   5.659   0.738  10.596 -0.1867 -0.2567  0.5429
 8758TIP3    H147689   5.715   0.816  10.593 -0.1831 -0.2901 -0.6469
 8758TIP3    H247690   5.604   0.745  10.518 -1.5483 -0.4622  1.4538
 8759TIP3   OH247691   6.556   0.758   0.523 -0.4830  0.3529 -0.3389
 8759TIP3    H147692   6.476   0.782   0.477 -0.8979 -1.5984 -0.7512
 8759TIP3    H247693   6.608   0.712   0.458  0.4769  0.5996  0.2384
 8760TIP3   OH247694   0.985   0.713   2.946  0.0179  0.0926  0.7054
 8760TIP3    H147695   1.029   0.696   3.030  1.7762  1.3307  0.0902
 8760TIP3    H247696   1.052   0.757   2.893 -1.4721  0.4989 -0.8993
 8761TIP3   OH247697   4.471   3.391   0.663  0.6452 -0.2077 -0.4915
 8761TIP3    H147698   4.559   3.420   0.637  1.0836 -0.4522  0.6789
 8761TIP3    H247699   4.456   3.433   0.747  0.6874 -2.1661  0.5476
 8762TIP3   OH247700   4.508   2.260  11.825  0.1898  0.1393 -0.2876
 8762TIP3    H147701   4.521   2.327  11.892  0.9712 -0.6682  0.3959
 8762TIP3    H247702   4.585   2.204  11.832 -0.8661 -1.3659 -0.2109
 8763TIP3   OH247703   2.493   2.140  13.492  0.1149  0.1102  0.6796
 8763TIP3    H147704   2.432   2.192  13.544  2.2604  0.3077  3.2742
 8763TIP3    H247705   2.564   2.200  13.470  0.1473 -0.4663 -0.9388
 8764TIP3   OH247706   5.810   3.740   3.767 -0.1545  0.1106 -0.4539
 8764TIP3    H147707   5.810   3.673   3.836  0.4188  1.6828  1.1371
 8764TIP3    H247708   5.717   3.756   3.750 -0.2990 -0.6244 -0.4059
 8765TIP3   OH247709   4.498   3.384  12.328 -0.4718 -0.5668 -0.5112
 8765TIP3    H147710   4.540   3.416  12.248  0.3056  0.4589  0.2787
 8765TIP3    H247711   4.537   3.299  12.344  0.2473 -0.2624 -0.5902
 8766TIP3   OH247712   5.073   7.067   1.491  0.5419 -0.0424 -0.6545
 8766TIP3    H147713   5.086   7.115   1.573  3.0072  0.2484 -1.1375
 8766TIP3    H247714   5.136   6.996   1.495 -0.6209 -1.1655 -1.5215
 8767TIP3   OH247715   6.899   1.935  10.776 -0.6643 -0.2568 -0.3370
 8767TIP3    H147716   6.981   1.970  10.809  0.6034 -0.6657 -2.8620
 8767TIP3    H247717   6.921   1.847  10.746 -2.3546 -0.8769  0.1259
 8768TIP3   OH247718   5.194   6.044  12.024 -0.0333 -0.2579 -0.1614
 8768TIP3    H147719   5.207   6.069  12.116 -1.2902  2.5254 -0.6417
 8768TIP3    H247720   5.110   5.997  12.024  0.5432 -1.3133  0.2467
 8769TIP3   OH247721   6.613   4.575  13.371 -0.0672 -0.3261  0.2119
 8769TIP3    H147722   6.622   4.604  13.280 -1.9773  0.9751  0.3855
 8769TIP3    H247723   6.648   4.647  13.423 -1.5191  0.1664  0.5482
 8770TIP3   OH247724   1.337   7.037  14.593 -0.0578  0.0795  0.3207
 8770TIP3    H147725   1.297   6.952  14.615  2.1942 -0.8329  1.2106
 8770TIP3    H247726   1.380   7.064  14.674  3.1892 -0.2712 -1.1397
 8771TIP3   OH247727   7.026   3.448  15.474  0.1942 -0.0472  0.3350
 8771TIP3    H147728   7.073   3.418  15.552  1.3685 -2.9184 -1.2974
 8771TIP3    H247729   7.091   3.442  15.403 -0.9255  2.0900 -0.9772
 8772TIP3   OH247730   2.385   3.615  12.882  0.1959  0.5486 -0.5842
 8772TIP3    H147731   2.432   3.635  12.801  1.5565 -0.6190 -0.1251
 8772TIP3    H247732   2.293   3.615  12.856  0.6195 -0.2224 -2.2460
 8773TIP3   OH247733   6.353   6.802   9.785 -0.0653  0.2135 -0.3010
 8773TIP3    H147734   6.430   6.856   9.771  0.3414 -0.2029  0.3223
 8773TIP3    H247735   6.292   6.830   9.717  0.3376  1.0843 -0.3146
 8774TIP3   OH247736   5.158   4.812  10.152 -0.4588 -0.1730 -0.1400
 8774TIP3    H147737   5.072   4.854  10.148 -0.6391 -0.5844 -0.8787
 8774TIP3    H247738   5.220   4.884  10.142 -0.6403  0.3504  2.0325
 8775TIP3   OH247739   3.543   4.608   0.017 -0.0222  0.0905  0.0800
 8775TIP3    H147740   3.499   4.523   0.018 -1.0820  0.6236  1.4497
 8775TIP3    H247741   3.490   4.664   0.074  1.1586  1.4248 -0.0608
 8776TIP3   OH247742   5.506   2.369   1.330 -0.2816 -0.2662 -0.0400
 8776TIP3    H147743   5.592   2.368   1.288 -0.0244 -1.5635  0.4596
 8776TIP3    H247744   5.513   2.435   1.399 -0.6971  1.8635 -1.9043
 8777TIP3   OH247745   0.740   5.836   4.329 -0.4572  0.1328 -0.1848
 8777TIP3    H147746   0.676   5.869   4.266  1.2529  1.9839 -1.0598
 8777TIP3    H247747   0.767   5.913   4.379  0.9036 -0.6335  0.3165
 8778TIP3   OH247748   5.040   5.201   3.124 -0.1366 -0.0579  0.1535
 8778TIP3    H147749   5.119   5.168   3.166 -0.4829 -0.2019  0.6897
 8778TIP3    H247750   5.015   5.133   3.062 -0.9895 -0.9464  1.4276
 8779TIP3   OH247751   6.916   2.528   0.491  0.4823  0.1088 -0.6174
 8779TIP3    H147752   6.973   2.490   0.558  0.4610 -0.0013 -0.6614
 8779TIP3    H247753   6.834   2.544   0.537  0.7170  0.7748 -0.4146
 8780TIP3   OH247754   1.382   1.698  11.901  0.5106  0.1058  0.2319
 8780TIP3    H147755   1.334   1.778  11.879 -0.4474  0.3530  2.8476
 8780TIP3    H247756   1.473   1.727  11.911  0.2855  0.7358  0.4902
 8781TIP3   OH247757   3.743   5.467  11.075  0.1139  0.1115 -0.0613
 8781TIP3    H147758   3.738   5.372  11.077  0.4594  0.0671  2.3850
 8781TIP3    H247759   3.652   5.496  11.082 -0.3235  0.1091 -3.7101
 8782TIP3   OH247760   5.708   1.917  10.442  0.2718 -0.0165 -0.1755
 8782TIP3    H147761   5.667   1.997  10.475  2.3870  0.7117  0.7973
 8782TIP3    H247762   5.717   1.932  10.348 -1.2354 -0.0195 -0.3467
 8783TIP3   OH247763   4.423   5.355   3.149 -0.1802 -0.6893  0.1605
 8783TIP3    H147764   4.408   5.387   3.238  0.3020 -0.4246  0.1505
 8783TIP3    H247765   4.517   5.334   3.148  0.1307  0.6231 -0.6982
 8784TIP3   OH247766   1.281   4.767  10.839  0.5151 -0.0708  0.1396
 8784TIP3    H147767   1.259   4.749  10.748 -0.4573 -1.5455  0.6284
 8784TIP3    H247768   1.215   4.832  10.866 -0.3012 -0.9167  0.2493
 8785TIP3   OH247769   0.492   5.141  13.950 -0.3894  0.9715  0.3901
 8785TIP3    H147770   0.422   5.152  14.015 -1.5906 -1.4513 -0.3944
 8785TIP3    H247771   0.550   5.074  13.988 -1.3018 -0.7498 -1.1119
 8786TIP3   OH247772   6.855   1.050  11.772  0.2343  0.4239  0.2277
 8786TIP3    H147773   6.939   1.094  11.755 -0.3199  1.0532 -0.9908
 8786TIP3    H247774   6.829   1.016  11.687 -1.0469  0.7533  0.4745
 8787TIP3   OH247775   3.353   2.046   4.726 -0.0637 -0.3129 -0.2309
 8787TIP3    H147776   3.422   2.018   4.666  0.5901 -0.9282  0.7804
 8787TIP3    H247777   3.275   1.999   4.696  0.3162 -0.8298 -0.4219
 8788TIP3   OH247778   5.503   3.315  12.701  0.4157 -0.2224 -0.0364
 8788TIP3    H147779   5.479   3.368  12.625  1.8132  1.4445  0.5894
 8788TIP3    H247780   5.517   3.380  12.771  0.6713 -1.5691  1.2098
 8789TIP3   OH247781   3.165   4.839  13.879  0.1599 -0.1738 -0.4763
 8789TIP3    H147782   3.102   4.768  13.891  0.2987 -0.0909  0.8417
 8789TIP3    H247783   3.250   4.799  13.896  0.6446 -0.5347 -3.2055
 8790TIP3   OH247784   0.128   4.620  14.513 -0.4630  0.7621 -0.8943
 8790TIP3    H147785   0.059   4.572  14.467  0.3381 -0.8445 -0.4647
 8790TIP3    H247786   0.208   4.602  14.464  0.0509  0.7141 -0.0621
 8791TIP3   OH247787   0.753   0.323  12.846  0.2614  0.3040 -0.0771
 8791TIP3    H147788   0.729   0.354  12.933  0.0839  1.7951 -0.6373
 8791TIP3    H247789   0.811   0.391  12.811 -0.8798  0.4927 -1.7036
 8792TIP3   OH247790   3.456   4.337   0.136 -0.1806  0.0327  0.2646
 8792TIP3    H147791   3.471   4.380   0.221  1.0103  1.2493 -0.5248
 8792TIP3    H247792   3.361   4.333   0.129 -0.3359  1.9886  0.6790
 8793TIP3   OH247793   6.487   3.307  10.473 -0.4655 -0.3669  0.5271
 8793TIP3    H147794   6.505   3.319  10.380 -0.4980 -3.8048 -0.0820
 8793TIP3    H247795   6.573   3.315  10.515 -0.3115  0.3511  0.0860
 8794TIP3   OH247796   2.153   1.494  11.160  0.2920 -0.1395  0.0075
 8794TIP3    H147797   2.247   1.477  11.164  0.5462  1.2917  0.9028
 8794TIP3    H247798   2.115   1.414  11.124  1.6940 -1.2786  0.9714
 8795TIP3   OH247799   3.906   0.282  15.344 -0.2736  0.4445  0.3842
 8795TIP3    H147800   3.936   0.370  15.366  0.6644  0.7163 -1.7375
 8795TIP3    H247801   3.968   0.252  15.278 -1.5328 -1.1864 -0.1161
 8796TIP3   OH247802   1.967   2.123  10.951 -0.9535 -0.1639 -0.5508
 8796TIP3    H147803   1.978   2.033  10.920 -1.1202 -0.1687 -0.5999
 8796TIP3    H247804   1.988   2.177  10.874  0.4289 -0.1203 -0.1518
 8797TIP3   OH247805   1.931   0.056  11.213  0.4203 -0.3336 -0.0537
 8797TIP3    H147806   1.945  -0.038  11.200 -1.2320 -0.6867  0.5036
 8797TIP3    H247807   1.949   0.071  11.306 -2.7011 -0.8579  0.7638
 8798TIP3   OH247808   0.360   1.574  13.977  0.1476 -0.4092  0.2312
 8798TIP3    H147809   0.307   1.628  14.037  0.1381 -0.1743  0.0166
 8798TIP3    H247810   0.451   1.597  13.999  0.1474 -0.4433  0.2668
 8799TIP3   OH247811   1.738   0.488   5.507 -0.7300  0.2943 -0.3495
 8799TIP3    H147812   1.724   0.512   5.599  0.5256  0.7501 -0.2574
 8799TIP3    H247813   1.697   0.402   5.498 -0.1174 -0.1557  0.8802
 8800TIP3   OH247814   5.999   3.498   2.312 -0.1555 -0.3384  0.1709
 8800TIP3    H147815   5.942   3.422   2.303  1.6574 -1.6091 -1.1020
 8800TIP3    H247816   6.077   3.465   2.357  0.5823  0.8109 -0.2158
 8801TIP3   OH247817   0.421   6.079   1.040 -0.2199 -0.5261  0.0966
 8801TIP3    H147818   0.500   6.025   1.034 -0.3294 -0.5902 -0.9372
 8801TIP3    H247819   0.430   6.126   1.123  0.4896 -1.1752  0.3965
 8802TIP3   OH247820   5.375   2.079   0.405  0.8474  0.1506  0.2368
 8802TIP3    H147821   5.374   2.174   0.406 -0.5247  0.1666  1.1702
 8802TIP3    H247822   5.356   2.055   0.314 -0.7119  0.8192  0.3496
 8803TIP3   OH247823   2.239   0.706   9.609 -0.0884  0.0284  0.0008
 8803TIP3    H147824   2.234   0.764   9.685  0.4784  0.8400 -0.5656
 8803TIP3    H247825   2.271   0.623   9.644  0.9211  0.6265  0.5203
 8804TIP3   OH247826   6.015   2.588  12.970  0.5773  0.6833  0.8902
 8804TIP3    H147827   6.021   2.661  13.031  1.2420  0.4271  1.1445
 8804TIP3    H247828   6.023   2.510  13.025  1.6191  0.4558  0.4454
 8805TIP3   OH247829   0.820   1.547  10.737 -0.3771 -0.6059 -0.5072
 8805TIP3    H147830   0.737   1.526  10.781 -0.4016  0.1783 -0.1588
 8805TIP3    H247831   0.873   1.587  10.805  0.3235 -1.1644 -0.7162
 8806TIP3   OH247832   5.461   6.554   4.339  0.0141 -0.1493  0.1201
 8806TIP3    H147833   5.480   6.461   4.327 -1.7212 -0.6651  1.0382
 8806TIP3    H247834   5.528   6.585   4.400  2.5385  0.0332 -2.5170
 8807TIP3   OH247835   3.734   1.087  10.079 -0.5838  0.1204 -0.5173
 8807TIP3    H147836   3.825   1.114  10.068 -1.0649  1.9889 -0.2361
 8807TIP3    H247837   3.689   1.124  10.004 -1.4111  0.7480  0.2744
 8808TIP3   OH247838   1.887   5.293  13.262  0.6096  0.4383 -0.1874
 8808TIP3    H147839   1.921   5.373  13.304  1.7096  0.9060 -1.8968
 8808TIP3    H247840   1.933   5.222  13.306  1.9964  0.9372 -0.7645
 8809TIP3   OH247841   1.317   2.808   2.339  0.1362  0.7736  0.1873
 8809TIP3    H147842   1.252   2.838   2.276  1.2743  2.9329 -0.0665
 8809TIP3    H247843   1.394   2.862   2.321  1.5111 -0.6637  1.4417
 8810TIP3   OH247844   3.054   4.703  13.597 -0.8114  0.2899  0.0789
 8810TIP3    H147845   3.082   4.670  13.682 -2.1053 -4.0157 -0.9140
 8810TIP3    H247846   2.985   4.766  13.617  0.4530  1.1116  2.1842
 8811TIP3   OH247847   3.662   4.893  13.198 -0.8669 -0.8291 -0.7687
 8811TIP3    H147848   3.594   4.936  13.250 -1.1988 -0.1278 -1.7439
 8811TIP3    H247849   3.722   4.856  13.262 -2.7136 -2.3909  0.1502
 8812TIP3   OH247850   0.685   5.944  11.377  0.5913  0.4964  0.4400
 8812TIP3    H147851   0.594   5.913  11.379 -1.2417  4.9214 -1.0654
 8812TIP3    H247852   0.696   5.980  11.288  4.6466 -1.6124 -0.1531
 8813TIP3   OH247853   4.902   4.582  12.809 -0.6931 -0.0778 -0.1244
 8813TIP3    H147854   4.827   4.572  12.868  0.7671 -2.4266  1.5325
 8813TIP3    H247855   4.917   4.495  12.773  1.7084  0.0917  0.2606
 8814TIP3   OH247856   2.040   5.123   1.832 -0.1842  0.0254 -0.1337
 8814TIP3    H147857   2.018   5.114   1.739  0.9915 -0.8202 -0.3472
 8814TIP3    H247858   2.072   5.213   1.841  1.1889 -0.3580 -0.8912
 8815TIP3   OH247859   0.539   3.295  14.136  0.0313  0.2562 -0.0478
 8815TIP3    H147860   0.567   3.378  14.175  1.1993  0.1486 -0.6232
 8815TIP3    H247861   0.512   3.242  14.211 -1.7709  1.4927  0.2571
 8816TIP3   OH247862   3.039   3.376  14.053  0.1530  0.2595  0.1833
 8816TIP3    H147863   3.043   3.345  13.963 -1.3272 -1.0722  0.5559
 8816TIP3    H247864   3.050   3.471  14.046  2.2158 -0.0241 -1.1870
 8817TIP3   OH247865   5.547   4.530   3.222  0.2923  0.1997  0.1077
 8817TIP3    H147866   5.509   4.569   3.301 -0.5311  0.3093 -0.3357
 8817TIP3    H247867   5.622   4.480   3.254  0.6178  1.1295  0.8330
 8818TIP3   OH247868   5.975   7.022  10.681 -0.3798  0.1055  0.8775
 8818TIP3    H147869   6.000   7.030  10.589 -1.8631  0.5698  0.4850
 8818TIP3    H247870   5.970   6.927  10.696  0.6250  0.0137  0.7175
 8819TIP3   OH247871   0.121   1.973  13.199  0.4689 -0.6338 -0.0919
 8819TIP3    H147872   0.173   2.051  13.179 -1.6825  0.6991 -0.7753
 8819TIP3    H247873   0.097   1.983  13.291 -0.6830  0.0952 -0.4531
 8820TIP3   OH247874   4.397   3.645  15.279  0.4204  0.3052  0.0428
 8820TIP3    H147875   4.414   3.553  15.258 -3.1778 -0.2333 -1.2725
 8820TIP3    H247876   4.370   3.684  15.196 -0.7055  1.8247  1.0625
 8821TIP3   OH247877   1.780   0.727  10.410  0.0530 -0.0845 -1.0182
 8821TIP3    H147878   1.781   0.650  10.467  0.2655  0.6964  0.0569
 8821TIP3    H247879   1.689   0.758  10.412  0.0192 -0.1626 -1.2619
 8822TIP3   OH247880   3.158   3.588  13.463 -0.1604 -0.0233  0.1531
 8822TIP3    H147881   3.203   3.671  13.477  1.4196 -0.6676 -0.8937
 8822TIP3    H247882   3.077   3.612  13.417 -0.1842  1.0090  0.7059
 8823TIP3   OH247883   6.723   6.456  11.347 -0.0900 -0.0829 -0.3221
 8823TIP3    H147884   6.630   6.469  11.332 -0.2920 -2.5222 -1.6208
 8823TIP3    H247885   6.727   6.401  11.425  0.2416 -0.2186 -0.4336
 8824TIP3   OH247886   6.718   4.781  12.154  0.2021 -0.2108  0.2860
 8824TIP3    H147887   6.782   4.786  12.083  1.2002  1.5326  1.2350
 8824TIP3    H247888   6.693   4.689  12.157  3.6144 -1.2530  0.6798
 8825TIP3   OH247889   6.281   5.474   8.985 -0.1105  0.0018  0.5455
 8825TIP3    H147890   6.359   5.420   8.999  0.6711  0.9544 -0.0425
 8825TIP3    H247891   6.310   5.563   9.003 -0.4147  0.6699 -1.9395
 8826TIP3   OH247892   6.197   1.730  15.183  0.3641 -0.3747  0.2035
 8826TIP3    H147893   6.146   1.810  15.170  1.3998  0.2843  0.1454
 8826TIP3    H247894   6.288   1.759  15.185  0.7727 -1.5804 -0.0549
 8827TIP3   OH247895   4.704   0.458  14.350 -0.2278 -0.0568  0.7434
 8827TIP3    H147896   4.797   0.477  14.357 -0.7125  2.4423  1.2659
 8827TIP3    H247897   4.674   0.448  14.440 -0.3537 -1.6827  0.5515
 8828TIP3   OH247898   1.251   3.865  15.030 -0.0243  0.2199  1.0286
 8828TIP3    H147899   1.301   3.900  15.104 -1.6043  2.7955  0.9916
 8828TIP3    H247900   1.239   3.940  14.972 -0.1253 -1.3913 -1.1509
 8829TIP3   OH247901   1.629   5.135   9.729 -0.6044  0.3578  0.1698
 8829TIP3    H147902   1.646   5.058   9.675  0.2493  1.4560 -1.1911
 8829TIP3    H247903   1.534   5.148   9.723 -0.7027 -0.3569  0.0968
 8830TIP3   OH247904   5.306   4.045  13.541  0.1388 -0.0677 -0.7811
 8830TIP3    H147905   5.291   3.951  13.531 -2.5002  0.2183 -0.2358
 8830TIP3    H247906   5.230   4.086  13.499  0.7893  1.8069 -0.2394
 8831TIP3   OH247907   0.036   2.478  15.374 -0.4599 -0.3927 -0.3827
 8831TIP3    H147908   0.060   2.421  15.301 -0.3374 -0.4826 -0.2755
 8831TIP3    H247909  -0.048   2.516  15.350  0.1344  0.4969 -1.0893
 8832TIP3   OH247910   7.074   1.719  13.511  0.6330 -0.5523  0.1994
 8832TIP3    H147911   7.098   1.636  13.551  0.6207 -1.6106 -1.8746
 8832TIP3    H247912   7.006   1.697  13.447  0.7702  1.0059 -0.5475
 8833TIP3   OH247913   1.422   0.847  13.125 -0.2820  0.1633  0.6375
 8833TIP3    H147914   1.391   0.773  13.177  2.8440 -1.4271  0.5130
 8833TIP3    H247915   1.427   0.813  13.035 -1.0377  1.3229  0.1297
 8834TIP3   OH247916   5.732   1.421   2.949  0.7116 -0.1008  0.3305
 8834TIP3    H147917   5.776   1.490   2.900  1.2755 -1.2673 -0.8349
 8834TIP3    H247918   5.641   1.451   2.954  1.0601  1.0084  0.3835
 8835TIP3   OH247919   5.479   5.930  13.116  0.1991 -0.1599  0.3848
 8835TIP3    H147920   5.474   5.994  13.046 -2.2709 -1.0438 -0.3230
 8835TIP3    H247921   5.388   5.907  13.136  0.8462 -0.8045  3.0982
 8836TIP3   OH247922   0.340   0.003   1.528  0.0190  0.3898 -0.2704
 8836TIP3    H147923   0.317   0.071   1.592  1.4727  0.9132 -0.2704
 8836TIP3    H247924   0.421   0.035   1.488 -0.3889 -0.3760 -1.7338
 8837TIP3   OH247925   5.884   2.406  11.854 -0.3322  0.1473 -1.0514
 8837TIP3    H147926   5.796   2.444  11.860  0.0799  0.8622  1.4004
 8837TIP3    H247927   5.877   2.341  11.784 -2.9451 -0.1680 -0.6052
 8838TIP3   OH247928   5.831   3.884  10.699 -0.0903 -0.1367 -0.4594
 8838TIP3    H147929   5.840   3.857  10.791  0.9318 -1.7723 -0.9960
 8838TIP3    H247930   5.808   3.803  10.653 -0.0593  0.5521 -1.7320
 8839TIP3   OH247931   5.208   0.868  10.112 -0.4411 -0.4744 -0.4160
 8839TIP3    H147932   5.288   0.828  10.078 -0.1295  0.7635 -1.1858
 8839TIP3    H247933   5.164   0.797  10.159 -0.0141 -1.7682 -1.8906
 8840TIP3   OH247934   6.975   6.224   9.619  0.0733  0.5361 -0.4387
 8840TIP3    H147935   6.944   6.146   9.664 -0.7555  0.9379 -0.2955
 8840TIP3    H247936   7.047   6.193   9.563 -1.0362 -0.5600 -1.3061
 8841TIP3   OH247937   3.695   5.492  12.109 -0.3194  0.0678  0.8579
 8841TIP3    H147938   3.737   5.553  12.049 -1.1840 -0.7230 -0.5965
 8841TIP3    H247939   3.767   5.447  12.153  0.4006 -0.9655 -1.2737
 8842TIP3   OH247940   5.106   2.286   4.527  0.0280  0.1053 -0.0203
 8842TIP3    H147941   5.136   2.377   4.519  0.1840  0.1055  0.5314
 8842TIP3    H247942   5.109   2.252   4.438  1.2294  0.2442 -0.0498
 8843TIP3   OH247943   1.453   3.582  15.071  0.3768  0.7269  0.1879
 8843TIP3    H147944   1.504   3.509  15.106  0.8542 -0.2444 -2.2746
 8843TIP3    H247945   1.383   3.539  15.021 -0.8724  2.0249  0.7671
 8844TIP3   OH247946   5.203   2.135   2.093 -0.6396  0.2120 -0.1845
 8844TIP3    H147947   5.202   2.146   2.188  0.8602  0.5551 -0.1840
 8844TIP3    H247948   5.280   2.183   2.064 -0.7879 -0.3125 -1.5229
 8845TIP3   OH247949   0.050   1.425  11.945 -0.3773  0.3851 -0.0123
 8845TIP3    H147950   0.084   1.467  12.024 -0.2805  1.1153 -0.4345
 8845TIP3    H247951   0.038   1.333  11.970 -0.0033  0.5324  0.7381
 8846TIP3   OH247952   6.440   1.347   1.670  0.1431 -0.2958  0.1663
 8846TIP3    H147953   6.389   1.281   1.717  1.1356 -1.7836 -0.7771
 8846TIP3    H247954   6.402   1.349   1.582 -0.0894  0.6405  0.2802
 8847TIP3   OH247955   4.307   0.084   0.668  0.7932  0.3550  0.6357
 8847TIP3    H147956   4.343  -0.004   0.657 -0.0140  0.0945 -0.0043
 8847TIP3    H247957   4.255   0.079   0.748 -1.3711 -0.5108 -0.7290
 8848TIP3   OH247958   3.666   3.392   1.524 -0.3695 -0.3583 -0.7149
 8848TIP3    H147959   3.663   3.297   1.515 -0.0782 -0.7231  2.1076
 8848TIP3    H247960   3.575   3.420   1.516 -0.7083 -1.1253  0.2554
 8849TIP3   OH247961   6.592   7.151   9.811  0.4974  0.1863 -0.2642
 8849TIP3    H147962   6.587   7.090   9.737 -1.6877 -0.3783  0.2848
 8849TIP3    H247963   6.501   7.169   9.833  1.0976  2.5241  0.5492
 8850TIP3   OH247964   1.410   1.657  14.852  0.0954 -0.5597  0.8416
 8850TIP3    H147965   1.489   1.684  14.805  1.1115 -0.4762  2.5011
 8850TIP3    H247966   1.413   1.561  14.849 -1.0821 -0.5818 -1.1640
 8851TIP3   OH247967   4.804   2.200   0.910  0.3982  0.7783 -0.4106
 8851TIP3    H147968   4.781   2.287   0.877 -0.4967  0.5117 -0.5123
 8851TIP3    H247969   4.757   2.139   0.853 -2.1247  0.3153  1.9439
 8852TIP3   OH247970   3.733   3.454   4.212  0.0829 -0.3200 -0.6913
 8852TIP3    H147971   3.805   3.417   4.263  0.6286 -1.1839 -2.0165
 8852TIP3    H247972   3.656   3.405   4.239  0.1888 -0.1532 -0.0686
 8853TIP3   OH247973   0.202   1.742  14.849  0.5119 -0.0665  1.0459
 8853TIP3    H147974   0.283   1.767  14.893 -0.3218  0.9952  2.0647
 8853TIP3    H247975   0.135   1.747  14.918 -0.6756  0.6452 -0.1079
 8854TIP3   OH247976   6.773   6.738  13.721 -0.1127  0.0828  0.1567
 8854TIP3    H147977   6.701   6.795  13.748 -2.0708 -2.1906  0.0426
 8854TIP3    H247978   6.793   6.687  13.799 -2.1427 -2.7834 -1.0593
 8855TIP3   OH247979   3.222   2.863   1.160 -0.1494  0.4097  0.0264
 8855TIP3    H147980   3.253   2.951   1.181 -0.2747  0.1694  1.2621
 8855TIP3    H247981   3.218   2.862   1.064 -0.8677  1.9923  0.0079
 8856TIP3   OH247982   0.932   3.605   9.658 -0.1069  0.1335  0.4017
 8856TIP3    H147983   0.941   3.519   9.617  0.3535  0.0597  0.6544
 8856TIP3    H247984   0.857   3.596   9.717  0.8241 -0.5387  1.5308
 8857TIP3   OH247985   0.882   3.361   3.229 -0.1667  0.5757  0.6714
 8857TIP3    H147986   0.815   3.298   3.203  0.2168  0.5429 -0.2891
 8857TIP3    H247987   0.939   3.368   3.153  2.9546 -1.9637  2.5414
 8858TIP3   OH247988   1.931   2.337  13.633  0.6518 -0.2147 -0.2950
 8858TIP3    H147989   1.956   2.283  13.708 -0.1455 -2.5202 -1.5964
 8858TIP3    H247990   1.855   2.387  13.663  0.9511 -0.3625  0.7243
 8859TIP3   OH247991   0.045   4.389  14.051  0.0762 -0.0444  0.4467
 8859TIP3    H147992   0.069   4.479  14.027  2.1368 -0.0398  2.2943
 8859TIP3    H247993  -0.029   4.369  13.993  1.6143  1.6413 -2.3137
 8860TIP3   OH247994   6.463   2.637   5.676  0.2630  0.2291  0.0345
 8860TIP3    H147995   6.391   2.574   5.680 -1.8349  2.5180  0.4408
 8860TIP3    H247996   6.523   2.600   5.611 -0.1453 -2.8243  1.2371
 8861TIP3   OH247997   7.085   4.512  12.085  0.2187 -0.0600 -0.4998
 8861TIP3    H147998   7.000   4.507  12.129 -0.1467 -0.2049 -1.2207
 8861TIP3    H247999   7.116   4.601  12.105  0.4074 -0.3750  0.6760
 8862TIP3   OH248000   0.443   5.897   4.491  0.1848  0.5420  0.0555
 8862TIP3    H148001   0.495   5.817   4.501  1.8749  1.8101  2.2418
 8862TIP3    H248002   0.362   5.879   4.538 -0.6662 -0.7858 -1.7889
 8863TIP3   OH248003   3.630   0.733   5.008 -0.0699  0.5555 -0.3107
 8863TIP3    H148004   3.718   0.702   5.033  0.1858  0.5808 -1.1625
 8863TIP3    H248005   3.647   0.801   4.943 -0.7536 -0.1165 -1.2059
 8864TIP3   OH248006   4.625   4.696   9.315 -0.3212  0.6861  0.1451
 8864TIP3    H148007   4.635   4.766   9.250 -0.0479  0.1329 -0.4340
 8864TIP3    H248008   4.651   4.735   9.398  1.7256  0.7676 -0.4761
 8865TIP3   OH248009   0.857   5.746  10.348  0.3539 -0.7498 -0.0750
 8865TIP3    H148010   0.866   5.810  10.418  0.3717 -0.8949  0.0568
 8865TIP3    H248011   0.919   5.774  10.281 -0.2775 -0.1189 -0.4071
 8866TIP3   OH248012   3.646   2.671  13.845  0.9296 -0.5110  0.5164
 8866TIP3    H148013   3.597   2.740  13.800  3.5124  1.8872  1.0407
 8866TIP3    H248014   3.583   2.633  13.906 -0.9920  0.4094 -0.7815
 8867TIP3   OH248015   2.140   1.078  10.934 -0.1756  0.3794 -0.0020
 8867TIP3    H148016   2.103   1.166  10.923 -1.2231  0.0925  1.0557
 8867TIP3    H248017   2.142   1.064  11.028 -0.0463 -0.7444 -0.1553
 8868TIP3   OH248018   3.153   1.953   1.281  0.4051  0.3696  0.0440
 8868TIP3    H148019   3.239   1.948   1.323  0.3618 -0.0346  0.0860
 8868TIP3    H248020   3.096   1.989   1.348  0.5307  0.6013  0.0293
 8869TIP3   OH248021   2.067   3.727  14.268 -0.2851 -0.1947 -0.2013
 8869TIP3    H148022   1.996   3.760  14.213 -1.4485 -1.7863  0.2724
 8869TIP3    H248023   2.022   3.681  14.339  1.2198  0.1082  0.9887
 8870TIP3   OH248024   0.094   6.775   1.951  0.4263  0.0553 -0.5382
 8870TIP3    H148025   0.052   6.692   1.975 -1.2970  0.1685 -2.8290
 8870TIP3    H248026   0.186   6.752   1.941  0.4149 -0.9960  1.2899
 8871TIP3   OH248027   1.665   5.872   4.577 -0.1027  0.1281 -0.4479
 8871TIP3    H148028   1.635   5.809   4.511  0.1445  0.1325 -0.5648
 8871TIP3    H248029   1.759   5.859   4.581 -0.2360 -0.5625  0.6208
 8872TIP3   OH248030   5.009   2.796  15.116  0.0163  0.1385 -0.2939
 8872TIP3    H148031   4.971   2.882  15.135 -0.0857 -0.3268  1.8419
 8872TIP3    H248032   4.934   2.736  15.117  0.2606 -0.1707 -0.3857
 8873TIP3   OH248033   3.632   4.834  11.702 -0.0900 -0.4184 -0.1678
 8873TIP3    H148034   3.616   4.865  11.613  0.6138  1.3128  0.2664
 8873TIP3    H248035   3.727   4.843  11.714 -0.0341 -1.5544  0.4587
 8874TIP3   OH248036   5.978   4.510  13.596 -0.0128  0.3179 -0.0848
 8874TIP3    H148037   6.041   4.577  13.623 -0.3168  0.0971  1.2577
 8874TIP3    H248038   6.020   4.427  13.622  1.2404 -0.2513 -3.4374
 8875TIP3   OH248039   6.578   5.168  13.389 -0.1134 -0.1144 -0.0097
 8875TIP3    H148040   6.542   5.079  13.383 -0.3133 -0.0424  0.1347
 8875TIP3    H248041   6.522   5.220  13.333 -0.8749  0.2037  1.0238
 8876TIP3   OH248042   3.085   0.801   9.867  0.2905  0.1843 -0.7911
 8876TIP3    H148043   3.018   0.865   9.844  0.9222  1.1977  0.1098
 8876TIP3    H248044   3.040   0.716   9.860 -0.9805  0.8119 -0.5385
 8877TIP3   OH248045   6.386   5.954   5.050  0.2724 -0.1312 -0.9747
 8877TIP3    H148046   6.382   5.978   5.142 -0.5656  0.6722 -1.1975
 8877TIP3    H248047   6.298   5.924   5.029  0.5152 -0.5179 -1.4662
 8878TIP3   OH248048   6.643   2.324  13.650 -0.1257  0.5468  0.4498
 8878TIP3    H148049   6.692   2.311  13.731  0.0751  0.4776  0.3192
 8878TIP3    H248050   6.551   2.320  13.676 -0.1768 -2.8837  0.1987
 8879TIP3   OH248051   2.994   1.615   4.681  0.1405  0.1861  0.0405
 8879TIP3    H148052   2.956   1.576   4.602  1.9646  1.4001 -1.5524
 8879TIP3    H248053   2.955   1.703   4.684  1.1629  0.6740 -0.4008
 8880TIP3   OH248054   3.309   4.706   3.893 -0.0715  0.4830  0.3525
 8880TIP3    H148055   3.360   4.625   3.891  2.1061  1.7750 -0.5680
 8880TIP3    H248056   3.256   4.699   3.972  1.0515 -1.2433  1.0200
 8881TIP3   OH248057   6.399   0.103   1.104 -0.2105  0.0770  0.0771
 8881TIP3    H148058   6.407   0.078   1.196 -1.8881  1.0837  0.5550
 8881TIP3    H248059   6.305   0.117   1.091  0.0304  0.3408 -1.6898
 8882TIP3   OH248060   6.724   0.210  13.823  0.3855 -0.1357  1.0310
 8882TIP3    H148061   6.690   0.135  13.872  0.5815  0.0424  1.4435
 8882TIP3    H248062   6.683   0.286  13.865  0.9796  0.0553  1.2764
 8883TIP3   OH248063   0.864   6.734   0.834 -0.4783 -0.1576 -0.3260
 8883TIP3    H148064   0.875   6.663   0.897 -1.3964  2.2085  2.7316
 8883TIP3    H248065   0.770   6.751   0.834 -0.2762  1.0655 -0.9997
 8884TIP3   OH248066   2.304   3.784  13.555 -0.1297  0.2892 -0.0846
 8884TIP3    H148067   2.359   3.814  13.482 -1.2281  0.6234 -0.7948
 8884TIP3    H248068   2.347   3.820  13.633 -0.1240  1.8029 -0.7346
 8885TIP3   OH248069   2.406   2.268  15.285 -0.0566 -0.2324  0.2995
 8885TIP3    H148070   2.378   2.184  15.321  0.1128 -0.3995  0.0370
 8885TIP3    H248071   2.499   2.257  15.268  0.0299  0.1043  0.5382
 8886TIP3   OH248072   4.872   5.580   3.053  0.0994 -0.1006  0.0656
 8886TIP3    H148073   4.880   5.560   3.146 -0.0296 -0.9956 -0.1088
 8886TIP3    H248074   4.777   5.588   3.038 -0.0302 -2.0621 -0.3957
 8887TIP3   OH248075   0.561   6.679  12.807  0.0316 -0.1963  0.6366
 8887TIP3    H148076   0.477   6.719  12.782 -1.4417 -2.5430  1.5378
 8887TIP3    H248077   0.558   6.673  12.902  1.2358 -0.3296  0.6833
 8888TIP3   OH248078   1.638   6.209  15.417 -0.0636  0.0527  0.2320
 8888TIP3    H148079   1.689   6.234  15.339  1.0520  0.1667  0.9756
 8888TIP3    H248080   1.644   6.113  15.419  3.2958  0.1405  2.2851
 8889TIP3   OH248081   1.864   1.469   3.838  0.0326  0.6165 -0.3974
 8889TIP3    H148082   1.794   1.450   3.776 -0.6585  2.0092 -0.0698
 8889TIP3    H248083   1.825   1.455   3.924  1.0168 -1.4020 -0.2144
 8890TIP3   OH248084   2.024   4.684  12.390 -0.0121  0.5811 -0.3604
 8890TIP3    H148085   2.052   4.631  12.464  0.9042  2.1152  0.4297
 8890TIP3    H248086   1.931   4.702  12.407  0.1587  0.8184  0.3417
 8891TIP3   OH248087   3.367   2.425   2.750 -0.2669 -0.2070 -0.0247
 8891TIP3    H148088   3.349   2.375   2.831 -1.4218 -1.4516 -0.9986
 8891TIP3    H248089   3.463   2.428   2.745 -0.1166 -2.7716 -0.1294
 8892TIP3   OH248090   3.407   2.693  14.426 -0.2108  0.6251  0.5202
 8892TIP3    H148091   3.380   2.777  14.389  2.1092  1.4388  0.4973
 8892TIP3    H248092   3.422   2.710  14.519  0.2889  0.2652  0.5149
 8893TIP3   OH248093   2.395   5.546  11.559 -0.7828 -0.1942 -0.5250
 8893TIP3    H148094   2.373   5.557  11.651  1.7841 -0.0105  0.1520
 8893TIP3    H248095   2.397   5.451  11.546 -2.3395 -0.2181 -0.7553
 8894TIP3   OH248096   0.352   4.139   2.393  0.3621  0.7183 -0.4032
 8894TIP3    H148097   0.294   4.128   2.467  0.0905 -0.1502 -0.7259
 8894TIP3    H248098   0.294   4.144   2.317  0.5705  2.7127 -0.4902
 8895TIP3   OH248099   5.821   0.733   1.675  0.2967  0.1000 -0.3351
 8895TIP3    H148100   5.770   0.666   1.630 -0.9880  0.5399  0.4022
 8895TIP3    H248101   5.760   0.806   1.685  1.2964  0.9106 -0.0330
 8896TIP3   OH248102   5.673   6.898   4.164 -0.3137 -0.1928  0.1521
 8896TIP3    H148103   5.678   6.805   4.141 -2.4062 -0.2186 -0.3706
 8896TIP3    H248104   5.589   6.927   4.130  0.5247  2.0604 -0.1667
 8897TIP3   OH248105   2.993   5.403  12.555  0.2645  0.0572 -0.1591
 8897TIP3    H148106   3.073   5.356  12.533  1.0420  1.6203 -0.8716
 8897TIP3    H248107   3.014   5.451  12.635  0.3457  1.1075 -0.7854
 8898TIP3   OH248108   3.156   0.104  11.529 -0.0862 -0.6152 -0.0998
 8898TIP3    H148109   3.142   0.066  11.442 -1.0298  1.6321 -1.0131
 8898TIP3    H248110   3.107   0.186  11.527  1.2493  0.3060  1.9742
 8899TIP3   OH248111   3.100   1.784  11.367  0.0237  0.1692  0.0308
 8899TIP3    H148112   3.076   1.723  11.436 -0.5185  0.1659 -0.1595
 8899TIP3    H248113   3.084   1.871  11.404 -0.8512  0.1530 -0.3034
 8900TIP3   OH248114   2.411   4.192   0.082 -0.7788 -0.2012 -0.2185
 8900TIP3    H148115   2.343   4.249   0.119  0.3508  1.9799 -1.3183
 8900TIP3    H248116   2.380   4.174  -0.007  0.7116  2.1011 -1.2861
 8901TIP3   OH248117   2.256   3.139  12.561  0.2899  0.2228  0.1478
 8901TIP3    H148118   2.255   3.194  12.482  0.8221 -0.6342 -0.4718
 8901TIP3    H248119   2.291   3.197  12.629 -3.9043  2.3088  0.8439
 8902TIP3   OH248120   4.056   0.065  14.424  0.1955  0.1330  0.6913
 8902TIP3    H148121   4.068  -0.006  14.486  0.0911  0.1945  0.7812
 8902TIP3    H248122   4.109   0.137  14.459 -1.1389  0.7070  1.5644
 8903TIP3   OH248123   1.397   2.694  12.440  0.2958  0.0821 -0.4158
 8903TIP3    H148124   1.474   2.725  12.392 -0.1173  0.8450 -0.6162
 8903TIP3    H248125   1.329   2.758  12.419 -0.6123 -0.9992 -0.8509
 8904TIP3   OH248126   0.851   3.860  13.298 -0.2221 -0.1228 -0.5216
 8904TIP3    H148127   0.879   3.855  13.207 -2.0859 -2.2717 -1.0707
 8904TIP3    H248128   0.812   3.947  13.307 -0.8704 -0.2359 -2.0571
 8905TIP3   OH248129   1.031   1.158   3.318  0.4681  0.7909  0.3464
 8905TIP3    H148130   0.944   1.197   3.329  1.2713  2.3447  1.6794
 8905TIP3    H248131   1.076   1.217   3.257  0.4547 -0.3160 -0.7889
 8906TIP3   OH248132   2.916   1.057  13.439 -0.3907  0.1068 -0.2502
 8906TIP3    H148133   2.911   1.059  13.344 -1.7735  0.7028 -0.1988
 8906TIP3    H248134   3.009   1.071  13.459 -0.0369 -0.3485 -1.5001
 8907TIP3   OH248135   5.046   5.408  15.099 -0.2273  0.2876  0.3070
 8907TIP3    H148136   5.079   5.337  15.044 -0.8866 -1.2377  1.8006
 8907TIP3    H248137   5.051   5.485  15.043 -0.9749 -1.1980 -1.9609
 8908TIP3   OH248138   3.296   2.132   0.738 -0.5421 -0.3184  0.3182
 8908TIP3    H148139   3.256   2.209   0.699 -1.2711  0.0526  1.7351
 8908TIP3    H248140   3.374   2.164   0.782 -0.7639 -0.3923  0.7804
 8909TIP3   OH248141   0.972   1.745  14.948  0.0436 -0.0323  0.4758
 8909TIP3    H148142   1.025   1.813  14.906 -0.0967  0.5347  1.2122
 8909TIP3    H248143   1.037   1.683  14.984  0.1684 -0.3760 -0.3088
 8910TIP3   OH248144   5.379   1.521  15.252  0.0952 -0.2925 -0.3586
 8910TIP3    H148145   5.297   1.490  15.213 -0.7763  0.1331  1.0538
 8910TIP3    H248146   5.411   1.446  15.302  0.2912 -0.2927 -0.4853
 8911TIP3   OH248147   1.544   7.158  10.838  0.3684 -0.5221  0.0215
 8911TIP3    H148148   1.506   7.099  10.903  1.3382 -3.2327 -1.7413
 8911TIP3    H248149   1.469   7.205  10.802 -0.3776 -0.2542  1.8031
 8912TIP3   OH248150   4.239   6.903  14.116  0.0340 -0.5082 -0.2036
 8912TIP3    H148151   4.203   6.990  14.133  1.5426  0.1211 -0.0578
 8912TIP3    H248152   4.209   6.850  14.190 -0.9355 -0.1387 -0.3156
 8913TIP3   OH248153   2.691   0.968  11.700  0.5475  0.1114  0.0643
 8913TIP3    H148154   2.615   0.910  11.708  0.2741  0.2226 -1.4431
 8913TIP3    H248155   2.679   1.033  11.769 -0.2110 -0.4459  0.4694
 8914TIP3   OH248156   6.274   4.006  15.012 -0.2066  0.3470  0.4153
 8914TIP3    H148157   6.204   4.066  14.988 -0.3817  0.0857  0.2739
 8914TIP3    H248158   6.322   3.992  14.931 -1.3618 -1.2862 -0.0296
 8915TIP3   OH248159   5.051   2.497  11.502 -0.3059  0.2392  0.4431
 8915TIP3    H148160   5.068   2.545  11.582  1.0214 -0.8943  0.8860
 8915TIP3    H248161   4.961   2.464  11.512 -0.0141 -0.2501  1.6753
 8916TIP3   OH248162   4.738   4.421  14.908 -0.0417 -0.2476 -0.3322
 8916TIP3    H148163   4.817   4.475  14.906 -1.0969  1.3729  0.0283
 8916TIP3    H248164   4.705   4.423  14.819 -1.0655  1.2631  0.0526
 8917TIP3   OH248165   2.870   0.771  11.728  0.4839  0.3142  0.6447
 8917TIP3    H148166   2.923   0.793  11.652 -0.9182  1.4277 -0.0582
 8917TIP3    H248167   2.794   0.829  11.723 -1.8949 -2.5249  0.4411
 8918TIP3   OH248168   1.082   4.939  10.932 -0.9492  0.3123 -0.3566
 8918TIP3    H148169   1.119   4.947  11.020 -0.7688  1.3416 -0.5247
 8918TIP3    H248170   1.052   5.027  10.910 -0.6256  0.1481 -1.4908
 8919TIP3   OH248171   0.783   1.077   2.842  0.2512 -0.0779 -0.2221
 8919TIP3    H148172   0.795   1.167   2.873 -1.3976 -0.2386  0.9893
 8919TIP3    H248173   0.857   1.062   2.783  1.4658  1.5041  0.8281
 8920TIP3   OH248174   4.317   5.176   0.621  0.5749  0.6929 -0.0346
 8920TIP3    H148175   4.274   5.144   0.700 -2.0127 -1.7358 -2.1857
 8920TIP3    H248176   4.288   5.267   0.613 -0.6167  0.4130  0.8655
 8921TIP3   OH248177   0.207   3.634   9.467  0.0408 -0.4222  0.0265
 8921TIP3    H148178   0.114   3.651   9.482 -0.0264 -0.0359 -0.7663
 8921TIP3    H248179   0.242   3.717   9.436  1.0166 -0.0987  1.8595
 8922TIP3   OH248180   4.033   3.455  14.789  0.2306 -0.0591  0.9744
 8922TIP3    H148181   4.000   3.366  14.799 -0.4773 -0.4501 -3.0025
 8922TIP3    H248182   3.964   3.511  14.825 -1.5718 -1.0793 -0.7180
 8923TIP3   OH248183   6.357   0.439  12.392  0.4459  0.3789  0.2128
 8923TIP3    H148184   6.432   0.484  12.354 -0.2721  1.3428 -0.1022
 8923TIP3    H248185   6.356   0.466  12.483 -0.4870  1.7413 -0.1722
 8924TIP3   OH248186   0.011   0.903  13.992 -0.0720 -0.0798  0.6054
 8924TIP3    H148187  -0.002   0.997  13.991 -4.8155 -0.5017  1.2782
 8924TIP3    H248188   0.035   0.881  13.902 -0.9510  1.5879 -0.0835
 8925TIP3   OH248189   0.266   1.947  10.487 -0.2575  0.3393 -0.0672
 8925TIP3    H148190   0.272   1.998  10.407 -0.4478  2.2138  1.0702
 8925TIP3    H248191   0.296   2.006  10.556 -2.9436 -0.1396  1.6741
 8926TIP3   OH248192   2.250   2.481  11.685 -0.0767 -0.3460  0.5273
 8926TIP3    H148193   2.189   2.414  11.714  0.8241 -1.9189 -1.0284
 8926TIP3    H248194   2.220   2.506  11.598  1.2792 -0.9436 -0.1439
 8927TIP3   OH248195   4.413   6.494  13.364  0.8537 -1.0430  0.1674
 8927TIP3    H148196   4.392   6.571  13.416  2.3553 -0.2266 -0.3718
 8927TIP3    H248197   4.337   6.483  13.306  1.5319  1.4259 -1.3142
 8928TIP3   OH248198   6.431   2.856   1.829 -0.0913  0.2763 -0.5621
 8928TIP3    H148199   6.366   2.824   1.765 -0.4453  1.1503 -0.6562
 8928TIP3    H248200   6.390   2.841   1.914 -0.1059  0.1683 -0.5872
 8929TIP3   OH248201   1.484   6.269   1.095 -0.3038  0.2375  0.0357
 8929TIP3    H148202   1.449   6.330   1.030 -0.4806 -0.7431 -0.8221
 8929TIP3    H248203   1.461   6.308   1.180 -3.4454 -0.2614 -0.4554
 8930TIP3   OH248204   5.621   4.715   1.073 -0.0777 -0.8992  0.3184
 8930TIP3    H148205   5.664   4.756   1.148  0.7402 -0.4350 -0.3752
 8930TIP3    H248206   5.620   4.622   1.093  1.5506 -0.9626  0.2516
 8931TIP3   OH248207   3.551   4.303  10.717  0.3720 -0.2201 -0.1506
 8931TIP3    H148208   3.498   4.375  10.682  0.7866  2.0420  3.4063
 8931TIP3    H248209   3.639   4.322  10.687  0.5932  1.2510  1.2844
 8932TIP3   OH248210   6.574   4.003   0.490 -0.0761  0.1375  0.2559
 8932TIP3    H148211   6.482   3.982   0.472 -0.0453  0.2224 -0.0152
 8932TIP3    H248212   6.621   3.923   0.470 -0.1341 -0.0414  0.8093
 8933TIP3   OH248213   1.146   6.217  12.165  0.6804 -0.1323  0.2004
 8933TIP3    H148214   1.081   6.272  12.122  0.0454 -0.8739  0.1855
 8933TIP3    H248215   1.094   6.156  12.217  1.1496 -2.9274 -2.3607
 8934TIP3   OH248216   1.740   2.846  10.093 -0.1542  0.1768 -0.2888
 8934TIP3    H148217   1.750   2.941  10.096 -0.5953  0.2672 -1.2023
 8934TIP3    H248218   1.647   2.832  10.074 -0.2497 -0.4577  0.5967
 8935TIP3   OH248219   5.968   2.825  10.108  0.0980 -0.0897  0.5883
 8935TIP3    H148220   5.996   2.913  10.086  0.6833 -0.3667  0.2230
 8935TIP3    H248221   5.886   2.838  10.156  0.9396  0.7281  1.8486
 8936TIP3   OH248222   3.629   6.353  12.322 -0.2143 -0.3747  0.1856
 8936TIP3    H148223   3.679   6.273  12.303 -0.9979 -0.7494 -0.3266
 8936TIP3    H248224   3.696   6.422  12.329  0.4668 -1.0592  0.5972
 8937TIP3   OH248225   4.949   5.344  10.681 -0.0146  0.2025 -0.1363
 8937TIP3    H148226   4.922   5.433  10.656 -0.7379 -0.5249 -2.1171
 8937TIP3    H248227   4.992   5.309  10.603 -1.3774 -1.8128 -0.0653
 8938TIP3   OH248228   5.076   1.847  14.025 -0.0542 -0.2045 -0.0199
 8938TIP3    H148229   5.013   1.797  13.972  0.4235 -0.5588 -0.2615
 8938TIP3    H248230   5.072   1.936  13.990  1.8071 -0.8697 -2.1225
 8939TIP3   OH248231   5.293   1.263  12.322  0.1101  0.0117 -0.0667
 8939TIP3    H148232   5.298   1.250  12.228  0.6084 -0.1634 -0.0206
 8939TIP3    H248233   5.383   1.279  12.349 -0.2067  1.4981  0.1937
 8940TIP3   OH248234   2.864   2.726  15.072  0.1628 -0.1365 -0.1527
 8940TIP3    H148235   2.864   2.731  15.168  0.9983  0.3298 -0.1708
 8940TIP3    H248236   2.891   2.813  15.043 -0.2624 -0.2213 -0.8245
 8941TIP3   OH248237   2.016   3.159  14.044  0.0731  0.4022  0.1453
 8941TIP3    H148238   1.946   3.225  14.045  0.8272  1.2302  1.6942
 8941TIP3    H248239   2.063   3.172  14.126  1.8208 -0.4024 -0.6683
 8942TIP3   OH248240   1.719   5.081  15.090  0.1387 -0.0821  0.2694
 8942TIP3    H148241   1.802   5.045  15.120 -0.6897 -2.2614  0.0956
 8942TIP3    H248242   1.666   5.005  15.068 -0.0045  1.1930 -5.1159
 8943TIP3   OH248243   2.672   6.373   2.782  0.3497  0.1511  1.0050
 8943TIP3    H148244   2.635   6.304   2.838  0.8236  0.1715  1.3485
 8943TIP3    H248245   2.654   6.454   2.828  2.3580  0.0452  2.0848
 8944TIP3   OH248246   3.073   6.526  10.705 -0.0267 -0.0964  0.2548
 8944TIP3    H148247   3.084   6.466  10.778 -0.2244  1.4448  1.6170
 8944TIP3    H248248   3.080   6.613  10.745  1.8906  0.8244 -1.8858
 8945TIP3   OH248249   2.383   5.204  10.787  0.0997 -0.2321 -0.0843
 8945TIP3    H148250   2.389   5.293  10.751 -0.1487 -0.1806 -0.0027
 8945TIP3    H248251   2.322   5.159  10.729  0.1405 -0.3170 -0.0611
 8946TIP3   OH248252   5.352   0.160   4.936  0.1022 -0.1320  0.1528
 8946TIP3    H148253   5.269   0.197   4.967  0.7497  1.6354 -0.0874
 8946TIP3    H248254   5.419   0.204   4.990  1.1530  1.8071 -2.4887
 8947TIP3   OH248255   3.456   4.986  11.078 -0.5177  0.3110 -0.4025
 8947TIP3    H148256   3.409   4.902  11.075  0.1146 -0.0220 -1.6628
 8947TIP3    H248257   3.542   4.966  11.040 -0.1946  1.4344 -0.2753
 8948TIP3   OH248258   2.619   3.322   2.512  0.5859 -0.1103 -0.0925
 8948TIP3    H148259   2.615   3.279   2.427 -0.5772 -0.0429 -0.0931
 8948TIP3    H248260   2.548   3.283   2.562  1.3994 -0.3089  0.9415
 8949TIP3   OH248261   5.896   2.563   9.617  0.2814 -0.7921  0.1083
 8949TIP3    H148262   5.839   2.518   9.679  2.2694 -2.0096  1.1678
 8949TIP3    H248263   5.884   2.515   9.535 -0.6131 -0.6562  0.1444
 8950TIP3   OH248264   2.837   2.751  13.143  0.6091 -0.2505 -0.2401
 8950TIP3    H148265   2.832   2.673  13.199  0.1950  0.9367  1.4417
 8950TIP3    H248266   2.803   2.722  13.058  0.6317 -1.9348  0.2902
 8951TIP3   OH248267   1.085   5.757  15.441  0.1589 -0.3521 -0.1811
 8951TIP3    H148268   1.135   5.684  15.478  0.1772  0.9855  2.6763
 8951TIP3    H248269   1.151   5.819  15.411  0.1657 -0.3452 -0.1523
 8952TIP3   OH248270   4.182   0.610  15.283  0.2131 -0.4070 -0.1066
 8952TIP3    H148271   4.244   0.632  15.354 -2.4502 -0.5673  2.4735
 8952TIP3    H248272   4.115   0.557  15.326 -2.2514  0.5826 -2.4554
 8953TIP3   OH248273   2.180   5.755  13.508 -0.1811  0.1985  0.3341
 8953TIP3    H148274   2.231   5.715  13.578 -0.0648  0.1725  0.2354
 8953TIP3    H248275   2.094   5.712  13.513  0.0088 -0.2191  0.0941
 8954TIP3   OH248276   2.563   6.334  11.530  0.0514  0.0236 -0.2144
 8954TIP3    H148277   2.542   6.261  11.589  0.4725 -0.5370 -0.7384
 8954TIP3    H248278   2.513   6.408  11.564  0.8547 -0.0854  1.2946
 8955TIP3   OH248279   4.045   3.347  13.208  0.1650  1.0190 -0.1422
 8955TIP3    H148280   3.999   3.264  13.215 -0.3498  1.1550 -1.5740
 8955TIP3    H248281   4.127   3.334  13.256 -0.0560 -0.1937 -0.0676
 8956TIP3   OH248282   2.114   0.198   1.004 -0.2158 -0.4685  0.0675
 8956TIP3    H148283   2.073   0.234   0.926 -1.6104  0.9154  1.3687
 8956TIP3    H248284   2.206   0.191   0.982 -0.5634  0.0000 -1.6540
 8957TIP3   OH248285   0.828   1.013  12.633 -0.1911  0.5299  0.4570
 8957TIP3    H148286   0.851   1.074  12.563 -1.9791  1.3777  0.5382
 8957TIP3    H248287   0.767   1.062  12.688 -2.5262 -1.6115 -0.0382
 8958TIP3   OH248288   2.976   4.961   9.298 -0.2530  0.1514 -0.3828
 8958TIP3    H148289   2.925   4.966   9.379  0.6206  0.6793  0.1553
 8958TIP3    H248290   2.950   5.039   9.249  1.8330  1.8639  1.0259
 8959TIP3   OH248291   0.391   4.559  11.320  0.1312 -0.3165  0.8606
 8959TIP3    H148292   0.468   4.614  11.309  0.9000 -1.6965 -1.3683
 8959TIP3    H248293   0.402   4.518  11.406  2.2184 -0.9210  0.3519
 8960TIP3   OH248294   5.908   4.777   0.568 -0.1692  0.0016 -0.6101
 8960TIP3    H148295   5.843   4.776   0.498 -0.3207  2.9201 -0.6050
 8960TIP3    H248296   5.858   4.800   0.647  0.4322 -0.5531 -0.0556
 8961TIP3   OH248297   6.936   5.830   4.274 -0.0399  0.2654 -0.5046
 8961TIP3    H148298   6.889   5.762   4.227 -1.0215 -0.7320  1.7830
 8961TIP3    H248299   7.006   5.783   4.321  1.3996  1.3317 -1.4722
 8962TIP3   OH248300   1.496   3.960  13.067 -0.1677 -0.1712  0.5659
 8962TIP3    H148301   1.524   3.869  13.058 -1.1578 -0.3594 -0.7964
 8962TIP3    H248302   1.439   3.976  12.992 -0.2988  1.4742  0.9719
 8963TIP3   OH248303   6.283   4.620  10.376  0.2605  0.0917  0.5230
 8963TIP3    H148304   6.275   4.696  10.433  0.5178 -0.3221  1.1238
 8963TIP3    H248305   6.209   4.564  10.400 -0.8145  0.8129 -0.9680
 8964TIP3   OH248306   0.110   1.701   3.970  0.0651 -0.3545  0.2885
 8964TIP3    H148307   0.122   1.638   3.899  0.1121 -0.0610  0.0353
 8964TIP3    H248308   0.069   1.651   4.040 -0.0841 -0.6165  0.0112
 8965TIP3   OH248309   4.209   4.856   3.600  0.7837 -0.3304  0.0809
 8965TIP3    H148310   4.271   4.795   3.638 -0.0174 -0.2242  1.6651
 8965TIP3    H248311   4.259   4.904   3.534  2.4195 -0.1423  1.3899
 8966TIP3   OH248312   1.624   5.729  10.769  0.3224  0.1550  0.5418
 8966TIP3    H148313   1.689   5.658  10.777  0.1246 -0.2136 -0.9837
 8966TIP3    H248314   1.602   5.731  10.677 -0.0985  1.8640  0.6574
 8967TIP3   OH248315   0.719   4.792   1.198 -0.5586  0.2205 -0.3480
 8967TIP3    H148316   0.729   4.872   1.145 -1.2569 -0.3875 -1.4506
 8967TIP3    H248317   0.648   4.812   1.259 -0.6623  0.4771 -0.5515
 8968TIP3   OH248318   2.494   1.588   4.646  0.1716 -0.2469 -0.6586
 8968TIP3    H148319   2.514   1.526   4.575  1.3857 -0.5092 -0.0953
 8968TIP3    H248320   2.533   1.550   4.724 -1.0285  0.1159  0.1575
 8969TIP3   OH248321   5.688   4.388   3.535  0.1219  0.2056  0.3270
 8969TIP3    H148322   5.695   4.468   3.586  0.2471 -0.5990  1.6168
 8969TIP3    H248323   5.765   4.389   3.478 -0.6645  1.7171 -0.7801
 8970TIP3   OH248324   0.220   0.491  15.370 -0.3140  0.4363 -0.5717
 8970TIP3    H148325   0.310   0.461  15.384 -1.2995 -2.3131  0.7484
 8970TIP3    H248326   0.190   0.440  15.295 -1.1193  0.4592 -0.2710
 8971TIP3   OH248327   2.242   1.751   4.389  0.2297 -0.5231 -0.5185
 8971TIP3    H148328   2.203   1.664   4.384  1.5587 -1.2077  0.3501
 8971TIP3    H248329   2.288   1.751   4.473  0.1014  1.0950 -0.4160
 8972TIP3   OH248330   2.875   5.856   4.072 -0.4011 -0.5158  0.4505
 8972TIP3    H148331   2.847   5.769   4.043 -1.0797  0.1516 -1.0345
 8972TIP3    H248332   2.795   5.906   4.079  0.0094  0.0696  1.0272
 8973TIP3   OH248333   3.577   5.558   0.009  0.3156 -0.7153 -0.0155
 8973TIP3    H148334   3.602   5.603   0.090 -0.0505  0.3485 -0.4727
 8973TIP3    H248335   3.486   5.532   0.023  0.0963 -0.0969 -0.2605
 8974TIP3   OH248336   0.075   3.829   2.953  0.3773 -0.0919 -0.2183
 8974TIP3    H148337   0.084   3.853   3.045  1.8710  0.4753 -0.4742
 8974TIP3    H248338   0.122   3.746   2.945  0.6743  0.1073 -0.5617
 8975TIP3   OH248339   3.856   6.440  11.766 -1.1561  0.2089  0.5867
 8975TIP3    H148340   3.883   6.451  11.857 -0.8618 -1.2755  0.7048
 8975TIP3    H248341   3.841   6.529  11.734 -0.0543  0.8214  1.7161
 8976TIP3   OH248342   4.622   5.344  10.697 -0.7451  0.9094  0.2075
 8976TIP3    H148343   4.528   5.359  10.688 -0.2173  4.1438 -1.2188
 8976TIP3    H248344   4.654   5.336  10.608  0.3356 -0.8139  0.6933
 8977TIP3   OH248345   3.799   2.617   1.362 -0.4083 -0.6588  0.0339
 8977TIP3    H148346   3.735   2.677   1.402  2.5165  2.6060  0.3523
 8977TIP3    H248347   3.778   2.619   1.269 -2.0120 -1.3867  0.3456
 8978TIP3   OH248348   2.940   3.154  12.397 -0.1213 -0.6685 -0.6096
 8978TIP3    H148349   2.857   3.142  12.443 -0.0154 -1.5757 -0.6327
 8978TIP3    H248350   3.005   3.116  12.456  0.2018 -0.4692 -0.8401
 8979TIP3   OH248351   4.568   2.434   4.192  0.3099  0.0451  0.1418
 8979TIP3    H148352   4.556   2.372   4.265  0.7807 -0.4019 -0.1542
 8979TIP3    H248353   4.638   2.395   4.139  0.1317  0.4852 -0.4226
 8980TIP3   OH248354   3.742   3.138   2.279  0.4954  0.0446  0.0919
 8980TIP3    H148355   3.746   3.142   2.374  1.3166  0.2738  0.0477
 8980TIP3    H248356   3.676   3.204   2.255 -1.0969 -1.2863  0.5939
 8981TIP3   OH248357   5.251   6.664  11.681 -0.1780  0.2435 -0.1271
 8981TIP3    H148358   5.194   6.587  11.683 -0.4698  0.4171 -1.2334
 8981TIP3    H248359   5.191   6.739  11.679  0.0960  0.4664 -0.0738
 8982TIP3   OH248360   3.890   4.581  13.463 -0.0209 -0.4724 -0.0012
 8982TIP3    H148361   3.976   4.605  13.497  0.9547 -1.6068 -1.4911
 8982TIP3    H248362   3.886   4.622  13.376 -0.8570 -0.6777 -0.0731
 8983TIP3   OH248363   5.275   1.306   2.791 -0.0693 -0.0297 -0.3375
 8983TIP3    H148364   5.334   1.379   2.774  0.9268  0.2863  3.5099
 8983TIP3    H248365   5.319   1.230   2.755  0.1034  0.8713 -2.1213
 8984TIP3   OH248366   5.275   5.502   5.747  0.0087  0.5004 -0.2110
 8984TIP3    H148367   5.324   5.565   5.799  0.0879 -0.5034  0.9836
 8984TIP3    H248368   5.303   5.417   5.780  0.6760 -0.2328 -2.4787
 8985TIP3   OH248369   6.370   4.325   1.610  0.0229 -0.2926 -0.1967
 8985TIP3    H148370   6.426   4.380   1.665 -0.1600 -0.1780 -0.1239
 8985TIP3    H248371   6.348   4.380   1.535  0.4752 -0.5352 -0.5052
 8986TIP3   OH248372   6.610   3.765  13.224  0.7551 -0.1752  0.3275
 8986TIP3    H148373   6.521   3.737  13.207 -0.1739  1.9495  1.2320
 8986TIP3    H248374   6.618   3.761  13.320  1.5008 -0.0324  0.2778
 8987TIP3   OH248375   0.859   3.086   9.917 -0.4694  0.2661  0.3506
 8987TIP3    H148376   0.951   3.098   9.941 -0.8378  2.0405  1.0628
 8987TIP3    H248377   0.858   3.089   9.822  0.1565  0.9698  0.3572
 8988TIP3   OH248378   6.073   3.521  14.850 -0.8430  0.5471  0.5568
 8988TIP3    H148379   6.129   3.576  14.795 -1.0286  0.3985  0.2191
 8988TIP3    H248380   6.082   3.559  14.938  1.0399 -0.4291  0.8345
 8989TIP3   OH248381   1.762   5.749   9.670  0.0456  0.1346  0.0657
 8989TIP3    H148382   1.697   5.745   9.600 -1.7957  2.7142  1.4518
 8989TIP3    H248383   1.813   5.828   9.650  0.4625  0.0646  0.8352
 8990TIP3   OH248384   0.766   1.016  10.983  0.6851  0.2267 -0.1714
 8990TIP3    H148385   0.709   1.017  10.906 -2.4213 -0.8468  1.9207
 8990TIP3    H248386   0.783   0.923  11.000  1.7103  0.4633  0.1981
 8991TIP3   OH248387   1.137   2.027  11.114  0.1288 -0.0864 -0.4519
 8991TIP3    H148388   1.092   2.111  11.115 -1.5439 -0.8666 -2.3116
 8991TIP3    H248389   1.089   1.972  11.176 -0.3624 -0.3706 -1.0689
 8992TIP3   OH248390   6.746   1.256  15.243 -0.1696  0.0317 -0.3268
 8992TIP3    H148391   6.752   1.250  15.148 -1.4797  0.9871 -0.4950
 8992TIP3    H248392   6.836   1.245  15.273  0.3750  0.4725 -1.7148
 8993TIP3   OH248393   5.552   3.942  11.698 -0.1692  0.4810 -0.3628
 8993TIP3    H148394   5.478   3.883  11.684  0.0958  0.4375 -1.6661
 8993TIP3    H248395   5.539   4.012  11.634 -0.1070  1.4897  0.6927
 8994TIP3   OH248396   6.015   5.778  11.693  0.3929 -0.7981  0.4389
 8994TIP3    H148397   6.026   5.841  11.764 -3.4463 -1.3256  1.7135
 8994TIP3    H248398   5.956   5.821  11.631 -0.1960 -2.1561  0.0165
 8995TIP3   OH248399   3.176   2.918  14.850  0.3920 -0.4502 -0.4519
 8995TIP3    H148400   3.249   2.920  14.788  0.3654 -1.7724 -0.5541
 8995TIP3    H248401   3.218   2.919  14.936  0.4503  0.7203 -0.4806
 8996TIP3   OH248402   3.171   6.006   1.714  0.1809 -0.0183 -0.1688
 8996TIP3    H148403   3.180   5.955   1.634 -0.1491 -0.3629  0.0088
 8996TIP3    H248404   3.164   5.940   1.783  1.7031  0.2558  0.2984
 8997TIP3   OH248405   1.680   4.711  12.934 -0.2751  0.4327 -0.1964
 8997TIP3    H148406   1.657   4.758  12.854 -1.2287  0.3866  0.0316
 8997TIP3    H248407   1.650   4.769  13.004  0.7725  0.5850  0.1446
 8998TIP3   OH248408   0.298   7.147   1.031  0.5087 -0.3642 -0.0825
 8998TIP3    H148409   0.269   7.180   1.115  2.3176 -0.6311  0.6875
 8998TIP3    H248410   0.337   7.062   1.050 -0.4007 -1.1308 -1.4287
 8999TIP3   OH248411   5.026   0.010   0.530  0.1132  0.4099  0.4434
 8999TIP3    H148412   5.018   0.016   0.625 -0.2442  1.0160  0.3840
 8999TIP3    H248413   5.054  -0.080   0.513 -1.8435 -0.3425  0.9950
 9000TIP3   OH248414   6.029   0.117   9.035 -0.0007  0.4168  0.1964
 9000TIP3    H148415   6.041   0.089   8.944  0.5539  0.0198  0.3879
 9000TIP3    H248416   6.081   0.055   9.086 -1.0170  0.0944  0.8688
 9001TIP3   OH248417   7.048   1.641   0.430 -0.1713 -0.9476  0.7269
 9001TIP3    H148418   7.069   1.713   0.370  1.2821  0.1326  2.4378
 9001TIP3    H248419   7.103   1.569   0.400 -0.5428 -0.9101 -0.0973
 9002TIP3   OH248420   2.660   0.780  14.576  0.3676 -0.7230  0.5916
 9002TIP3    H148421   2.579   0.803  14.531 -0.7783  1.8717  3.6045
 9002TIP3    H248422   2.643   0.694  14.614 -0.1526 -1.1060 -0.4481
 9003TIP3   OH248423   2.968   5.847  15.075  0.2899 -0.5616 -0.0273
 9003TIP3    H148424   3.043   5.852  15.135  0.2876 -1.5496  0.0780
 9003TIP3    H248425   3.005   5.816  14.992  0.5138  2.0836 -0.9853
 9004TIP3   OH248426   4.923   1.730  11.710 -0.0988 -0.0445 -0.0354
 9004TIP3    H148427   4.976   1.794  11.757 -1.5887  1.2472 -0.0112
 9004TIP3    H248428   4.977   1.704  11.635  0.9398  0.4748  0.5148
 9005TIP3   OH248429   2.681   2.384  10.782 -0.1301  0.0622 -0.2790
 9005TIP3    H148430   2.733   2.433  10.846  0.5882  0.0623 -0.8534
 9005TIP3    H248431   2.590   2.407  10.803  0.0991  0.1571  0.6558
 9006TIP3   OH248432   4.423   4.137   2.174 -0.0367 -0.0954 -0.1743
 9006TIP3    H148433   4.337   4.168   2.147  0.3630  0.1111 -1.2996
 9006TIP3    H248434   4.407   4.085   2.253 -1.2587 -0.5451 -0.6935
 9007TIP3   OH248435   0.341   0.085  10.782  0.0775 -0.2663 -0.3487
 9007TIP3    H148436   0.342   0.163  10.727  0.0287 -0.1186 -0.1391
 9007TIP3    H248437   0.351   0.012  10.720 -2.4233 -0.2848 -0.8551
 9008TIP3   OH248438   0.606   3.638   0.257  0.1817  0.5220 -0.3579
 9008TIP3    H148439   0.674   3.577   0.228  0.3606  0.4595  0.1935
 9008TIP3    H248440   0.578   3.681   0.176 -0.5389 -0.8851 -0.8906
 9009TIP3   OH248441   4.316   4.670  10.635  0.2635  0.3052 -0.1631
 9009TIP3    H148442   4.395   4.616  10.647  0.6712  1.0544  0.6412
 9009TIP3    H248443   4.339   4.754  10.674 -1.3459  0.1576  1.2338
 9010TIP3   OH248444   1.514   1.767  10.474 -0.0873 -0.4060  0.3038
 9010TIP3    H148445   1.480   1.681  10.500 -0.8214  0.0327  0.8443
 9010TIP3    H248446   1.550   1.804  10.555  0.8776 -0.4839 -0.0749
 9011TIP3   OH248447   0.443   4.493  11.583 -0.3089  0.0962  0.7729
 9011TIP3    H148448   0.454   4.407  11.541  0.8401  0.3220  0.5815
 9011TIP3    H248449   0.417   4.472  11.672  0.4846 -0.4917  0.8883
 9012TIP3   OH248450   5.772   5.581   1.458  0.5393  0.7214 -0.5746
 9012TIP3    H148451   5.782   5.509   1.520  1.7634  0.3903 -1.1262
 9012TIP3    H248452   5.855   5.584   1.410 -0.4057  0.8926 -2.2980
 9013TIP3   OH248453   4.009   4.821  14.568  0.1425  0.3001 -0.1597
 9013TIP3    H148454   4.031   4.853  14.656  0.3056 -2.7579  1.0185
 9013TIP3    H248455   4.063   4.875  14.509  2.7413  0.1383  1.8867
 9014TIP3   OH248456   3.206   4.197   2.472 -0.2054 -0.0786  0.7113
 9014TIP3    H148457   3.274   4.263   2.457 -0.7948  0.1984 -0.9744
 9014TIP3    H248458   3.208   4.142   2.394 -0.7970 -1.0814  1.3844
 9015TIP3   OH248459   1.959   5.854  10.099  0.3966 -0.6999 -0.6845
 9015TIP3    H148460   2.005   5.815  10.025  0.3514 -0.8279 -0.6448
 9015TIP3    H248461   1.868   5.829  10.087  0.4817 -1.2329 -0.2606
 9016TIP3   OH248462   4.344   2.892  12.747 -0.1425 -0.5130  0.4012
 9016TIP3    H148463   4.320   2.806  12.781  1.4659 -2.2212 -2.4197
 9016TIP3    H248464   4.424   2.877  12.697  2.9760  3.4956  3.4072
 9017TIP3   OH248465   6.148   3.456   5.021 -0.1375  0.1144 -0.7918
 9017TIP3    H148466   6.231   3.430   4.981  0.5238  2.0108 -0.7755
 9017TIP3    H248467   6.151   3.552   5.021 -1.2628  0.2056  1.4217
 9018TIP3   OH248468   1.431   0.713   2.961 -0.1198  0.8553  0.6255
 9018TIP3    H148469   1.417   0.676   2.874 -1.1387  1.5406  0.4687
 9018TIP3    H248470   1.487   0.790   2.946  0.2368  0.6021  0.6621
 9019TIP3   OH248471   2.873   6.471  13.755  0.8228 -0.7270 -0.1892
 9019TIP3    H148472   2.960   6.443  13.783  0.2804 -0.8907  1.4522
 9019TIP3    H248473   2.814   6.436  13.822 -0.3276  0.7352 -0.3898
 9020TIP3   OH248474   1.410   4.174   1.148 -0.4141  0.6683 -0.0882
 9020TIP3    H148475   1.318   4.147   1.141  0.0730 -0.8536 -1.2023
 9020TIP3    H248476   1.425   4.227   1.070 -0.7228  2.2287  0.8767
 9021TIP3   OH248477   3.406   1.005  14.669 -0.1267  0.3261  0.5175
 9021TIP3    H148478   3.339   1.057  14.625  1.4109  2.0897  0.1016
 9021TIP3    H248479   3.484   1.016  14.614 -0.0337 -3.8384 -0.5248
 9022TIP3   OH248480   4.435   5.785   5.041  0.0801  0.0111 -0.1700
 9022TIP3    H148481   4.475   5.859   4.996  0.1733  0.6228  0.8941
 9022TIP3    H248482   4.498   5.762   5.110  0.0075 -0.9959 -0.4317
 9023TIP3   OH248483   6.764   6.630   0.188  0.0197  0.3344  0.6411
 9023TIP3    H148484   6.802   6.565   0.247 -1.6750 -0.9498  0.3643
 9023TIP3    H248485   6.673   6.603   0.177  0.5360 -0.3351 -3.6820
 9024TIP3   OH248486   0.148   6.518  12.941 -1.0588 -0.1089 -0.9150
 9024TIP3    H148487   0.067   6.474  12.914 -1.0672 -0.2731 -0.6304
 9024TIP3    H248488   0.139   6.527  13.036 -0.8995  0.1917 -0.9278
 9025TIP3   OH248489   2.395   0.098   9.635 -0.1017  0.2259 -0.3031
 9025TIP3    H148490   2.464   0.162   9.652 -1.2444  0.9067  2.3134
 9025TIP3    H248491   2.316   0.150   9.623 -0.6665 -0.6330 -0.4260
 9026TIP3   OH248492   6.614   6.799   1.606 -0.0125  0.5325  0.0663
 9026TIP3    H148493   6.632   6.860   1.535 -0.0358  1.9860  1.2543
 9026TIP3    H248494   6.693   6.800   1.660 -0.9070  1.3768  1.3956
 9027TIP3   OH248495   2.526   1.543   1.521  0.1494  0.1617 -0.2051
 9027TIP3    H148496   2.540   1.593   1.601 -0.8992 -0.8793  0.6708
 9027TIP3    H248497   2.461   1.476   1.545 -1.1506  0.5812 -2.2475
 9028TIP3   OH248498   2.987   0.673   0.492 -0.1089  0.4246 -0.0417
 9028TIP3    H148499   2.942   0.590   0.482 -1.9843  1.4121 -0.2715
 9028TIP3    H248500   3.017   0.695   0.404  0.9774 -0.2840  0.1300
 9029TIP3   OH248501   3.028   2.834  11.090  0.1289  0.1464  0.2621
 9029TIP3    H148502   3.005   2.922  11.060  0.2364 -0.2493 -1.0512
 9029TIP3    H248503   2.944   2.795  11.113 -0.2703 -0.2730 -1.6787
 9030TIP3   OH248504   2.763   5.938   2.650 -0.0750 -0.3823  0.4161
 9030TIP3    H148505   2.798   6.027   2.643  1.2348 -0.8899  0.0847
 9030TIP3    H248506   2.690   5.937   2.589 -0.1794  0.5038  0.5085
 9031TIP3   OH248507   6.230   1.746   1.222 -0.5998  0.2690  0.3433
 9031TIP3    H148508   6.146   1.718   1.259  0.3725 -0.2295  2.3110
 9031TIP3    H248509   6.278   1.782   1.297  0.7031  1.1395 -0.8712
 9032TIP3   OH248510   6.361   2.077  10.441  0.7046  0.5325  0.3017
 9032TIP3    H148511   6.423   2.005  10.432  0.0032  0.1470 -1.9104
 9032TIP3    H248512   6.373   2.107  10.531  1.1555 -2.1917  1.2295
 9033TIP3   OH248513   5.363   3.768   4.862 -0.0992  0.2893  0.3438
 9033TIP3    H148514   5.395   3.685   4.895  0.6610  0.8308  1.0029
 9033TIP3    H248515   5.309   3.803   4.933 -0.3583  0.4014  0.0967
 9034TIP3   OH248516   4.784   4.994   2.558 -0.4768  0.2837  0.0269
 9034TIP3    H148517   4.832   4.915   2.580  0.9720  0.6890 -1.4607
 9034TIP3    H248518   4.732   4.970   2.481 -0.1860  0.7178 -0.3106
 9035TIP3   OH248519   2.644   5.095  12.835  0.4801 -0.2611  0.2202
 9035TIP3    H148520   2.689   5.058  12.911  0.6027  0.9613  0.7627
 9035TIP3    H248521   2.624   5.185  12.861 -0.4283 -0.1529 -0.8018
 9036TIP3   OH248522   0.210   0.709   2.445 -0.4164 -0.0657  0.0984
 9036TIP3    H148523   0.179   0.703   2.536  2.3977  1.0204  1.2642
 9036TIP3    H248524   0.290   0.656   2.444  1.7609  2.9945 -0.5835
 9037TIP3   OH248525   4.833   6.173  10.193  0.2053 -0.4221  0.3209
 9037TIP3    H148526   4.853   6.238  10.125  0.0492  0.9406  1.5451
 9037TIP3    H248527   4.867   6.090  10.158  0.7067  0.3679 -1.1248
 9038TIP3   OH248528   0.861   3.468  12.386 -0.2234 -0.0243 -0.5588
 9038TIP3    H148529   0.883   3.559  12.370  2.4373 -0.6262 -0.7012
 9038TIP3    H248530   0.848   3.431  12.298 -1.2057  0.1628 -0.5056
 9039TIP3   OH248531   1.264   0.598  13.737 -0.0681 -0.2409 -0.4291
 9039TIP3    H148532   1.220   0.682  13.728 -0.5732 -0.4922 -0.2854
 9039TIP3    H248533   1.317   0.607  13.817  1.3645  0.6019 -1.4125
 9040TIP3   OH248534   3.201   6.098  11.374  0.1644 -0.2381 -0.2628
 9040TIP3    H148535   3.106   6.109  11.369  0.1502 -0.7838 -1.8464
 9040TIP3    H248536   3.214   6.027  11.436 -0.5568 -1.0689 -1.0354
 9041TIP3   OH248537   2.149   4.015   3.984 -0.5195 -0.4181  0.1779
 9041TIP3    H148538   2.091   3.992   4.057  0.6090 -0.3775  1.1004
 9041TIP3    H248539   2.090   4.052   3.918 -1.6453 -1.0531  0.7999
 9042TIP3   OH248540   4.644   0.094  12.395 -0.8379 -0.5135  0.5507
 9042TIP3    H148541   4.605   0.041  12.326 -2.4058 -0.8378  1.6125
 9042TIP3    H248542   4.574   0.103  12.460  0.9527 -1.3071  2.7109
 9043TIP3   OH248543   3.480   0.938   1.418 -0.2721 -0.5500 -0.4305
 9043TIP3    H148544   3.496   1.004   1.351  1.1992  0.0054  0.4230
 9043TIP3    H248545   3.532   0.862   1.390 -1.2499 -1.0510 -0.9414
 9044TIP3   OH248546   6.589   1.140  14.178  0.1148 -0.2994 -0.0046
 9044TIP3    H148547   6.499   1.144  14.210 -0.0048  2.9116 -0.3890
 9044TIP3    H248548   6.636   1.088  14.243 -1.8468 -1.4154  0.5796
 9045TIP3   OH248549   4.316   3.392  13.359 -0.4110  0.6321 -0.2472
 9045TIP3    H148550   4.396   3.393  13.306 -1.2933 -1.3032 -1.7275
 9045TIP3    H248551   4.346   3.370  13.447  0.9166  2.4480 -0.1750
 9046TIP3   OH248552   6.330   4.388  10.600  0.2025  0.4534 -0.0289
 9046TIP3    H148553   6.342   4.295  10.580 -0.2683  0.3663  0.0871
 9046TIP3    H248554   6.259   4.416  10.542 -0.7452  0.3495  1.0551
 9047TIP3   OH248555   5.051   2.798   0.090 -0.5507  0.3224 -0.5574
 9047TIP3    H148556   5.089   2.880   0.120 -1.2843  0.1189  1.0656
 9047TIP3    H248557   4.962   2.799   0.125 -0.3428 -1.4622  0.1265
 9048TIP3   OH248558   1.966   1.501  14.980  0.0656 -0.0952  0.5526
 9048TIP3    H148559   1.889   1.450  15.006 -0.1504 -0.6253 -1.0530
 9048TIP3    H248560   2.013   1.516  15.062 -1.8630  0.4670  1.6164
 9049TIP3   OH248561   3.060   6.711  11.184  0.6154  0.2520  0.0705
 9049TIP3    H148562   3.051   6.631  11.133 -1.3771  1.0099 -0.8525
 9049TIP3    H248563   2.981   6.715  11.237  1.1277  1.1597  0.7956
 9050TIP3   OH248564   5.273   5.858   1.134  0.0761  0.2323  0.2521
 9050TIP3    H148565   5.180   5.857   1.156  0.4517 -1.3752  1.9976
 9050TIP3    H248566   5.276   5.836   1.041 -1.2805  0.0045  0.2486
 9051TIP3   OH248567   0.556   6.635  10.198 -0.1448  0.4823  0.4149
 9051TIP3    H148568   0.593   6.550  10.172 -2.1293 -0.2968 -0.0283
 9051TIP3    H248569   0.624   6.675  10.252  0.8217 -1.4232  0.6992
 9052TIP3   OH248570   2.626   1.906  13.596 -0.2814 -0.1834 -0.4509
 9052TIP3    H148571   2.713   1.940  13.617 -0.2205  0.0744 -1.1272
 9052TIP3    H248572   2.574   1.983  13.573 -1.1109 -0.1429  1.3119
 9053TIP3   OH248573   6.886   4.042   4.765 -0.1272 -0.2404  0.1955
 9053TIP3    H148574   6.802   4.016   4.727 -0.3390  0.1044  0.4297
 9053TIP3    H248575   6.951   4.013   4.701 -0.2711 -2.2484  0.8610
 9054TIP3   OH248576   2.174   2.224   0.803 -0.1402 -0.5438  0.0670
 9054TIP3    H148577   2.123   2.306   0.803  1.0485  0.2134  0.3525
 9054TIP3    H248578   2.108   2.156   0.816 -1.1829  0.3420 -0.3357
 9055TIP3   OH248579   3.968   6.414  12.572 -0.4016  0.3233  0.4194
 9055TIP3    H148580   3.928   6.352  12.632 -0.3801  1.0597  1.2116
 9055TIP3    H248581   4.012   6.478  12.628  0.6169  0.3727 -0.4072
 9056TIP3   OH248582   0.983   5.239  14.809 -0.2541 -0.2560  0.0570
 9056TIP3    H148583   1.056   5.294  14.836  0.4513  0.1740 -2.5153
 9056TIP3    H248584   1.023   5.156  14.782 -1.0513 -1.1221  1.3679
 9057TIP3   OH248585   0.338   5.519   6.187  0.0238  0.1034 -0.4812
 9057TIP3    H148586   0.250   5.507   6.151  0.1226 -1.1983 -0.3466
 9057TIP3    H248587   0.365   5.605   6.157 -1.0732  0.2791 -1.0052
 9058TIP3   OH248588   5.001   6.017   5.009 -0.4780  0.0562  0.4939
 9058TIP3    H148589   4.987   6.060   5.093  0.0393 -0.3301  0.7875
 9058TIP3    H248590   4.982   6.084   4.944 -1.0932  0.2999  0.9089
 9059TIP3   OH248591   5.234   2.987   0.148  0.5238 -0.0011 -0.6274
 9059TIP3    H148592   5.190   3.054   0.097  1.1031  0.8891  0.0209
 9059TIP3    H248593   5.241   3.024   0.236 -0.1911 -1.3818  0.0363
 9060TIP3   OH248594   5.784   2.977  15.306 -0.4012 -0.3919 -0.3581
 9060TIP3    H148595   5.800   2.951  15.396 -1.0618  0.3214 -0.0209
 9060TIP3    H248596   5.863   3.025  15.280 -0.4380 -0.1331  0.0148
 9061TIP3   OH248597   2.270   1.740  11.125  0.5900  0.6500 -0.1979
 9061TIP3    H148598   2.315   1.711  11.046  0.3840 -1.3192  0.3707
 9061TIP3    H248599   2.208   1.670  11.145 -1.2570  2.3088  0.2371
 9062TIP3   OH248600   4.988   6.734   2.362 -0.2264  0.4975 -0.0267
 9062TIP3    H148601   4.998   6.784   2.443 -0.4959 -1.6848  1.4525
 9062TIP3    H248602   5.077   6.726   2.328  0.0175  0.7020  0.5486
 9063TIP3   OH248603   2.079   5.597   2.779 -0.1021  0.2559  0.1831
 9063TIP3    H148604   2.136   5.664   2.818 -0.0485  0.5330 -0.3633
 9063TIP3    H248605   2.133   5.518   2.777  0.1865  0.4583 -0.1189
 9064TIP3   OH248606   4.668   5.610  14.365  0.0380  0.0965 -0.2975
 9064TIP3    H148607   4.722   5.684  14.394 -1.4076  0.6420  1.1072
 9064TIP3    H248608   4.695   5.596  14.274  0.9055  1.8400 -0.3647
 9065TIP3   OH248609   3.337   6.928  13.686  0.1086  0.4519  0.4120
 9065TIP3    H148610   3.390   6.905  13.763 -0.8018  2.2394  1.6470
 9065TIP3    H248611   3.401   6.940  13.616  0.8342 -2.8865  0.3555
 9066TIP3   OH248612   4.315   4.774   5.542  0.3386  0.3947 -0.4701
 9066TIP3    H148613   4.358   4.734   5.618 -0.2937 -1.6617 -1.1476
 9066TIP3    H248614   4.243   4.824   5.579  0.5208  0.0760  0.3305
 9067TIP3   OH248615   3.193   4.652  10.099  0.9479 -0.0061  0.5722
 9067TIP3    H148616   3.250   4.585  10.137 -0.1422 -1.0921  0.3876
 9067TIP3    H248617   3.116   4.603  10.070  0.0362  1.3757  0.5779
 9068TIP3   OH248618   6.389   0.930  11.445  0.2856 -0.4676 -0.4520
 9068TIP3    H148619   6.479   0.899  11.440 -0.2175 -2.0180 -0.6306
 9068TIP3    H248620   6.371   0.939  11.538  0.8830  0.7290 -0.4341
 9069TIP3   OH248621   5.681   2.625   4.552  0.1214 -0.3068  0.2586
 9069TIP3    H148622   5.655   2.584   4.635 -0.9366  0.8676  0.5337
 9069TIP3    H248623   5.685   2.718   4.571 -2.1795  0.2434 -1.4557
 9070TIP3   OH248624   5.779   0.478   2.247  0.7979 -0.3027  0.0217
 9070TIP3    H148625   5.801   0.571   2.239  0.4140 -0.1759  0.3986
 9070TIP3    H248626   5.862   0.435   2.266  0.6345  0.2885  2.3450
 9071TIP3   OH248627   6.841   0.653  11.828  0.7074 -0.4854  0.1134
 9071TIP3    H148628   6.845   0.746  11.851  2.0647  0.5138 -3.4587
 9071TIP3    H248629   6.931   0.622  11.838  1.2838 -0.0907 -2.9864
 9072TIP3   OH248630   7.158   0.769  11.702  0.5377  0.0920  0.2542
 9072TIP3    H148631   7.180   0.684  11.739 -0.9597 -0.4104  0.0592
 9072TIP3    H248632   7.175   0.831  11.773  0.5080 -0.5122  0.7981
 9073TIP3   OH248633   6.727   5.608  12.089  0.3486  0.2327  0.8887
 9073TIP3    H148634   6.770   5.535  12.132 -1.2157 -1.4578 -0.2606
 9073TIP3    H248635   6.683   5.656  12.160 -0.1872 -1.0848  1.4721
 9074TIP3   OH248636   2.960   1.661  15.449  0.0264  0.1195  0.3216
 9074TIP3    H148637   2.876   1.708  15.452  0.1001  0.2816 -0.1219
 9074TIP3    H248638   3.012   1.700  15.519 -0.0548  0.4321  0.2105
 9075TIP3   OH248639   6.336   0.715  10.608 -0.1796 -0.0257  0.0376
 9075TIP3    H148640   6.313   0.678  10.523  0.6092  1.5683 -0.9265
 9075TIP3    H248641   6.340   0.810  10.592  1.1560  0.2200  1.5506
 9076TIP3   OH248642   0.324   5.417  14.129 -0.3113  0.2142 -0.0007
 9076TIP3    H148643   0.312   5.386  14.040 -1.1218  0.0758  0.1545
 9076TIP3    H248644   0.395   5.481  14.122  0.1147 -0.3151 -0.6208
 9077TIP3   OH248645   0.657   2.351  10.002 -0.6106 -0.1171  0.2189
 9077TIP3    H148646   0.704   2.280   9.960  0.1767  2.2387 -3.2875
 9077TIP3    H248647   0.715   2.380  10.073  0.5988 -0.8326 -0.4459
 9078TIP3   OH248648   4.370   5.071  12.613 -0.2116  0.8467  0.6452
 9078TIP3    H148649   4.419   5.150  12.635  1.6116 -0.1701  0.4462
 9078TIP3    H248650   4.369   5.020  12.694  0.3369  0.2208  0.2661
 9079TIP3   OH248651   2.913   6.317  13.387 -0.7156  0.1242 -0.1785
 9079TIP3    H148652   2.837   6.274  13.427  0.2953  1.5470  3.6825
 9079TIP3    H248653   2.899   6.410  13.404  2.1192  0.3849  1.2332
 9080TIP3   OH248654   2.114   2.666   1.679  0.3802 -0.3230  0.1006
 9080TIP3    H148655   2.054   2.672   1.605 -2.1126 -0.2117  1.9914
 9080TIP3    H248656   2.145   2.756   1.692 -0.3662 -0.0622  0.1044
 9081TIP3   OH248657   0.874   6.595  10.960 -0.6394  0.1324 -0.2479
 9081TIP3    H148658   0.918   6.680  10.965  0.2981 -0.4148  1.2475
 9081TIP3    H248659   0.871   6.564  11.050 -2.3792 -0.7364 -0.5691
 9082TIP3   OH248660   3.715   6.624   1.905 -0.9207  0.0541 -0.1144
 9082TIP3    H148661   3.654   6.593   1.973  0.0270 -2.0704 -0.1425
 9082TIP3    H248662   3.737   6.713   1.931 -2.8551  0.3515  0.7155
 9083TIP3   OH248663   3.359   3.640  12.540  0.3512  0.0771 -0.3164
 9083TIP3    H148664   3.323   3.586  12.470  0.6330  1.5986 -1.7007
 9083TIP3    H248665   3.330   3.729  12.519  1.1120  0.6784  1.0606
 9084TIP3   OH248666   1.130   1.017  10.091  0.0162 -0.0422  0.3942
 9084TIP3    H148667   1.206   1.003  10.147  1.4507 -2.7967 -1.9642
 9084TIP3    H248668   1.166   1.056  10.011 -1.0568 -1.0408 -0.6229
 9085TIP3   OH248669   4.211   4.025  12.819 -1.2191  0.4342 -0.7120
 9085TIP3    H148670   4.238   4.045  12.909  1.1378 -1.1721 -0.9789
 9085TIP3    H248671   4.217   3.930  12.812  1.3469  0.6353 -3.2619
 9086TIP3   OH248672   4.028   6.380  10.734 -0.1120 -0.0005  0.6389
 9086TIP3    H148673   4.107   6.337  10.700 -1.2900 -2.1740  0.4632
 9086TIP3    H248674   3.998   6.435  10.662 -0.4739 -1.6219 -0.5009
 9087TIP3   OH248675   0.105   5.923   1.061 -0.1450  0.4378  0.5837
 9087TIP3    H148676   0.132   5.839   1.023 -1.0888 -0.6719  2.2101
 9087TIP3    H248677   0.186   5.972   1.074  0.3923 -0.0989 -0.6715
 9088TIP3   OH248678   1.879   5.832  12.903  0.0109 -0.6956  0.2008
 9088TIP3    H148679   1.921   5.898  12.957  1.0879  0.7390 -2.1984
 9088TIP3    H248680   1.785   5.847  12.914  0.2346  0.9559  0.0703
 9089TIP3   OH248681   7.024   6.155   2.819 -0.7088 -0.4890 -0.1852
 9089TIP3    H148682   6.939   6.197   2.804 -0.8378 -0.5391  0.3961
 9089TIP3    H248683   7.005   6.081   2.876 -0.1989 -0.1765  0.4013
 9090TIP3   OH248684   2.541   2.988  14.617  0.5660 -0.5131  0.3418
 9090TIP3    H148685   2.578   3.039  14.545 -0.8156 -0.8989 -0.6870
 9090TIP3    H248686   2.596   3.009  14.692  1.3305  0.8208 -0.5504
 9091TIP3   OH248687   0.429   2.958  11.550 -0.1366 -0.0863  0.2492
 9091TIP3    H148688   0.473   2.876  11.523  0.1534  0.4135 -0.8709
 9091TIP3    H248689   0.346   2.956  11.503 -0.8619 -0.5141  1.5241
 9092TIP3   OH248690   1.248   1.865   2.718 -0.2506 -0.0007  0.0497
 9092TIP3    H148691   1.196   1.823   2.787 -0.8578  0.1778 -0.2904
 9092TIP3    H248692   1.325   1.899   2.764  0.7966 -2.3432  0.1903
 9093TIP3   OH248693   0.605   2.000  12.191 -0.5849  0.1039 -0.4769
 9093TIP3    H148694   0.566   1.923  12.150 -1.8713  1.0026 -1.0344
 9093TIP3    H248695   0.587   1.989  12.285  4.2862 -3.0588  0.4410
 9094TIP3   OH248696   4.499   6.286   4.365 -0.0275 -0.4111 -0.0592
 9094TIP3    H148697   4.530   6.278   4.274  0.5599 -1.1775  0.1904
 9094TIP3    H248698   4.413   6.327   4.358 -0.8662 -2.2281 -1.1306
 9095TIP3   OH248699   2.599   4.329  15.267  0.0618  0.4087 -0.3046
 9095TIP3    H148700   2.685   4.344  15.226  0.9844 -0.3842  1.2223
 9095TIP3    H248701   2.603   4.378  15.349 -0.5272 -0.4733  0.2679
 9096TIP3   OH248702   5.192   1.166  15.122  0.2353  0.6390 -0.4042
 9096TIP3    H148703   5.152   1.162  15.036 -1.5105  0.7045  0.3581
 9096TIP3    H248704   5.268   1.108  15.117 -1.4303 -1.5970 -1.1837
 9097TIP3   OH248705   2.774   3.198  10.996  0.4007  0.5339 -0.1792
 9097TIP3    H148706   2.763   3.294  10.995  1.7331  0.7291  0.9279
 9097TIP3    H248707   2.753   3.171  10.907 -0.3644  1.8107 -0.4251
 9098TIP3   OH248708   1.921   1.499  14.381 -0.1787  0.3685  0.0772
 9098TIP3    H148709   2.015   1.485  14.370 -0.3610 -0.3283 -0.6227
 9098TIP3    H248710   1.912   1.528  14.472  0.6938  0.2786  0.2012
 9099TIP3   OH248711   2.653   3.757  14.611  0.7151  0.0415  0.1404
 9099TIP3    H148712   2.567   3.730  14.643  0.0151  1.0658 -0.8014
 9099TIP3    H248713   2.703   3.777  14.690 -0.9341  2.4338  0.7141
 9100TIP3   OH248714   3.623   4.583   3.960  0.4638  0.1849 -0.9770
 9100TIP3    H148715   3.702   4.619   3.921  2.4855 -2.2121  0.5484
 9100TIP3    H248716   3.655   4.532   4.035 -2.7848  1.2019  1.3278
 9101TIP3   OH248717   2.224   7.050  11.052 -0.2890 -0.4283  0.0343
 9101TIP3    H148718   2.180   7.132  11.027 -1.2526  0.0605  2.9339
 9101TIP3    H248719   2.306   7.078  11.093 -0.0070 -0.9962 -0.1307
 9102TIP3   OH248720   6.628   7.105  13.419 -0.2665 -0.2337 -0.1656
 9102TIP3    H148721   6.706   7.118  13.472  0.2457  1.7710 -1.2915
 9102TIP3    H248722   6.643   7.022  13.374  0.4276 -0.7051  0.9193
 9103TIP3   OH248723   2.058   1.452   1.438 -0.4574  0.4439  0.5574
 9103TIP3    H148724   2.130   1.437   1.377  0.3821  1.2624  1.3088
 9103TIP3    H248725   1.990   1.390   1.411  0.7292 -0.7465  0.1551
 9104TIP3   OH248726   3.084   5.356  12.177 -0.6217 -0.0957 -0.2847
 9104TIP3    H148727   3.157   5.411  12.207 -0.9491 -0.0216  0.4065
 9104TIP3    H248728   3.006   5.408  12.197 -0.9373 -0.8216  0.4204
 9105TIP3   OH248729   5.990   4.865  11.759  0.4582  0.3964  0.5236
 9105TIP3    H148730   5.949   4.813  11.690  1.2083  0.3604  0.1005
 9105TIP3    H248731   5.988   4.807  11.836 -0.7425  0.5847  0.6637
 9106TIP3   OH248732   4.223   3.705   1.339 -0.3473  0.9833  0.3069
 9106TIP3    H148733   4.268   3.752   1.409 -2.7845  0.5781  2.2636
 9106TIP3    H248734   4.173   3.773   1.293 -1.9406  0.7403  1.5949
 9107TIP3   OH248735   2.664   2.808   2.235 -0.1786 -0.6611 -0.0391
 9107TIP3    H148736   2.721   2.749   2.285  0.1688  0.6672  1.2105
 9107TIP3    H248737   2.704   2.811   2.148  0.6315 -1.1412  0.2991
 9108TIP3   OH248738   3.918   6.875   0.127  0.3702  0.3087 -0.2106
 9108TIP3    H148739   3.984   6.838   0.187 -0.2698  0.2336  0.4625
 9108TIP3    H248740   3.970   6.918   0.059  1.1203 -0.5089 -0.1758
 9109TIP3   OH248741   1.035   0.060  11.593  0.1858  0.5064  0.1337
 9109TIP3    H148742   1.050   0.071  11.686  0.4786 -0.3774  0.2076
 9109TIP3    H248743   0.961  -0.001  11.588  1.1232 -0.6457 -0.1817
 9110TIP3   OH248744   2.365   3.601   9.982 -0.0393  0.4267  0.2905
 9110TIP3    H148745   2.284   3.553   9.969 -0.1094  0.5752  0.1773
 9110TIP3    H248746   2.413   3.550  10.048  0.0880 -0.0391 -0.1578
 9111TIP3   OH248747   6.474   5.932  14.640  0.3420  0.7172 -0.2949
 9111TIP3    H148748   6.474   6.020  14.602  2.4918  0.1632 -1.7153
 9111TIP3    H248749   6.546   5.934  14.704  0.0047  0.1604  0.1091
 9112TIP3   OH248750   3.288   6.202  10.400  0.3754 -0.3748  0.2547
 9112TIP3    H148751   3.304   6.287  10.440 -0.6061  0.6088 -1.3471
 9112TIP3    H248752   3.375   6.170  10.376  0.6843  0.5972  0.0465
 9113TIP3   OH248753   4.861   3.298  14.443 -0.0496  0.6233 -0.6051
 9113TIP3    H148754   4.938   3.354  14.433  0.4847  0.0206  0.0397
 9113TIP3    H248755   4.887   3.233  14.508 -1.1262  0.4397 -0.3395
 9114TIP3   OH248756   6.356   5.044  14.135 -0.1992 -0.1657 -0.2903
 9114TIP3    H148757   6.310   5.077  14.058  0.5846  1.2036 -0.1880
 9114TIP3    H248758   6.388   5.122  14.180  0.2463 -0.9921  0.8761
 9115TIP3   OH248759   4.982   2.114   3.696 -0.5661  0.0039 -0.2870
 9115TIP3    H148760   5.048   2.174   3.730  0.8098 -1.0592 -0.9639
 9115TIP3    H248761   4.928   2.168   3.638  1.0112  0.5292 -1.3558
 9116TIP3   OH248762   1.532   3.762  14.852  0.4610 -0.1975  0.5212
 9116TIP3    H148763   1.501   3.672  14.844  0.3973 -0.3183  1.9527
 9116TIP3    H248764   1.477   3.800  14.920  1.2092  0.6008  0.6937
 9117TIP3   OH248765   1.553   2.387   0.395 -0.0403 -0.1285 -0.2460
 9117TIP3    H148766   1.640   2.370   0.360  0.4157  0.3917  0.6200
 9117TIP3    H248767   1.513   2.301   0.405  1.2202 -0.5520  1.5010
 9118TIP3   OH248768   0.847   6.953  12.248  0.4379 -0.1932 -0.3650
 9118TIP3    H148769   0.868   6.895  12.175  0.7040  0.2250 -0.6243
 9118TIP3    H248770   0.880   7.038  12.221 -0.5890  0.2379 -0.2956
 9119TIP3   OH248771   2.199   0.078  10.047 -0.2570  0.4631 -0.0086
 9119TIP3    H148772   2.152   0.145   9.999  0.8026  1.4439  0.2688
 9119TIP3    H248773   2.279   0.121  10.077 -0.1538 -0.5435  1.3029
 9120TIP3   OH248774   6.631   4.207   1.552  0.1295  0.4677 -0.2880
 9120TIP3    H148775   6.542   4.234   1.573  0.0835  0.5848 -0.6315
 9120TIP3    H248776   6.682   4.232   1.629 -0.4197 -1.1289  0.6344
 9121TIP3   OH248777   7.130   5.577  10.094  0.3066  0.3746 -0.6203
 9121TIP3    H148778   7.083   5.516  10.038  1.5042 -1.1027 -0.0806
 9121TIP3    H248779   7.193   5.523  10.142  0.7265  1.8912  0.6317
 9122TIP3   OH248780   3.447   0.749  10.894  0.1037 -0.3330  0.3128
 9122TIP3    H148781   3.532   0.715  10.870 -0.3197 -0.5621 -0.8908
 9122TIP3    H248782   3.421   0.805  10.821 -0.7438 -0.2007  0.6977
 9123TIP3   OH248783   1.128   0.822  11.061  0.5542  0.2741 -0.1013
 9123TIP3    H148784   1.054   0.764  11.081  0.1599  0.3604 -1.2154
 9123TIP3    H248785   1.166   0.842  11.146 -0.2559 -0.3676  0.4381
 9124TIP3   OH248786   6.605   2.330  15.401  0.0229 -0.3325  0.3027
 9124TIP3    H148787   6.663   2.284  15.461  1.1177 -0.2420 -0.6537
 9124TIP3    H248788   6.597   2.271  15.326  1.9544  1.2216 -1.2272
 9125TIP3   OH248789   1.236   2.613   1.222 -0.0114 -0.2082 -0.2748
 9125TIP3    H148790   1.180   2.643   1.151 -0.8699  1.6522  1.0976
 9125TIP3    H248791   1.324   2.639   1.194 -0.5322  2.2177  0.0592
 9126TIP3   OH248792   4.975   0.526  12.183  0.4627 -0.4680  0.1912
 9126TIP3    H148793   4.927   0.448  12.210 -0.4234  0.2423  0.7440
 9126TIP3    H248794   4.921   0.566  12.115  0.1876  0.3976  0.8934
 9127TIP3   OH248795   0.343   0.556  10.582  0.4033 -0.1881 -0.0905
 9127TIP3    H148796   0.387   0.616  10.643  0.1107 -0.4621  0.3996
 9127TIP3    H248797   0.370   0.586  10.495  1.0774  0.0168  0.1834
 9128TIP3   OH248798   1.424   0.531  13.236  0.5208 -0.7759  0.0290
 9128TIP3    H148799   1.335   0.562  13.223  0.4410 -0.8264  0.4268
 9128TIP3    H248800   1.435   0.460  13.173  0.5504 -0.2478 -0.5669
 9129TIP3   OH248801   1.376   2.751  12.972 -0.5067 -0.8868 -0.6160
 9129TIP3    H148802   1.364   2.736  12.878  1.7734  2.3032 -1.5821
 9129TIP3    H248803   1.323   2.829  12.990  1.1269  0.1132  0.0615
 9130TIP3   OH248804   5.972   6.241   2.808 -0.4208 -0.5969  0.3682
 9130TIP3    H148805   5.889   6.194   2.817 -1.0439  0.2569 -0.5788
 9130TIP3    H248806   6.037   6.186   2.851 -1.6293 -0.8474  1.9604
 9131TIP3   OH248807   2.310   7.033   0.353  0.8136 -0.0354 -0.2725
 9131TIP3    H148808   2.404   7.049   0.349  0.8039  0.7600  1.7160
 9131TIP3    H248809   2.270   7.114   0.320  0.8349  0.1225  0.0808
 9132TIP3   OH248810   3.717   4.543  14.419 -0.5955 -0.1841 -0.1984
 9132TIP3    H148811   3.665   4.618  14.448  0.2521 -0.1891  1.4061
 9132TIP3    H248812   3.751   4.504  14.499  0.8545 -0.9322 -1.1297
 9133TIP3   OH248813   4.134   5.683  15.361 -0.4992 -0.4681  0.0205
 9133TIP3    H148814   4.101   5.770  15.384 -2.0915 -1.1338  0.3940
 9133TIP3    H248815   4.229   5.693  15.360 -0.5119  0.6556  2.6356
 9134TIP3   OH248816   0.654   1.756  10.940 -0.1120  0.0808  0.3950
 9134TIP3    H148817   0.613   1.757  11.026 -0.8150  1.2334  0.0627
 9134TIP3    H248818   0.727   1.817  10.948 -0.7967  0.9839 -0.1037
 9135TIP3   OH248819   5.815   6.671   0.459  0.3339 -0.3120 -0.5172
 9135TIP3    H148820   5.911   6.667   0.468  0.5410  1.5749 -1.3191
 9135TIP3    H248821   5.789   6.739   0.521 -0.7119 -1.8747  0.8178
 9136TIP3   OH248822   0.177   1.290  11.355  0.1588 -0.2362  0.2705
 9136TIP3    H148823   0.225   1.255  11.430  0.2948 -0.1815  0.2084
 9136TIP3    H248824   0.102   1.232  11.345  0.4025 -0.5303  0.1478
 9137TIP3   OH248825   0.509   4.433   3.086 -0.1663  0.0504 -0.1604
 9137TIP3    H148826   0.499   4.369   3.156  3.2629 -0.1248  0.2912
 9137TIP3    H248827   0.489   4.384   3.006 -0.6217 -0.6904  0.3933
 9138TIP3   OH248828   6.728   4.381  10.388 -0.0196 -0.2671 -0.2339
 9138TIP3    H148829   6.642   4.400  10.350 -0.6498 -0.7540  0.9013
 9138TIP3    H248830   6.739   4.287  10.376 -0.5380 -0.5630  1.3247
 9139TIP3   OH248831   4.953   0.884  14.724 -0.0964  0.1189  0.4815
 9139TIP3    H148832   4.967   0.979  14.721 -1.7038  0.4125  1.5512
 9139TIP3    H248833   4.911   0.869  14.808 -2.5907 -1.1515 -0.9134
 9140TIP3   OH248834   1.881   6.924  14.274 -1.1151 -0.6736  0.2694
 9140TIP3    H148835   1.955   6.879  14.313 -0.8107  0.3102  0.8500
 9140TIP3    H248836   1.823   6.854  14.244 -0.3762 -1.4403  0.6174
 9141TIP3   OH248837   3.389   4.722  10.999 -0.1328 -0.4190 -0.6476
 9141TIP3    H148838   3.356   4.634  10.985 -1.2315 -0.3079  0.9349
 9141TIP3    H248839   3.457   4.712  11.066  0.9816 -0.2602 -1.7207
 9142TIP3   OH248840   5.078   3.048   9.645  0.7565  0.0808  0.0281
 9142TIP3    H148841   5.147   3.055   9.579 -1.2548 -1.7909 -2.4215
 9142TIP3    H248842   5.009   3.107   9.615  0.5081  0.6254  1.5373
 9143TIP3   OH248843   1.866   3.415   1.613 -0.4327  0.0470 -1.1073
 9143TIP3    H148844   1.911   3.484   1.662 -1.8030  0.0169  0.2472
 9143TIP3    H248845   1.812   3.462   1.549 -2.5510  0.4019  0.8139
 9144TIP3   OH248846   1.495   1.268  14.207  0.0857  0.4048  0.2629
 9144TIP3    H148847   1.558   1.279  14.136  1.2100 -0.8741  1.0064
 9144TIP3    H248848   1.456   1.354  14.218  0.0014  0.6768 -1.7748
 9145TIP3   OH248849   5.757   4.648  13.700 -0.2965  0.0211 -0.4321
 9145TIP3    H148850   5.788   4.738  13.696 -0.2189  0.0773  0.8837
 9145TIP3    H248851   5.825   4.597  13.657  0.3235  0.4455  0.0252
 9146TIP3   OH248852   6.104   4.342   9.882 -0.0446  0.5983 -0.0905
 9146TIP3    H148853   6.045   4.275   9.847 -0.7014  1.0348  0.1669
 9146TIP3    H248854   6.061   4.425   9.862  1.7795  1.1197 -2.3763
 9147TIP3   OH248855   3.003   0.906   3.966  0.2486  0.3930  0.4609
 9147TIP3    H148856   2.953   0.833   3.930  0.8429 -0.7070  1.7870
 9147TIP3    H248857   2.936   0.969   3.995 -0.3751 -0.6507  1.3754
 9148TIP3   OH248858   2.971   5.288   0.898  0.7039  0.1338  0.2926
 9148TIP3    H148859   2.892   5.269   0.948 -0.2572  0.1394 -1.1516
 9148TIP3    H248860   2.972   5.222   0.829  1.4580  0.7059 -0.2617
 9149TIP3   OH248861   5.010   0.018   4.629  0.0464  0.0644  0.0918
 9149TIP3    H148862   5.073   0.016   4.702 -0.2167 -0.6765  0.3090
 9149TIP3    H248863   4.973  -0.070   4.628  0.4435 -0.1074 -1.3019
 9150TIP3   OH248864   2.048   5.440  11.519  0.4320 -0.1275 -0.1342
 9150TIP3    H148865   1.986   5.452  11.447  0.8969  0.1065 -0.5021
 9150TIP3    H248866   2.114   5.381  11.484  0.2387 -0.6465  0.3721
 9151TIP3   OH248867   1.958   5.694   2.333  0.1834 -0.2301 -0.2184
 9151TIP3    H148868   2.014   5.743   2.394 -0.1904  1.0876 -0.8975
 9151TIP3    H248869   1.975   5.734   2.248 -2.3143  0.7592 -0.3501
 9152TIP3   OH248870   5.741   1.043  13.768 -0.6068  0.0900  0.2193
 9152TIP3    H148871   5.812   1.002  13.817 -0.3215 -1.6714 -1.5682
 9152TIP3    H248872   5.661   1.001  13.801 -0.9351  2.1490  2.3085
 9153TIP3   OH248873   0.848   0.534  11.939  0.3302  0.0129  0.4873
 9153TIP3    H148874   0.755   0.530  11.921  0.5139 -1.2326 -0.2452
 9153TIP3    H248875   0.866   0.628  11.947 -0.8947  0.2916  0.2049
 9154TIP3   OH248876   2.106   6.246   4.215  0.1960  0.4606  0.2068
 9154TIP3    H148877   2.032   6.188   4.233  0.1927  0.5602  0.5221
 9154TIP3    H248878   2.168   6.192   4.166  0.5297 -0.0298  1.1611
 9155TIP3   OH248879   5.355   0.343  14.496 -0.3410  0.3848  0.6494
 9155TIP3    H148880   5.438   0.302  14.521 -0.0658  0.0262 -0.7766
 9155TIP3    H248881   5.310   0.277  14.444 -1.8980  0.2899  2.0605
 9156TIP3   OH248882   5.457   4.008  12.805  0.2565  0.4274 -0.3369
 9156TIP3    H148883   5.457   3.956  12.885  2.3704 -0.6224 -0.9489
 9156TIP3    H248884   5.367   4.041  12.798 -0.1439  0.0594  2.1104
 9157TIP3   OH248885   2.699   0.730   0.395  0.6919  0.5018  0.0965
 9157TIP3    H148886   2.698   0.727   0.491  0.0759  2.1947  0.1765
 9157TIP3    H248887   2.792   0.738   0.373  0.8761 -0.3309  0.5134
 9158TIP3   OH248888   3.114   1.198  14.794 -0.0408  0.1991 -0.5807
 9158TIP3    H148889   3.075   1.116  14.824 -0.0356  0.1800 -0.6261
 9158TIP3    H248890   3.056   1.266  14.829 -0.2167  0.1633 -0.7947
 9159TIP3   OH248891   4.366   3.881  13.008  0.2474  1.1278  0.2787
 9159TIP3    H148892   4.360   3.790  12.979  2.3893  1.3920 -1.2352
 9159TIP3    H248893   4.364   3.875  13.104 -1.4799 -0.2999  0.2145
 9160TIP3   OH248894   3.587   4.298   0.802  0.1586 -0.1182 -0.1658
 9160TIP3    H148895   3.648   4.229   0.776 -0.3389 -0.4600 -0.4486
 9160TIP3    H248896   3.623   4.332   0.884 -0.0228 -1.2805  0.4186
 9161TIP3   OH248897   6.512   4.832  10.631  0.4214 -0.0709 -0.5157
 9161TIP3    H148898   6.439   4.825  10.569 -0.6389 -0.3818  0.7308
 9161TIP3    H248899   6.470   4.835  10.717  1.9119 -1.1856  0.2878
 9162TIP3   OH248900   3.069   3.249   0.205  0.0817  0.4328 -0.0428
 9162TIP3    H148901   3.051   3.157   0.186 -2.1429  0.9799 -0.9156
 9162TIP3    H248902   2.988   3.295   0.182  0.3417  2.3564  2.4200
 9163TIP3   OH248903   2.338   6.396  13.289 -0.4509 -0.0603 -0.3860
 9163TIP3    H148904   2.327   6.301  13.291 -4.5448  0.2394 -0.3414
 9163TIP3    H248905   2.382   6.413  13.205  1.2771 -1.9403  0.0406
 9164TIP3   OH248906   2.079   4.100   0.909 -0.0940 -0.1504 -0.4272
 9164TIP3    H148907   2.127   4.043   0.968  0.2984  0.2804 -0.3222
 9164TIP3    H248908   2.004   4.048   0.879  0.4312 -0.8194 -0.5775
 9165TIP3   OH248909   3.817   0.969  13.854 -0.5388 -0.5036  0.1149
 9165TIP3    H148910   3.867   0.888  13.843 -3.3442 -2.2184 -1.1879
 9165TIP3    H248911   3.822   1.013  13.769 -0.2615 -0.0734  0.3507
 9166TIP3   OH248912   1.679   5.792  10.122  0.1613 -0.0238 -0.6812
 9166TIP3    H148913   1.644   5.770  10.036 -1.8574 -0.8172  0.2729
 9166TIP3    H248914   1.699   5.708  10.163  1.3702  0.3520 -0.4680
 9167TIP3   OH248915   4.308   0.151  11.462 -0.0577 -0.0933  0.0342
 9167TIP3    H148916   4.403   0.159  11.452 -0.0077 -1.8232 -1.3571
 9167TIP3    H248917   4.296   0.104  11.544  0.3789 -0.8736 -0.3326
 9168TIP3   OH248918   3.921   4.711  10.678 -0.3134 -0.2265 -0.0587
 9168TIP3    H148919   3.985   4.780  10.695 -0.2438 -0.7097  1.7979
 9168TIP3    H248920   3.945   4.640  10.737 -4.6752  0.9362  3.7308
 9169TIP3   OH248921   2.362   2.760  15.029 -0.0971  0.1470 -0.2251
 9169TIP3    H148922   2.383   2.789  15.118  0.2188  2.5649 -1.0125
 9169TIP3    H248923   2.446   2.766  14.982 -0.6916  1.1875 -1.2123
 9170TIP3   OH248924   0.554   4.929   1.390 -0.3168  0.4646 -0.0164
 9170TIP3    H148925   0.534   4.932   1.484 -1.5778 -2.0411 -0.1119
 9170TIP3    H248926   0.477   4.968   1.348 -1.3591 -1.5398 -0.0753
 9171TIP3   OH248927   5.807   7.101  15.470 -0.3455 -0.6645  0.0201
 9171TIP3    H148928   5.891   7.091  15.424 -0.9927  0.3658 -1.4692
 9171TIP3    H248929   5.779   7.012  15.488  1.5309 -1.0229  1.4799
 9172TIP3   OH248930   4.306   1.257  13.413  0.3221  0.4443  0.2264
 9172TIP3    H148931   4.370   1.191  13.386 -0.4887  0.2475 -1.3156
 9172TIP3    H248932   4.312   1.325  13.347 -0.0750  1.1064  0.8514
 9173TIP3   OH248933   7.006   3.665   2.134 -0.5953  0.0652 -0.2377
 9173TIP3    H148934   6.969   3.577   2.137 -2.7922  0.9361  1.7669
 9173TIP3    H248935   7.007   3.694   2.226  0.6593  1.9080 -0.7717
 9174TIP3   OH248936   3.478   6.631  13.242  0.2896  1.2228 -0.4138
 9174TIP3    H148937   3.541   6.568  13.278 -1.3076 -1.0178 -1.2367
 9174TIP3    H248938   3.525   6.675  13.171  0.6412 -1.3418 -1.9006
 9175TIP3   OH248939   0.973   3.291  12.575  0.1942  0.4773 -0.0375
 9175TIP3    H148940   0.924   3.363  12.537  0.0055  1.0773  1.2807
 9175TIP3    H248941   1.055   3.289  12.526 -0.9361 -0.2769 -1.9988
 9176TIP3   OH248942   5.020   3.566  12.891 -0.3857  0.1887  0.0368
 9176TIP3    H148943   5.052   3.477  12.873 -0.5922 -0.8246  3.8047
 9176TIP3    H248944   5.098   3.621  12.885  0.2397 -0.6745  0.0044
 9177TIP3   OH248945   1.441   4.413  12.049 -0.3177 -0.0159 -0.0424
 9177TIP3    H148946   1.529   4.426  12.013 -0.1545 -0.0449  0.3394
 9177TIP3    H248947   1.422   4.320  12.032  0.8651 -0.7829  2.2979
 9178TIP3   OH248948   7.025   3.613  10.932  0.4165 -0.5699 -0.0193
 9178TIP3    H148949   7.105   3.657  10.962 -0.3445  1.4672 -0.7758
 9178TIP3    H248950   7.002   3.659  10.851 -0.7555 -2.0785 -0.5867
 9179TIP3   OH248951   4.251   4.637   0.536 -0.1128 -0.2871  0.5311
 9179TIP3    H148952   4.285   4.600   0.455 -0.7381  0.4179 -0.0673
 9179TIP3    H248953   4.290   4.724   0.541 -0.5067 -0.1191  0.7122
 9180TIP3   OH248954   1.969   5.231   2.654  0.0667 -0.4825  0.0832
 9180TIP3    H148955   2.015   5.213   2.735  1.1016  0.1402 -0.3486
 9180TIP3    H248956   1.983   5.325   2.638 -1.4906 -0.2208  0.0173
 9181TIP3   OH248957   4.571   6.433   3.335  0.0143 -0.3700 -0.1441
 9181TIP3    H148958   4.634   6.427   3.263  0.2172 -1.1132  0.0962
 9181TIP3    H248959   4.487   6.451   3.291  0.2699 -0.0401 -0.5059
 9182TIP3   OH248960   1.554   4.747  10.880  0.4954 -0.3138 -0.5352
 9182TIP3    H148961   1.467   4.735  10.842  0.1774 -0.4820  0.2240
 9182TIP3    H248962   1.550   4.700  10.963  0.7395  1.1533  0.3397
 9183TIP3   OH248963   6.372   7.007  13.262 -0.1005 -0.4750 -0.0676
 9183TIP3    H148964   6.430   6.941  13.224  0.4375  1.0296 -2.0213
 9183TIP3    H248965   6.430   7.076  13.294 -0.7152 -0.1179  0.3214
 9184TIP3   OH248966   2.050   3.758   0.162  0.3653  0.1423 -0.1494
 9184TIP3    H148967   2.054   3.778   0.256 -2.2449 -1.0349  0.2958
 9184TIP3    H248968   2.086   3.669   0.155 -1.4887 -0.6868  0.1571
 9185TIP3   OH248969   3.701   6.529  10.529 -0.4740 -0.1795 -0.4033
 9185TIP3    H148970   3.620   6.539  10.580 -0.2229 -2.4479  0.6139
 9185TIP3    H248971   3.677   6.468  10.459  0.1979 -0.3875 -0.4526
 9186TIP3   OH248972   5.110   3.583   2.413  0.0251 -0.7746  0.5768
 9186TIP3    H148973   5.059   3.626   2.345 -2.5910 -2.3408  1.3864
 9186TIP3    H248974   5.087   3.630   2.494  1.8634  0.0575  0.6657
 9187TIP3   OH248975   5.160   2.132  12.991 -0.0345  0.1932 -0.6621
 9187TIP3    H148976   5.192   2.044  12.972 -1.5615 -0.2039 -1.6094
 9187TIP3    H248977   5.151   2.173  12.906 -0.5043  0.8344 -0.3104
 9188TIP3   OH248978   1.021   4.326  10.934  0.2722  0.5075 -0.4383
 9188TIP3    H148979   1.047   4.376  10.856 -1.7733  1.1725 -0.7398
 9188TIP3    H248980   1.049   4.381  11.007  0.5429  0.7632 -0.7271
 9189TIP3   OH248981   2.682   4.534  13.772  0.0828 -0.1162  0.0187
 9189TIP3    H148982   2.729   4.594  13.831  0.0456 -0.5475  0.4926
 9189TIP3    H248983   2.665   4.456  13.825 -1.3414  0.0995 -0.0695
 9190TIP3   OH248984   0.318   0.981  10.131 -0.1573  0.3362  0.3906
 9190TIP3    H148985   0.296   1.007  10.041  1.6092  1.5269  0.2518
 9190TIP3    H248986   0.385   0.914  10.120  0.7754  1.1824  0.8046
 9191TIP3   OH248987   5.851   5.078   2.413 -0.6649 -0.1875 -0.0387
 9191TIP3    H148988   5.919   5.078   2.480 -0.4021 -0.6170 -0.2947
 9191TIP3    H248989   5.824   5.169   2.406 -0.0054  0.0140 -0.0438
 9192TIP3   OH248990   2.504   4.620  12.625  0.4576 -0.1227  0.1050
 9192TIP3    H148991   2.484   4.663  12.541  0.3668  1.3723  0.8626
 9192TIP3    H248992   2.553   4.685  12.674 -0.2116 -0.6625  1.5417
 9193TIP3   OH248993   4.659   6.583  15.341 -0.1749  0.3692 -0.5242
 9193TIP3    H148994   4.644   6.633  15.261  0.5154 -0.7452 -1.3804
 9193TIP3    H248995   4.740   6.536  15.325 -0.0802  0.0331  0.8048
 9194TIP3   OH248996   5.627   4.951   1.709  0.1672  0.7110  0.2074
 9194TIP3    H148997   5.555   4.912   1.658  1.0108 -0.8359  0.1628
 9194TIP3    H248998   5.607   4.928   1.800  2.0151 -2.2393 -0.0261
 9195TIP3   OH248999   3.900   2.769  13.805  1.0521  0.0032 -0.2643
 9195TIP3    H149000   3.817   2.731  13.834 -0.0902  0.8898 -2.1591
 9195TIP3    H249001   3.900   2.857  13.841  1.7200 -0.3332  0.6150
 9196TIP3   OH249002   2.195   2.280   2.577 -0.5659 -0.3160  0.3502
 9196TIP3    H149003   2.255   2.288   2.651 -0.9225  1.2069  0.4966
 9196TIP3    H249004   2.159   2.192   2.585  0.5979 -0.7570  1.0528
 9197TIP3   OH249005   4.832   2.734  10.194 -0.5248 -0.6667 -0.5700
 9197TIP3    H149006   4.753   2.768  10.235 -1.4334 -2.7720 -0.4297
 9197TIP3    H249007   4.856   2.658  10.247  0.8372 -0.8485 -1.3871
 9198TIP3   OH249008   2.740   2.007  10.584 -0.2369 -0.1339  0.1559
 9198TIP3    H149009   2.680   1.935  10.604 -0.5937  0.2314  0.4249
 9198TIP3    H249010   2.690   2.065  10.527  0.8592 -1.3007 -2.1038
 9199TIP3   OH249011   4.109   5.271   5.694 -0.1133  0.0446 -0.5794
 9199TIP3    H149012   4.153   5.215   5.630  0.5759  1.0427 -1.0089
 9199TIP3    H249013   4.162   5.351   5.695 -0.4536  0.2649  0.8150
 9200TIP3   OH249014   2.330   0.285   4.305 -0.6400  0.3371 -0.2722
 9200TIP3    H149015   2.250   0.233   4.316 -1.5254  1.6698 -0.1203
 9200TIP3    H249016   2.395   0.243   4.361 -1.2886 -0.6687 -0.2577
 9201TIP3   OH249017   3.783   4.928   3.109  0.4123 -0.3510  0.3470
 9201TIP3    H149018   3.736   5.009   3.126  0.2492  0.3908 -2.9454
 9201TIP3    H249019   3.842   4.918   3.183  0.7166  3.0211  0.7023
 9202TIP3   OH249020   3.239   2.031  13.274  0.1773 -0.4401 -0.3349
 9202TIP3    H149021   3.220   2.087  13.350 -0.7324 -0.3388 -0.6354
 9202TIP3    H249022   3.187   2.068  13.203 -0.1579 -1.4525 -0.6289
 9203TIP3   OH249023   6.202   4.385  14.789  0.0091 -0.6817 -0.3379
 9203TIP3    H149024   6.132   4.359  14.729 -0.7218  0.3737  0.0318
 9203TIP3    H249025   6.183   4.336  14.869  0.5860 -1.5566 -0.7152
 9204TIP3   OH249026   2.342   6.062  12.687 -0.0817 -0.3256 -0.1772
 9204TIP3    H149027   2.420   6.101  12.647 -0.5203  1.4476  0.6243
 9204TIP3    H249028   2.282   6.135  12.700 -1.5977 -1.5343 -0.0642
 9205TIP3   OH249029   2.043   0.932  13.992  0.6647  0.0324 -0.1780
 9205TIP3    H149030   2.019   0.841  14.010  2.4058 -0.5031 -0.3047
 9205TIP3    H249031   2.111   0.951  14.057  2.2232  0.3261 -1.8237
 9206TIP3   OH249032   4.239   4.440  11.458 -0.4036  0.0552  0.2511
 9206TIP3    H149033   4.202   4.527  11.472 -0.4292  0.4803 -2.1053
 9206TIP3    H249034   4.199   4.386  11.526  0.3651  2.0243  2.4198
 9207TIP3   OH249035   6.168   0.290  11.221 -0.5355 -0.4012 -0.5147
 9207TIP3    H149036   6.231   0.297  11.150 -0.7418 -0.5465 -0.7122
 9207TIP3    H249037   6.170   0.198  11.246  0.1042 -0.2055  0.1870
 9208TIP3   OH249038   1.352   6.003  13.550  0.4664  0.1506  0.3288
 9208TIP3    H149039   1.314   6.017  13.463  4.1367 -0.9644 -1.7099
 9208TIP3    H249040   1.402   6.083  13.567  2.6979 -0.9867 -0.4372
 9209TIP3   OH249041   0.239   0.855  14.853 -0.5265  0.3443 -0.5864
 9209TIP3    H149042   0.247   0.776  14.906  2.0631  0.5174 -0.5779
 9209TIP3    H249043   0.214   0.923  14.916 -2.0499 -0.2737 -0.4703
 9210TIP3   OH249044   0.978   4.642   4.573  0.3123 -0.1102 -0.2969
 9210TIP3    H149045   0.927   4.721   4.592 -0.0026  0.1600 -2.0657
 9210TIP3    H249046   0.937   4.574   4.626  0.9398  0.9771  1.7024
 9211TIP3   OH249047   2.039   5.888   2.594  0.2563 -0.4821 -0.6550
 9211TIP3    H149048   1.971   5.951   2.567  0.6016 -0.6039 -1.8568
 9211TIP3    H249049   2.031   5.884   2.689 -1.7230 -0.8294 -0.8007
 9212TIP3   OH249050   0.472   1.342   1.250 -0.0794 -0.6610  0.1834
 9212TIP3    H149051   0.378   1.326   1.259 -0.5151  0.9132 -1.0734
 9212TIP3    H249052   0.498   1.294   1.171 -0.1040 -0.1384 -0.1504
 9213TIP3   OH249053   4.530   1.602   3.993 -0.4076  0.1998  0.1719
 9213TIP3    H149054   4.602   1.591   3.931 -0.0862 -0.5492  0.6632
 9213TIP3    H249055   4.555   1.678   4.046  0.0705 -0.1142  0.4014
 9214TIP3   OH249056   3.615   0.530   2.646 -0.0138 -0.3587 -0.3409
 9214TIP3    H149057   3.636   0.520   2.739  0.3441  3.6418  0.1825
 9214TIP3    H249058   3.521   0.512   2.641 -0.1870  0.0479  0.9807
 9215TIP3   OH249059   7.122   4.532  12.470  0.0671 -0.2232  0.3319
 9215TIP3    H149060   7.094   4.467  12.535  0.4974 -1.7877 -0.9713
 9215TIP3    H249061   7.096   4.616  12.508  0.7094 -1.0060  2.7275
 9216TIP3   OH249062   0.941   2.780   0.481 -0.0955  0.5148 -0.3195
 9216TIP3    H149063   0.994   2.780   0.402  0.2276 -2.1944 -0.2030
 9216TIP3    H249064   0.992   2.729   0.544 -1.9156 -0.4498  0.4541
 9217TIP3   OH249065   6.970   6.873   5.535  0.3093 -0.6797 -0.1092
 9217TIP3    H149066   7.004   6.839   5.617 -0.6494 -0.6345  0.3170
 9217TIP3    H249067   6.881   6.900   5.555 -0.1851 -1.3226 -1.3247
 9218TIP3   OH249068   4.279   3.925  11.434  0.5524 -0.5231 -0.1220
 9218TIP3    H149069   4.308   3.941  11.344  1.7960 -1.3866  0.0967
 9218TIP3    H249070   4.352   3.954  11.488  0.0010 -0.4560  0.5955
 9219TIP3   OH249071   3.928   5.415  12.883 -0.2207 -0.0321  0.1112
 9219TIP3    H149072   4.007   5.363  12.899 -0.5497 -0.3558  0.7497
 9219TIP3    H249073   3.895   5.385  12.799 -0.0164 -0.3501  0.1446
 9220TIP3   OH249074   4.291   4.118  11.070 -0.1527 -0.1568 -0.0838
 9220TIP3    H149075   4.303   4.181  11.142  0.5263  0.0397 -0.3670
 9220TIP3    H249076   4.322   4.164  10.992  1.1300 -1.1338 -0.1699
 9221TIP3   OH249077   5.713   5.310   1.055  0.0311  0.1005 -0.1100
 9221TIP3    H149078   5.755   5.229   1.027  1.8028  0.3434  1.6115
 9221TIP3    H249079   5.779   5.355   1.107 -2.0407  0.9858  1.9656
 9222TIP3   OH249080   0.761   0.649  14.032  0.2172 -0.2372  0.0623
 9222TIP3    H149081   0.687   0.623  14.088  0.0122 -1.4766 -0.7666
 9222TIP3    H249082   0.830   0.673  14.094 -1.0570  1.6232  0.8768
 9223TIP3   OH249083   2.421   2.796  15.310  0.5166  0.1759  0.2417
 9223TIP3    H149084   2.478   2.866  15.340 -0.3378  0.0582  2.3063
 9223TIP3    H249085   2.480   2.730  15.275  1.4429  1.1388 -0.0608
 9224TIP3   OH249086   4.470   3.378  11.468 -0.0777  0.2131 -0.2492
 9224TIP3    H149087   4.535   3.428  11.420 -0.0779  0.0910 -0.3784
 9224TIP3    H249088   4.474   3.411  11.557  0.5436 -0.1680 -0.1316
 9225TIP3   OH249089   0.262   2.632  12.848  0.1741  0.0067  0.1554
 9225TIP3    H149090   0.347   2.661  12.816  1.1641 -0.0176  2.5712
 9225TIP3    H249091   0.245   2.551  12.801  1.0580  0.4653 -0.9909
 9226TIP3   OH249092   2.955   0.749   0.232  0.7226 -0.3118  0.2589
 9226TIP3    H149093   3.019   0.752   0.161 -0.3107 -1.0213 -0.7416
 9226TIP3    H249094   2.933   0.841   0.248  0.5141 -0.1707 -0.7767
 9227TIP3   OH249095   3.676   1.666  12.772 -1.0506 -0.2085 -0.1349
 9227TIP3    H149096   3.737   1.605  12.731 -2.2922 -2.4783  1.1623
 9227TIP3    H249097   3.687   1.748  12.723  2.4788 -0.6637 -0.3651
 9228TIP3   OH249098   3.370   6.123   3.823 -0.2738 -0.5784  0.0512
 9228TIP3    H149099   3.450   6.098   3.868  0.1561 -2.4326 -1.6097
 9228TIP3    H249100   3.393   6.201   3.774  0.7354 -1.4365 -0.8876
 9229TIP3   OH249101   1.702   6.909  15.341  0.0992  0.1908 -0.4766
 9229TIP3    H149102   1.768   6.938  15.404 -2.1144  1.0994  1.5883
 9229TIP3    H249103   1.680   6.820  15.369  0.8038 -0.3165 -1.4953
 9230TIP3   OH249104   0.445   4.551  13.872 -0.7617 -0.0513  0.1422
 9230TIP3    H149105   0.366   4.509  13.836 -0.4687 -0.7699  0.3096
 9230TIP3    H249106   0.510   4.544  13.801 -1.2292  1.7714 -0.5148
 9231TIP3   OH249107   0.125   0.715  10.757 -0.0018  0.1146  0.4050
 9231TIP3    H149108   0.162   0.691  10.672 -0.9031 -0.5364  0.1713
 9231TIP3    H249109   0.068   0.641  10.780 -3.4576  2.2094 -0.6732
 9232TIP3   OH249110   0.495   5.085   0.679  0.4158  0.1763 -0.0713
 9232TIP3    H149111   0.465   5.176   0.671  0.8075  0.3761  0.6759
 9232TIP3    H249112   0.590   5.092   0.688  0.3041 -0.1785  1.7763
 9233TIP3   OH249113   1.198   0.510  11.269 -0.1738  0.2187 -0.3973
 9233TIP3    H149114   1.233   0.586  11.315  0.0423 -0.9702  1.5194
 9233TIP3    H249115   1.180   0.446  11.338  0.1415 -1.6742 -1.9648
 9234TIP3   OH249116   2.240   5.206  12.812 -0.4948  0.1606 -0.2961
 9234TIP3    H149117   2.191   5.144  12.867 -1.3266  0.1958 -0.9831
 9234TIP3    H249118   2.245   5.163  12.727 -1.2302  1.0991 -0.8305
 9235TIP3   OH249119   4.412   6.456  12.820 -0.4084 -0.5143  0.0106
 9235TIP3    H149120   4.430   6.457  12.727 -3.2075 -2.6909 -0.7047
 9235TIP3    H249121   4.368   6.540  12.837  1.4946  0.5879 -0.1894
 9236TIP3   OH249122   6.796   5.342   1.923  0.0548  0.1746  0.2349
 9236TIP3    H149123   6.876   5.338   1.976 -0.1745 -1.3242  0.5140
 9236TIP3    H249124   6.726   5.354   1.986 -0.2186 -1.6164  0.3392
 9237TIP3   OH249125   5.051   6.552  12.170  0.2202  0.3452 -0.2603
 9237TIP3    H149126   5.088   6.477  12.124 -0.4515  0.3149 -0.7690
 9237TIP3    H249127   5.040   6.619  12.102  0.7235  0.8740  0.1717
 9238TIP3   OH249128   4.282   1.568   0.396  0.0629  0.2784 -0.4125
 9238TIP3    H149129   4.320   1.526   0.319 -0.5672 -0.7636 -0.1770
 9238TIP3    H249130   4.320   1.521   0.470  1.6298  2.0789  0.0006
 9239TIP3   OH249131   3.560   4.478  12.579  0.4318  0.0254 -0.6574
 9239TIP3    H149132   3.473   4.508  12.551 -0.1485 -0.3197  0.6571
 9239TIP3    H249133   3.541   4.405  12.639  1.5876  0.5857  0.4321
 9240TIP3   OH249134   3.489   0.077  14.566  0.1566 -0.1291 -0.3603
 9240TIP3    H149135   3.520   0.068  14.475 -0.9556 -1.4611 -0.6432
 9240TIP3    H249136   3.493  -0.012  14.601 -0.6670  0.1504  0.4774
 9241TIP3   OH249137   0.386   6.585  11.549 -0.3642  0.1661 -0.6729
 9241TIP3    H149138   0.450   6.644  11.588  0.3927 -0.9598 -0.1351
 9241TIP3    H249139   0.352   6.631  11.473  0.7877  0.9522 -0.7230
 9242TIP3   OH249140   5.162   3.335   4.057 -0.6496  0.3809  0.3770
 9242TIP3    H149141   5.177   3.421   4.095 -0.9236  0.4387  0.3523
 9242TIP3    H249142   5.195   3.343   3.967  0.0894  0.2142  0.6227
 9243TIP3   OH249143   0.508   6.630  15.441  0.5539  0.0867 -0.3380
 9243TIP3    H149144   0.419   6.646  15.411  1.3445  1.9353 -1.9528
 9243TIP3    H249145   0.507   6.541  15.475 -2.2039  0.5256  0.9609
 9244TIP3   OH249146   1.221   6.379  13.899  0.0838  0.1229 -0.5556
 9244TIP3    H149147   1.157   6.408  13.834  0.3070  0.7964 -0.4726
 9244TIP3    H249148   1.192   6.419  13.981  0.0786 -0.3377 -0.3243
 9245TIP3   OH249149   1.280   3.274   2.722  0.0773 -0.1100  0.1789
 9245TIP3    H149150   1.298   3.240   2.810  0.1669  1.3290  0.7376
 9245TIP3    H249151   1.286   3.197   2.665  0.2792 -1.0185  1.3906
 9246TIP3   OH249152   4.132   5.068  13.410  0.1877 -0.4346  0.1712
 9246TIP3    H149153   4.197   5.000  13.431  1.5327  0.3027 -1.4179
 9246TIP3    H249154   4.105   5.048  13.320  0.5998  1.1125 -0.3219
 9247TIP3   OH249155   4.909   0.612  10.805  0.2964  0.1811 -0.2782
 9247TIP3    H149156   4.857   0.532  10.818  0.9562 -0.3264 -0.6700
 9247TIP3    H249157   4.845   0.683  10.809 -0.0254 -0.1536  2.3515
 9248TIP3   OH249158   0.983   3.987  14.874  0.3427 -0.3185 -0.2138
 9248TIP3    H149159   1.062   4.039  14.861 -0.4062  0.5804 -1.3270
 9248TIP3    H249160   0.918   4.049  14.907 -0.1381 -0.8560 -0.1257
 9249TIP3   OH249161   6.245   2.585  12.327  0.0806  0.5868 -0.2332
 9249TIP3    H149162   6.292   2.507  12.359 -0.7422  0.0312 -0.3314
 9249TIP3    H249163   6.194   2.553  12.253 -1.0105  0.9925  0.3183
 9250TIP3   OH249164   1.519   3.373  12.509  0.6112 -0.3148 -0.3154
 9250TIP3    H149165   1.426   3.366  12.492  0.9582 -0.2563 -2.4703
 9250TIP3    H249166   1.561   3.343  12.429  2.5958 -4.6038  2.0127
 9251TIP3   OH249167   3.342   4.222   2.184 -0.2237  0.3231 -0.2635
 9251TIP3    H149168   3.304   4.276   2.114  0.4507  1.7200  0.4414
 9251TIP3    H249169   3.353   4.281   2.258 -0.1990 -0.9656  0.8025
 9252TIP3   OH249170   6.901   1.281  12.817  0.6370 -0.0483 -0.6372
 9252TIP3    H149171   6.935   1.366  12.848 -0.5769  0.0895  0.3688
 9252TIP3    H249172   6.905   1.288  12.722  1.8644  0.5876 -0.5718
 9253TIP3   OH249173   4.020   1.630  14.376  0.3655  0.3111  0.4182
 9253TIP3    H149174   3.926   1.608  14.381  0.5165 -0.1613  1.3566
 9253TIP3    H249175   4.026   1.718  14.414  0.2670  0.4635  0.0856
 9254TIP3   OH249176   2.248   6.795  11.493 -0.2500  0.2542 -0.6592
 9254TIP3    H149177   2.295   6.724  11.537 -2.5107 -0.9843 -0.1357
 9254TIP3    H249178   2.246   6.865  11.558 -0.3123 -0.1869 -0.1752
 9255TIP3   OH249179   2.325   5.526   5.445 -0.0467 -0.3328 -0.4516
 9255TIP3    H149180   2.254   5.582   5.475  1.0348  0.7802  0.1609
 9255TIP3    H249181   2.353   5.478   5.524  0.2262 -0.3602 -0.5622
 9256TIP3   OH249182   0.931   4.709   0.454  0.7942  0.2872 -0.2766
 9256TIP3    H149183   0.903   4.722   0.363  2.9525 -1.0499 -1.2065
 9256TIP3    H249184   0.967   4.620   0.455  2.1613  0.8130  1.5418
 9257TIP3   OH249185   4.563   6.292   1.928  0.1836 -0.1459  0.0067
 9257TIP3    H149186   4.469   6.306   1.915 -0.0655  0.1748  1.8011
 9257TIP3    H249187   4.569   6.251   2.015  1.6435 -1.1997 -0.5520
 9258TIP3   OH249188   1.142   1.985  13.527 -0.3492 -0.0398 -0.2685
 9258TIP3    H149189   1.140   1.916  13.593 -0.4848  0.0493 -0.1788
 9258TIP3    H249190   1.128   1.938  13.444  0.2047 -0.1969 -0.2767
 9259TIP3   OH249191   3.184   0.086  14.601  0.0765  0.1025  0.5742
 9259TIP3    H149192   3.276   0.072  14.580 -0.3383  0.1534 -1.5081
 9259TIP3    H249193   3.179   0.072  14.695  2.1156 -0.3951  0.6664
 9260TIP3   OH249194   1.082   1.730  12.753 -0.0427  0.4328 -0.1764
 9260TIP3    H149195   1.142   1.742  12.827  0.6537 -1.5384 -0.3668
 9260TIP3    H249196   1.009   1.680  12.790 -0.4829  0.8446 -0.4730
 9261TIP3   OH249197   0.451   5.084   3.940 -0.5191 -0.1628 -0.3890
 9261TIP3    H149198   0.508   5.086   3.863  1.3769  1.2013  0.9563
 9261TIP3    H249199   0.494   5.024   4.001 -1.7921 -0.9339 -0.2121
 9262TIP3   OH249200   1.526   4.300  14.673 -0.2558 -0.6485  0.5584
 9262TIP3    H149201   1.477   4.330  14.597 -0.2330 -0.8091  0.4802
 9262TIP3    H249202   1.497   4.209  14.686  0.6680 -1.0393 -0.0258
 9263TIP3   OH249203   5.681   6.632   3.225  0.5423 -0.1328 -0.4373
 9263TIP3    H149204   5.750   6.697   3.241  1.0785 -1.0039  1.0050
 9263TIP3    H249205   5.646   6.612   3.312 -3.0649  1.8017 -1.2207
 9264TIP3   OH249206   2.472   3.551  10.501 -0.1657  0.6728 -0.1298
 9264TIP3    H149207   2.527   3.602  10.561 -0.1828  0.7134 -0.1487
 9264TIP3    H249208   2.534   3.516  10.437  0.5665 -2.6648  2.0853
 9265TIP3   OH249209   2.695   6.541   5.081 -0.7111 -0.0256 -0.4981
 9265TIP3    H149210   2.750   6.617   5.100  0.1518 -0.3070 -1.7563
 9265TIP3    H249211   2.657   6.518   5.165  0.7058  0.4946  0.3256
 9266TIP3   OH249212   2.628   5.931   1.032  0.0499  0.3103 -0.1160
 9266TIP3    H149213   2.575   6.010   1.021 -0.2428  0.1431  0.0764
 9266TIP3    H249214   2.656   5.934   1.123 -0.2188  0.0358 -0.0219
 9267TIP3   OH249215   1.332   0.533   3.346 -0.1828  0.6906 -0.2510
 9267TIP3    H149216   1.426   0.546   3.337 -0.0317  0.1828  0.4739
 9267TIP3    H249217   1.314   0.550   3.439 -0.4966 -1.0114  0.0276
 9268TIP3   OH249218   5.724   0.371  14.656 -0.1694  0.4474 -0.4824
 9268TIP3    H149219   5.762   0.455  14.682  2.0396 -0.5311 -0.4059
 9268TIP3    H249220   5.633   0.392  14.634 -0.6771  2.2819  2.7643
 9269TIP3   OH249221   2.838   3.541  10.631  0.0640  0.2355  0.2010
 9269TIP3    H149222   2.892   3.540  10.552  0.0768  0.3568  0.2086
 9269TIP3    H249223   2.889   3.592  10.694  0.5275 -0.7047  0.6180
 9270TIP3   OH249224   2.834   0.268  10.870 -0.8225  0.0577 -0.4996
 9270TIP3    H149225   2.889   0.275  10.949 -1.0860  0.6312 -0.3637
 9270TIP3    H249226   2.766   0.334  10.883 -1.3244 -0.3931 -0.8487
 9271TIP3   OH249227   3.665   4.551  15.061 -0.8134  0.0193 -0.4599
 9271TIP3    H149228   3.693   4.608  15.133 -2.4583  1.2510 -0.7361
 9271TIP3    H249229   3.583   4.513  15.092 -0.8204 -0.5357 -1.1501
 9272TIP3   OH249230   3.992   5.954  14.202  0.1267  0.1771 -0.4011
 9272TIP3    H149231   4.015   6.025  14.141 -0.7024 -1.2081 -2.4517
 9272TIP3    H249232   3.927   5.994  14.261 -1.0543  0.9243 -2.1090
 9273TIP3   OH249233   1.422   4.699   9.833 -0.3047 -0.1419 -0.0419
 9273TIP3    H149234   1.514   4.671   9.827 -0.0429  0.7683 -0.4615
 9273TIP3    H249235   1.386   4.646   9.904  0.5770 -0.4369  0.2060
 9274TIP3   OH249236   0.391   3.616  10.474 -0.5902 -0.1030  0.4549
 9274TIP3    H149237   0.356   3.533  10.445  1.7236 -0.5068 -1.5509
 9274TIP3    H249238   0.428   3.598  10.561  1.9089 -1.8883 -0.8657
 9275TIP3   OH249239   7.150   2.943  13.995  0.2117 -0.1913  0.3725
 9275TIP3    H149240   7.125   2.953  14.087  1.0616  1.7242  0.4258
 9275TIP3    H249241   7.159   2.848  13.983  0.9582 -0.4327  2.4981
 9276TIP3   OH249242   6.731   4.144  10.829 -0.3165 -0.4019  0.3203
 9276TIP3    H149243   6.693   4.140  10.917 -1.5210  0.3342 -0.1303
 9276TIP3    H249244   6.676   4.208  10.783  1.1944  0.3204 -0.5347
 9277TIP3   OH249245   6.271   6.132   5.828  0.0963  0.2435 -0.2761
 9277TIP3    H149246   6.318   6.050   5.814  0.5925  0.8017 -2.0709
 9277TIP3    H249247   6.180   6.106   5.841  0.1712 -0.5762 -1.2691
 9278TIP3   OH249248   1.710   0.270  11.621  0.0986 -0.4752 -0.4934
 9278TIP3    H149249   1.769   0.335  11.584  0.5544 -0.8046 -0.3497
 9278TIP3    H249250   1.626   0.285  11.577 -0.1325  0.9848  0.3855
 9279TIP3   OH249251   2.509   6.074  10.781 -0.1148  0.3360  0.0967
 9279TIP3    H149252   2.426   6.109  10.812 -1.5970 -2.4286 -0.4570
 9279TIP3    H249253   2.516   5.987  10.822  1.6347 -0.2411 -1.2655
 9280TIP3   OH249254   7.091   5.117   0.952 -0.6002  0.5192 -0.2227
 9280TIP3    H149255   7.078   5.144   0.861 -1.5184 -2.1906 -0.9632
 9280TIP3    H249256   7.183   5.140   0.970  0.2217 -0.6418 -2.5153
 9281TIP3   OH249257   3.484   4.425  15.201 -0.0195 -0.2002 -0.2311
 9281TIP3    H149258   3.420   4.356  15.181 -0.2800  0.5623 -2.2149
 9281TIP3    H249259   3.432   4.504  15.212  0.2579 -0.2867  2.2665
 9282TIP3   OH249260   1.014   3.765   3.171 -0.1549 -0.5600 -0.0693
 9282TIP3    H149261   0.952   3.765   3.097  0.2936 -0.5286 -0.4508
 9282TIP3    H249262   0.959   3.755   3.248 -0.4850 -3.1557 -0.5407
 9283TIP3   OH249263   3.617   5.255   4.202  0.9620 -0.4903 -0.5124
 9283TIP3    H149264   3.712   5.265   4.204  1.0686 -1.4059 -0.2717
 9283TIP3    H249265   3.601   5.175   4.253 -0.1384  1.1133  1.8453
 9284TIP3   OH249266   0.955   3.637   1.825 -0.3193  0.9637 -0.3031
 9284TIP3    H149267   1.028   3.594   1.871 -0.6046  0.2263 -0.5208
 9284TIP3    H249268   0.985   3.646   1.735 -0.3248  1.0739 -0.2941
 9285TIP3   OH249269   0.496   2.907  14.685 -0.3588  0.4107 -0.5491
 9285TIP3    H149270   0.565   2.933  14.624  0.3448 -0.1156 -0.0011
 9285TIP3    H249271   0.445   2.987  14.700 -0.9720  0.3971 -2.3412
 9286TIP3   OH249272   5.207   3.720  12.147  0.2403  0.0426 -0.5742
 9286TIP3    H149273   5.140   3.656  12.174  1.1488 -1.1984 -1.1472
 9286TIP3    H249274   5.157   3.795  12.115 -0.8721 -0.6004 -0.4170
 9287TIP3   OH249275   2.298   6.105  15.448 -0.3646  0.4262 -0.0477
 9287TIP3    H149276   2.376   6.082  15.498 -0.1784  1.1409 -0.0027
 9287TIP3    H249277   2.294   6.039  15.379  0.3340  0.4318 -0.1016
 9288TIP3   OH249278   2.974   1.164  10.826 -0.5765 -0.5949 -0.3820
 9288TIP3    H149279   2.973   1.079  10.783 -1.2751  0.2309 -2.1334
 9288TIP3    H249280   2.937   1.149  10.912 -0.5303 -2.0830 -0.6078
 9289TIP3   OH249281   6.893   4.781   3.934 -0.0027  0.5852 -0.3610
 9289TIP3    H149282   6.985   4.756   3.941 -0.1157  0.1969 -0.2880
 9289TIP3    H249283   6.884   4.815   3.845  0.1390  0.3242 -0.4755
 9290TIP3   OH249284   3.122   2.720  10.303 -0.3320  0.4453 -0.3568
 9290TIP3    H149285   3.126   2.808  10.266 -0.9661 -0.5209 -2.9539
 9290TIP3    H249286   3.213   2.690  10.301 -0.3042  0.5493 -0.7962
 9291TIP3   OH249287   1.194   4.440   4.147 -0.0028 -0.1070  0.1470
 9291TIP3    H149288   1.214   4.347   4.154 -1.3090 -0.4579 -0.4454
 9291TIP3    H249289   1.112   4.452   4.196 -0.5196  0.4684 -0.8089
 9292TIP3   OH249290   6.246   3.304  10.793  0.7654  0.8239 -0.9336
 9292TIP3    H149291   6.210   3.375  10.739  1.8362 -0.0896 -2.9871
 9292TIP3    H249292   6.303   3.256  10.733  1.4640 -0.7172  0.8791
 9293TIP3   OH249293   1.793   0.055  10.014  0.1015  0.4338 -0.2801
 9293TIP3    H149294   1.794   0.069   9.920 -1.2821  1.5784 -0.1536
 9293TIP3    H249295   1.810   0.141  10.052  1.6100 -0.1733  0.5553
 9294TIP3   OH249296   3.327   2.272  14.932 -0.5286  0.5296  0.2304
 9294TIP3    H149297   3.384   2.338  14.972  0.5637  0.0780 -0.5112
 9294TIP3    H249298   3.305   2.213  15.004  0.6868  0.2279  0.3902
 9295TIP3   OH249299   0.123   4.915  11.659  0.7545 -0.1909 -0.2972
 9295TIP3    H149300   0.170   4.898  11.742  1.6230  2.0351 -0.2712
 9295TIP3    H249301   0.136   4.835  11.608  3.7138 -0.1305  0.1676
 9296TIP3   OH249302   5.718   1.379  12.038  0.5885  0.6917 -0.1496
 9296TIP3    H149303   5.779   1.305  12.038  1.7099  1.5479  1.8958
 9296TIP3    H249304   5.639   1.344  11.996  0.7138 -2.0278  1.6357
 9297TIP3   OH249305   4.607   2.290   1.798  0.0890 -0.6356 -0.0983
 9297TIP3    H149306   4.657   2.371   1.798 -1.5741  0.4381 -1.3743
 9297TIP3    H249307   4.643   2.239   1.725  0.2047 -0.4805 -0.1495
 9298TIP3   OH249308   5.922   5.300  11.355  0.5839 -0.0766  0.0879
 9298TIP3    H149309   5.955   5.240  11.288 -0.3414  1.2675 -1.6708
 9298TIP3    H249310   5.986   5.372  11.356 -0.1801  0.6353 -0.4917
 9299TIP3   OH249311   4.983   6.631  13.325 -0.3245  0.0511 -0.4482
 9299TIP3    H149312   4.906   6.686  13.337  1.0972  1.8752  1.0700
 9299TIP3    H249313   4.950   6.541  13.325 -2.2243  0.6120  2.7969
 9300TIP3   OH249314   3.452   0.321  10.269 -0.4321 -0.2941  0.0737
 9300TIP3    H149315   3.431   0.333  10.361  1.0040 -0.6116  0.4635
 9300TIP3    H249316   3.518   0.388  10.250 -1.0040  0.0306 -0.8364
 9301TIP3   OH249317   2.802   3.387  11.920 -0.3853  0.0941 -0.8605
 9301TIP3    H149318   2.769   3.315  11.865 -0.1236  0.0635 -0.9794
 9301TIP3    H249319   2.862   3.344  11.981  0.5924  0.3477 -1.6131
 9302TIP3   OH249320   1.610   1.726  13.380 -0.4483  0.0763 -0.1913
 9302TIP3    H149321   1.546   1.732  13.310 -0.8797 -0.7732  0.1065
 9302TIP3    H249322   1.624   1.816  13.408 -0.6558  0.3725 -1.0201
 9303TIP3   OH249323   3.877   6.931   4.314  0.2647 -0.0871 -0.2020
 9303TIP3    H149324   3.857   6.838   4.329  1.9544 -0.4699 -0.1776
 9303TIP3    H249325   3.857   6.973   4.398 -1.5654 -0.1841 -0.5270
 9304TIP3   OH249326   4.341   5.128  14.554  0.7076  0.0212 -0.4153
 9304TIP3    H149327   4.336   5.127  14.459 -1.8616 -0.3207 -0.3431
 9304TIP3    H249328   4.254   5.154  14.583  0.9096 -1.5035  1.8552
 9305TIP3   OH249329   1.489   5.555   3.800  0.2629 -0.0254 -0.5750
 9305TIP3    H149330   1.492   5.569   3.705 -0.6478  0.4731 -0.5349
 9305TIP3    H249331   1.427   5.619   3.832  2.1825  1.3306  0.6750
 9306TIP3   OH249332   3.282   2.511   1.807  0.2493 -0.3652  0.0932
 9306TIP3    H149333   3.263   2.546   1.720  2.1948 -1.0510 -0.6611
 9306TIP3    H249334   3.262   2.418   1.801  0.8734 -0.5127  0.2111
 9307TIP3   OH249335   5.923   1.422  13.957 -0.5830 -0.0254 -0.3479
 9307TIP3    H149336   5.991   1.384  14.013 -0.5156  0.7386  0.0937
 9307TIP3    H249337   5.952   1.402  13.868  0.3056  0.4424 -0.1698
 9308TIP3   OH249338   2.452   2.683   1.486  0.1433 -0.0190 -0.2016
 9308TIP3    H149339   2.524   2.650   1.540  0.6833  0.8722 -0.3652
 9308TIP3    H249340   2.494   2.720   1.409 -0.5818 -0.6118 -0.8978
 9309TIP3   OH249341   5.998   6.417  11.854 -0.4722 -0.1441  0.6943
 9309TIP3    H149342   6.029   6.342  11.803  0.5399  0.8489 -0.1948
 9309TIP3    H249343   6.012   6.391  11.945  0.0173 -0.9704  0.3937
 9310TIP3   OH249344   5.564   0.653  10.822  0.2382 -0.4305 -0.1312
 9310TIP3    H149345   5.653   0.673  10.852 -0.4002  1.0591  0.9027
 9310TIP3    H249346   5.557   0.696  10.737  0.5967 -0.8242 -0.3643
 9311TIP3   OH249347   5.157   6.308   0.493 -0.6280  0.1416  0.1892
 9311TIP3    H149348   5.094   6.286   0.424 -1.4569  1.5758  0.4623
 9311TIP3    H249349   5.110   6.365   0.552  0.6282  0.3991  0.9825
 9312TIP3   OH249350   6.380   1.915  11.767 -0.3052 -0.3655 -0.4001
 9312TIP3    H149351   6.402   1.933  11.858 -2.0174  0.6973 -0.1342
 9312TIP3    H249352   6.406   1.824  11.753 -0.2149 -0.6200  1.2142
 9313TIP3   OH249353   6.364   5.255   1.461 -0.0111  0.8101 -0.4724
 9313TIP3    H149354   6.419   5.232   1.386 -0.9723 -0.7299 -0.7347
 9313TIP3    H249355   6.418   5.318   1.510  0.9312  1.3202 -2.0441
 9314TIP3   OH249356   5.085   3.595  13.199 -0.0519 -0.7501  0.1939
 9314TIP3    H149357   5.076   3.533  13.127 -0.5352  0.3495 -0.7315
 9314TIP3    H249358   5.178   3.595  13.220  0.3591  0.0210 -1.4784
 9315TIP3   OH249359   5.123   1.026   0.220  0.0213 -0.0689 -0.2080
 9315TIP3    H149360   5.112   1.025   0.315  0.9844  0.2040 -0.0792
 9315TIP3    H249361   5.053   1.082   0.188  0.0083  0.2637  0.3911
 9316TIP3   OH249362   5.952   5.567   4.078  0.4540 -0.2236 -0.1933
 9316TIP3    H149363   5.947   5.531   3.990  0.6828  0.1757 -0.3708
 9316TIP3    H249364   6.043   5.554   4.104  0.0955 -1.5973  0.5293
 9317TIP3   OH249365   5.082   2.078   1.219  0.3875 -0.2283  0.2617
 9317TIP3    H149366   5.041   2.155   1.257  0.3633 -0.2870  0.3555
 9317TIP3    H249367   5.043   2.004   1.266  1.6852 -0.2291  1.4077
 9318TIP3   OH249368   5.734   4.098  12.790  0.0017 -0.2991  0.0658
 9318TIP3    H149369   5.648   4.094  12.749  0.4395 -1.4428 -0.7886
 9318TIP3    H249370   5.757   4.191  12.787 -0.4760 -0.1970 -1.2677
 9319TIP3   OH249371   6.167   2.913  12.288  0.1110  0.5597  0.5287
 9319TIP3    H149372   6.209   2.938  12.370 -0.3654  1.5036  0.5056
 9319TIP3    H249373   6.122   2.993  12.259 -0.6148 -0.0589 -0.0965
 9320TIP3   OH249374   6.388   3.567   3.117  0.2638 -0.4432 -0.3439
 9320TIP3    H149375   6.445   3.494   3.142  0.6151 -1.1589 -2.9452
 9320TIP3    H249376   6.368   3.551   3.025 -4.3464 -0.3582  0.3951
 9321TIP3   OH249377   2.805   0.301  14.056 -0.0569  0.3768 -0.0370
 9321TIP3    H149378   2.880   0.345  14.095 -0.4378  2.6859 -1.6868
 9321TIP3    H249379   2.742   0.371  14.039 -1.0866 -0.9229 -1.9872
 9322TIP3   OH249380   6.245   2.963  10.313  0.6067  0.3404 -0.0754
 9322TIP3    H149381   6.238   3.014  10.233 -0.3888  1.0328  0.4276
 9322TIP3    H249382   6.329   2.989  10.351  0.7448  0.5550 -0.5283
 9323TIP3   OH249383   1.857   4.668  11.726 -0.0417 -0.3491  0.1150
 9323TIP3    H149384   1.873   4.757  11.758  1.1734  0.5061 -2.5738
 9323TIP3    H249385   1.766   4.669  11.697 -0.2663 -0.2441  0.8037
 9324TIP3   OH249386   1.615   1.399   0.456  0.5485 -0.6931 -0.1300
 9324TIP3    H149387   1.610   1.381   0.550  0.6723 -0.1707 -0.0246
 9324TIP3    H249388   1.705   1.375   0.432  0.5016 -0.8741 -0.1267
 9325TIP3   OH249389   6.331   3.134   1.258 -0.1798  0.1874  0.1061
 9325TIP3    H149390   6.248   3.090   1.274  0.1239 -0.6133 -0.4459
 9325TIP3    H249391   6.379   3.075   1.199  0.3054  1.1881 -0.5363
 9326TIP3   OH249392   6.677   6.996  12.930  0.7850  0.2803 -0.4604
 9326TIP3    H149393   6.720   7.018  12.847  0.3183 -0.4274 -0.9027
 9326TIP3    H249394   6.588   7.027  12.920  1.7491  4.2997  1.5097
 9327TIP3   OH249395   4.966   4.156   5.347  0.0719 -0.5620  0.1175
 9327TIP3    H149396   4.950   4.250   5.358  0.1186 -0.7421  2.2415
 9327TIP3    H249397   5.061   4.147   5.345  0.0645 -0.5416 -0.4800
 9328TIP3   OH249398   0.401   2.901  13.117  0.5382  0.1504  0.2832
 9328TIP3    H149399   0.424   2.862  13.033  0.0057 -0.8204  0.5807
 9328TIP3    H249400   0.484   2.936  13.150  1.3325 -1.9632  0.6391
 9329TIP3   OH249401   4.672   3.091   4.664  0.0326 -0.2299 -0.0924
 9329TIP3    H149402   4.623   3.049   4.594 -1.9893 -0.4180  1.3482
 9329TIP3    H249403   4.686   3.021   4.728 -1.6925  0.7739  1.4764
 9330TIP3   OH249404   6.563   0.062  11.606  0.1617 -0.4781  0.1885
 9330TIP3    H149405   6.489   0.004  11.586  0.0505 -0.1292 -0.4187
 9330TIP3    H249406   6.641   0.009  11.589  0.0728 -1.1806  1.7841
 9331TIP3   OH249407   2.239   2.673   0.897 -0.2127  0.4181 -0.0144
 9331TIP3    H149408   2.307   2.622   0.941  0.3671  2.5751  1.8192
 9331TIP3    H249409   2.157   2.636   0.929 -0.0186 -2.0849 -2.0961
 9332TIP3   OH249410   6.713   2.979   2.043 -0.0991  0.6274 -0.2251
 9332TIP3    H149411   6.702   2.885   2.054  0.5806  0.3349 -1.6992
 9332TIP3    H249412   6.707   3.015   2.131  1.6170 -1.0335  0.6448
 9333TIP3   OH249413   6.466   2.072   1.511  0.4069 -0.1043 -0.3604
 9333TIP3    H149414   6.445   2.141   1.449 -0.4755 -0.2665 -0.2558
 9333TIP3    H249415   6.383   2.026   1.526  0.5659 -0.0004  1.0162
 9334TIP3   OH249416   2.819   6.438  11.433 -0.2840  0.2312 -0.5233
 9334TIP3    H149417   2.786   6.429  11.522 -0.2786 -1.1562 -0.6319
 9334TIP3    H249418   2.892   6.500  11.440 -0.3003  0.1583  0.4358
 9335TIP3   OH249419   3.572   7.137  15.488  0.3687 -0.1898  0.1520
 9335TIP3    H149420   3.632   7.108  15.419  1.1788  1.4949  0.0875
 9335TIP3    H249421   3.625   7.197  15.541 -1.3202  1.6519 -0.1331
 9336TIP3   OH249422   0.463   1.405   4.337  0.0960 -0.8335 -0.6233
 9336TIP3    H149423   0.485   1.497   4.352  0.7183 -1.0991  0.1756
 9336TIP3    H249424   0.400   1.384   4.406  1.8985 -1.6758  0.8678
 9337TIP3   OH249425   5.867   5.100  14.015  0.1816 -0.0071  0.4379
 9337TIP3    H149426   5.796   5.135  14.069 -0.8044  0.5776 -1.1575
 9337TIP3    H249427   5.845   5.007  14.005 -0.0929  0.0619  0.3741
 9338TIP3   OH249428   1.032   5.185  12.839 -0.0821 -0.1484  0.1500
 9338TIP3    H149429   0.973   5.153  12.907  0.3969  1.1340  1.1936
 9338TIP3    H249430   1.005   5.275  12.823 -0.3589 -0.4904 -1.5847
 9339TIP3   OH249431   2.869   2.773  15.340  0.0528 -0.3857 -0.5466
 9339TIP3    H149432   2.961   2.795  15.354 -0.2410  0.1382  0.7002
 9339TIP3    H249433   2.850   2.708  15.408 -0.4870 -0.5186 -0.8216
 9340TIP3   OH249434   1.194   3.840  12.481 -0.3249  0.0812  0.7910
 9340TIP3    H149435   1.155   3.928  12.485 -1.0170 -0.1968  0.2971
 9340TIP3    H249436   1.201   3.813  12.573 -0.2622  0.5869  0.9380
 9341TIP3   OH249437   4.714   5.733   1.219 -0.2449  0.2280 -0.2409
 9341TIP3    H149438   4.701   5.664   1.283  0.8552 -0.3166 -0.5718
 9341TIP3    H249439   4.799   5.713   1.179 -0.9197  0.5017 -1.9102
 9342TIP3   OH249440   6.140   5.803  15.228 -0.2438 -0.1022 -0.1020
 9342TIP3    H149441   6.169   5.890  15.203 -0.2386 -0.3608 -1.0371
 9342TIP3    H249442   6.065   5.785  15.172  0.5284 -1.1921 -0.8561
 9343TIP3   OH249443   0.887   5.559  14.803  0.0826  0.0549 -1.1161
 9343TIP3    H149444   0.948   5.526  14.869 -0.3196 -1.0261 -1.2741
 9343TIP3    H249445   0.918   5.523  14.720 -1.3711 -1.4279 -1.0649
 9344TIP3   OH249446   0.361   0.766  15.456 -0.3165  0.5053  0.1821
 9344TIP3    H149447   0.285   0.723  15.417 -0.9196  0.6055  1.2146
 9344TIP3    H249448   0.359   0.739  15.548  1.6313 -0.5204 -0.0160
 9345TIP3   OH249449   0.994   5.774  12.879  0.5246  0.3034  0.4597
 9345TIP3    H149450   0.973   5.739  12.793 -1.8455 -1.0307  1.4875
 9345TIP3    H249451   1.048   5.706  12.920  0.5468  0.3390  0.4898
 9346TIP3   OH249452   1.341   2.718   4.617 -0.4062 -0.1216  0.2572
 9346TIP3    H149453   1.348   2.645   4.678 -0.5022  0.2630  0.7323
 9346TIP3    H249454   1.292   2.683   4.543  0.2366 -0.7646  0.1264
 9347TIP3   OH249455   1.191   0.097  14.529 -0.0314 -0.2314  0.2961
 9347TIP3    H149456   1.261   0.149  14.491 -0.1229 -0.7465 -0.5950
 9347TIP3    H249457   1.233   0.014  14.553 -0.3620 -0.6178 -0.4237
 9348TIP3   OH249458   1.284   1.579   0.536 -0.1084 -0.2740  0.1513
 9348TIP3    H149459   1.289   1.610   0.627 -0.7602 -0.5753  0.2955
 9348TIP3    H249460   1.214   1.631   0.497 -1.0142 -1.3223  0.3160
 9349TIP3   OH249461   4.369   0.739   1.226 -0.5212 -0.5568  0.1092
 9349TIP3    H149462   4.430   0.767   1.158 -1.1542  1.8134  0.4441
 9349TIP3    H249463   4.419   0.742   1.307 -0.4311 -1.0330  0.0763
 9350TIP3   OH249464   6.684   3.755   1.794 -0.4250  0.2832 -0.2756
 9350TIP3    H149465   6.754   3.762   1.859 -2.5485 -1.6083  2.4508
 9350TIP3    H249466   6.658   3.846   1.778  1.0445  0.8852  0.4743
 9351TIP3   OH249467   1.180   5.617  11.254 -0.2355  0.2308 -0.5034
 9351TIP3    H149468   1.146   5.565  11.327  0.3838 -0.5001 -0.7197
 9351TIP3    H249469   1.224   5.691  11.297  0.8549 -0.6328 -0.0703
 9352TIP3   OH249470   6.103   0.515  13.238 -0.4273 -0.9173 -0.5587
 9352TIP3    H149471   6.097   0.587  13.176 -2.1373 -0.6129 -0.0967
 9352TIP3    H249472   6.084   0.555  13.323 -0.9840 -1.8194 -0.2363
 9353TIP3   OH249473   1.851   4.463  10.450 -0.0127  0.2705  0.0381
 9353TIP3    H149474   1.799   4.383  10.442  3.1565 -1.9750 -0.5858
 9353TIP3    H249475   1.887   4.460  10.538  0.8242  0.4917 -0.2809
 9354TIP3   OH249476   1.648   4.696  12.666  0.0896 -0.0653 -0.6820
 9354TIP3    H149477   1.707   4.752  12.616  0.4038  0.6688  0.4574
 9354TIP3    H249478   1.571   4.688  12.611  1.7289 -2.2243 -2.8579
 9355TIP3   OH249479   1.365   3.656  11.166  0.0339  0.0349  0.3573
 9355TIP3    H149480   1.370   3.661  11.071  0.5194  2.9524  0.4520
 9355TIP3    H249481   1.271   3.649  11.185 -0.0447 -0.9459 -0.2938
 9356TIP3   OH249482   6.938   1.461  10.502 -0.0860  0.0355  0.0763
 9356TIP3    H149483   6.900   1.398  10.564  0.5764  1.7440  2.3344
 9356TIP3    H249484   6.895   1.441  10.419  0.6518 -3.8734  0.4429
 9357TIP3   OH249485   2.698   3.987  11.487 -0.4295  0.6490 -0.3112
 9357TIP3    H149486   2.613   3.960  11.522 -0.1555  1.5284  1.1122
 9357TIP3    H249487   2.750   3.906  11.485 -0.4442  0.5549  1.4286
 9358TIP3   OH249488   7.109   4.467  13.727 -0.1030 -0.3804  0.2289
 9358TIP3    H149489   7.041   4.519  13.770 -0.5217 -1.1822  0.5659
 9358TIP3    H249490   7.097   4.379  13.763 -0.5490 -1.1079 -1.6185
 9359TIP3   OH249491   5.712   6.906   4.729  0.5272  0.6286 -0.1406
 9359TIP3    H149492   5.795   6.927   4.774 -0.4622  1.2323  1.4968
 9359TIP3    H249493   5.710   6.966   4.655  1.1877  1.1994  0.2763
 9360TIP3   OH249494   4.811   0.223   9.799  0.5202  0.3606  0.0456
 9360TIP3    H149495   4.861   0.276   9.737 -0.7573 -0.1726 -1.5296
 9360TIP3    H249496   4.722   0.222   9.763 -0.1148 -0.5368  1.5452
 9361TIP3   OH249497   0.680   3.858  10.259  0.0566  0.9134  0.6497
 9361TIP3    H149498   0.701   3.927  10.322 -0.0077  0.1052  1.5834
 9361TIP3    H249499   0.762   3.811  10.247 -0.0161  0.8528  0.3918
 9362TIP3   OH249500   3.745   2.358  11.563 -0.0883 -0.0959 -0.6753
 9362TIP3    H149501   3.771   2.361  11.655  0.7033  1.5059 -0.9083
 9362TIP3    H249502   3.822   2.391  11.516 -1.1462  0.8941 -1.7567
 9363TIP3   OH249503   6.507   2.508   3.328  0.1136 -0.2466  0.1647
 9363TIP3    H149504   6.560   2.520   3.406 -0.4873 -0.9885  0.7011
 9363TIP3    H249505   6.521   2.417   3.302  0.4774  0.0480 -0.7348
 9364TIP3   OH249506   1.878   3.655  11.604 -0.9217 -0.2092 -0.2704
 9364TIP3    H149507   1.790   3.694  11.606 -0.5966  0.5141  0.3997
 9364TIP3    H249508   1.864   3.564  11.629 -1.4687 -0.0683 -0.0405
 9365TIP3   OH249509   6.317   0.838  13.485 -0.3526  0.3638 -0.0681
 9365TIP3    H149510   6.225   0.824  13.463 -0.5936 -0.8792  1.5163
 9365TIP3    H249511   6.347   0.752  13.514  1.3497  0.7361 -0.6454
 9366TIP3   OH249512   1.320   5.201  12.899  0.1778  0.5924  0.0913
 9366TIP3    H149513   1.328   5.108  12.918 -1.3720  0.7803  1.9488
 9366TIP3    H249514   1.226   5.217  12.895  0.3816  1.7659 -2.1691
 9367TIP3   OH249515   6.543   3.494   1.956 -0.0235 -0.0846 -0.2244
 9367TIP3    H149516   6.627   3.461   1.987  0.6370  1.6141 -0.1346
 9367TIP3    H249517   6.546   3.479   1.861  0.6598  0.5583 -0.3111
 9368TIP3   OH249518   6.342   6.723  14.842 -0.0177  0.3457  0.0060
 9368TIP3    H149519   6.377   6.684  14.762  1.1634 -0.1262  0.7273
 9368TIP3    H249520   6.312   6.649  14.894  3.2831  0.1449  1.8863
 9369TIP3   OH249521   1.011   1.429   0.669 -0.0462  0.2114 -0.7204
 9369TIP3    H149522   1.004   1.519   0.699 -1.6697  0.0401 -0.4974
 9369TIP3    H249523   1.033   1.436   0.577  1.3769  0.7948 -0.3597
 9370TIP3   OH249524   6.383   6.222  10.214 -0.1746  0.3774 -0.4432
 9370TIP3    H149525   6.420   6.240  10.300 -0.7372 -1.6844  0.2778
 9370TIP3    H249526   6.446   6.260  10.153  1.2119  0.2270  0.8249
 9371TIP3   OH249527   3.768   0.483   3.720  0.1424 -0.8295 -0.3459
 9371TIP3    H149528   3.834   0.440   3.665  0.1426 -1.1151 -0.1254
 9371TIP3    H249529   3.792   0.576   3.717  0.9199 -0.9963  0.2072
 9372TIP3   OH249530   5.607   3.866  13.891 -0.2709 -0.1484 -0.0425
 9372TIP3    H149531   5.546   3.924  13.936 -0.4959  1.1996 -1.9901
 9372TIP3    H249532   5.680   3.922  13.866  0.9651 -1.3647  0.6384
 9373TIP3   OH249533   6.798   4.179  12.672  0.6612  0.0082  0.0992
 9373TIP3    H149534   6.782   4.119  12.745 -0.4784 -1.5945 -1.3892
 9373TIP3    H249535   6.754   4.261  12.698 -1.9723 -1.3219  0.1973
 9374TIP3   OH249536   2.779   1.353  10.838  0.5155 -0.0780 -0.5105
 9374TIP3    H149537   2.797   1.444  10.815  0.3514  0.3433  0.9325
 9374TIP3    H249538   2.862   1.308  10.822  1.3063  0.7832  0.9073
 9375TIP3   OH249539   5.470   1.106   2.170 -0.7336 -0.5235 -0.1276
 9375TIP3    H149540   5.540   1.157   2.212 -0.7646 -0.8578  0.3307
 9375TIP3    H249541   5.486   1.016   2.197 -1.0975 -0.6632 -0.3693
 9376TIP3   OH249542   0.444   6.470  12.074  0.6073  0.3508 -0.2683
 9376TIP3    H149543   0.399   6.390  12.104  2.3548 -0.9981 -1.0454
 9376TIP3    H249544   0.390   6.542  12.108 -0.6851 -1.1371  1.0225
 9377TIP3   OH249545   5.947   2.415  15.113 -0.1225  0.3083 -0.3361
 9377TIP3    H149546   5.875   2.376  15.064 -1.4632  0.9810  1.0248
 9377TIP3    H249547   5.905   2.474  15.176  1.6739  1.7286 -0.3590
 9378TIP3   OH249548   3.197   5.476   0.938  0.1347  0.8277 -0.4789
 9378TIP3    H149549   3.190   5.492   1.033  0.6331  1.4456 -0.5442
 9378TIP3    H249550   3.113   5.437   0.915 -0.1723  1.1060  0.1349
 9379TIP3   OH249551   3.332   2.424   5.149  0.2673 -0.3884 -0.2492
 9379TIP3    H149552   3.416   2.435   5.105  0.6772  1.7716  0.9327
 9379TIP3    H249553   3.275   2.386   5.082  0.5901  3.5154 -3.0851
 9380TIP3   OH249554   3.065   3.395  10.815 -0.0740 -0.3481  0.6968
 9380TIP3    H149555   3.133   3.460  10.834 -0.2001 -0.2825  0.9415
 9380TIP3    H249556   2.984   3.435  10.848  0.0245 -1.1164  1.9480
 9381TIP3   OH249557   4.396   0.270  10.275 -0.0763  0.0396  0.4310
 9381TIP3    H149558   4.395   0.263  10.180 -1.0133  0.6919  0.3773
 9381TIP3    H249559   4.304   0.285  10.299  0.4421  2.5591  1.1742
 9382TIP3   OH249560   3.115   3.858  11.121  0.5797 -0.0659 -0.1929
 9382TIP3    H149561   3.187   3.917  11.145  1.1773 -1.0790  0.6264
 9382TIP3    H249562   3.070   3.903  11.050  0.1984  1.9900  1.2650
 9383TIP3   OH249563   4.506   6.461   2.785 -0.5352 -0.3539  0.1870
 9383TIP3    H149564   4.427   6.408   2.786  0.4420 -2.0066 -2.0069
 9383TIP3    H249565   4.484   6.538   2.733 -0.4062 -1.4567 -1.5895
 9384TIP3   OH249566   1.845   4.059  11.701 -0.0139 -0.1399 -0.1212
 9384TIP3    H149567   1.933   4.051  11.737 -0.2002 -0.7535  0.2174
 9384TIP3    H249568   1.823   4.151  11.711 -0.0206 -0.2792  1.2563
 9385TIP3   OH249569   4.768   1.835  12.760  0.4698  0.0465 -0.6390
 9385TIP3    H149570   4.810   1.766  12.708 -0.9252 -0.8940 -0.5744
 9385TIP3    H249571   4.804   1.824  12.848 -1.6659 -2.4376  0.0546
 9386TIP3   OH249572   6.694   3.028   0.059  0.2214 -0.4935  0.1828
 9386TIP3    H149573   6.633   2.984   0.000 -1.1104 -0.3705  1.4234
 9386TIP3    H249574   6.743   3.088   0.003  0.5309 -1.9388 -1.1620
 9387TIP3   OH249575   5.470   6.124   1.972  0.0889  0.2267 -0.0477
 9387TIP3    H149576   5.551   6.095   1.930  0.4653  1.1138  0.0511
 9387TIP3    H249577   5.421   6.167   1.902  0.5624  1.3925  0.3068
 9388TIP3   OH249578   4.122   6.138   4.659 -0.2519  0.2738 -0.0872
 9388TIP3    H149579   4.029   6.120   4.669 -0.4078  1.0546 -0.0150
 9388TIP3    H249580   4.150   6.082   4.586 -0.5384 -0.7092  0.5430
 9389TIP3   OH249581   3.063   5.081   0.752  0.7380 -0.1194  0.5066
 9389TIP3    H149582   3.006   5.088   0.676 -0.6898  0.6106  1.5790
 9389TIP3    H249583   3.079   4.988   0.762 -1.1702 -0.4680  0.7630
 9390TIP3   OH249584   1.740   4.979  14.587  0.2250 -0.8514  0.0096
 9390TIP3    H149585   1.762   5.041  14.656 -1.5319 -0.1829  0.0350
 9390TIP3    H249586   1.791   4.901  14.607  0.7604 -0.2021  1.2895
 9391TIP3   OH249587   2.939   0.595   3.498 -1.0476  0.2289 -0.3434
 9391TIP3    H149588   3.004   0.629   3.559 -1.3659 -1.3470  0.9275
 9391TIP3    H249589   2.858   0.641   3.521 -0.9529  0.3443 -0.2418
 9392TIP3   OH249590   4.275   3.410   1.438  0.3956  0.0497  0.3331
 9392TIP3    H149591   4.183   3.389   1.455 -0.4814  3.0324 -0.1935
 9392TIP3    H249592   4.289   3.495   1.481  3.6850 -1.3880  2.5608
 9393TIP3   OH249593   4.607   4.418  11.365  0.5028 -0.5400  0.2289
 9393TIP3    H149594   4.629   4.444  11.454 -1.0023 -1.7692  1.0181
 9393TIP3    H249595   4.683   4.370  11.333  0.6695 -0.9393  1.2198
 9394TIP3   OH249596   3.841   0.781   9.897 -0.2527 -0.1928  0.5976
 9394TIP3    H149597   3.786   0.859   9.889  1.0978  0.7065 -0.3057
 9394TIP3    H249598   3.786   0.709   9.868 -1.6313  0.3610  1.7512
 9395TIP3   OH249599   1.490   2.652   0.389  0.2934 -0.0873  0.1242
 9395TIP3    H149600   1.511   2.634   0.481  0.3650 -0.5695  0.0206
 9395TIP3    H249601   1.477   2.565   0.351 -0.2931  0.1356 -0.1932
 9396TIP3   OH249602   0.315   2.054   2.510 -0.0269 -0.0128  0.0341
 9396TIP3    H149603   0.276   2.115   2.572 -1.0410 -0.3213 -0.2897
 9396TIP3    H249604   0.409   2.058   2.529 -0.1606  1.0279  0.5632
 9397TIP3   OH249605   4.870   2.415  10.729  0.5152  0.1500 -0.3363
 9397TIP3    H149606   4.935   2.471  10.773  0.5166 -0.3918  0.3576
 9397TIP3    H249607   4.798   2.474  10.709  0.0468  0.2010  1.3706
 9398TIP3   OH249608   4.613   0.470  14.614  0.4566 -0.3828  0.2882
 9398TIP3    H149609   4.596   0.551  14.662 -1.9485 -0.6320  0.0056
 9398TIP3    H249610   4.533   0.419  14.626  1.2526 -1.9895 -0.9653
 9399TIP3   OH249611   2.353   3.853   4.027  0.4030 -0.5000  0.0806
 9399TIP3    H149612   2.346   3.793   3.953 -0.0714  1.1173 -1.2696
 9399TIP3    H249613   2.271   3.903   4.024  2.0869  2.4228 -0.9320
 9400TIP3   OH249614   0.764   0.280  12.068  0.0442  0.4180  0.0134
 9400TIP3    H149615   0.720   0.258  11.986 -0.4153  0.9125  0.1223
 9400TIP3    H249616   0.797   0.369  12.055 -1.2801  1.0599  0.8581
 9401TIP3   OH249617   5.421   4.334   3.483 -0.0479 -0.0421  0.4700
 9401TIP3    H149618   5.511   4.357   3.503  0.2549  1.3420 -2.1630
 9401TIP3    H249619   5.370   4.368   3.557  1.3901  0.7534  1.1173
 9402TIP3   OH249620   2.428   1.966  11.189  0.6917  0.0241  0.1383
 9402TIP3    H149621   2.368   1.901  11.152 -1.1149  0.2781  2.4170
 9402TIP3    H249622   2.408   2.047  11.143 -0.7795  0.1091  0.8941
 9403TIP3   OH249623   5.578   5.937   0.082 -0.0423 -0.6100 -0.1816
 9403TIP3    H149624   5.616   6.025   0.087  1.2429 -1.1921  1.3202
 9403TIP3    H249625   5.651   5.879   0.103 -1.5406 -1.8655  1.8631
 9404TIP3   OH249626   3.223   0.585  13.988  0.1605 -0.3230  0.2251
 9404TIP3    H149627   3.132   0.577  13.961  0.4378 -0.5884 -0.6850
 9404TIP3    H249628   3.219   0.613  14.080 -0.8444 -2.6862  0.9661
 9405TIP3   OH249629   6.165   2.158  14.395 -0.2047  0.0609 -0.7321
 9405TIP3    H149630   6.081   2.145  14.439 -0.0843  0.0296 -0.5126
 9405TIP3    H249631   6.230   2.146  14.463  0.0694 -1.5199 -1.2201
 9406TIP3   OH249632   0.194   6.082  13.928  0.0398 -0.2549  0.2762
 9406TIP3    H149633   0.257   6.143  13.888  1.6257 -1.8159  0.2744
 9406TIP3    H249634   0.154   6.132  13.999  2.5233  0.3273  1.3647
 9407TIP3   OH249635   0.546   5.726  11.726  0.5727 -0.1860 -0.7637
 9407TIP3    H149636   0.464   5.687  11.696  0.4664  0.0857 -0.8249
 9407TIP3    H249637   0.614   5.671  11.686  0.4272 -1.5100  0.7235
 9408TIP3   OH249638   3.838   5.330  13.718 -0.6660 -0.0499  0.3544
 9408TIP3    H149639   3.911   5.268  13.719  0.6835  1.5065  1.1584
 9408TIP3    H249640   3.778   5.294  13.653  0.4230 -1.7923  0.2437
 9409TIP3   OH249641   6.846   2.408  10.711 -0.2117  0.0460  0.3337
 9409TIP3    H149642   6.803   2.327  10.737 -0.0897 -0.2874 -0.4775
 9409TIP3    H249643   6.905   2.382  10.640 -1.0986  1.0490 -0.8086
 9410TIP3   OH249644   0.032   3.272   3.407 -0.2474  0.0738  0.2896
 9410TIP3    H149645  -0.026   3.277   3.330 -1.4072 -0.7920  1.0731
 9410TIP3    H249646  -0.015   3.215   3.468  0.2027  1.4730  2.0251
 9411TIP3   OH249647   5.081   4.912   1.245  0.6705 -0.2604 -0.0032
 9411TIP3    H149648   5.123   4.990   1.281  3.1030 -2.6805  2.9782
 9411TIP3    H249649   5.141   4.882   1.176  0.3680 -0.1678 -0.3096
 9412TIP3   OH249650   3.054   4.813   4.407 -0.5461 -0.0546 -0.4176
 9412TIP3    H149651   3.143   4.847   4.411 -1.0007  1.1602 -0.1570
 9412TIP3    H249652   3.000   4.881   4.447 -1.5273 -1.0285 -0.0130
 9413TIP3   OH249653   5.515   4.449  14.726 -0.6185  0.3459  0.2801
 9413TIP3    H149654   5.576   4.515  14.759  0.9657 -0.6522 -0.4956
 9413TIP3    H249655   5.482   4.405  14.804 -0.2811  0.8728  0.7250
 9414TIP3   OH249656   1.842   2.247   3.150 -0.1961  0.0046 -0.2573
 9414TIP3    H149657   1.797   2.326   3.181  2.3251  0.9857  1.1432
 9414TIP3    H249658   1.921   2.279   3.107  2.0479 -1.6857  2.2471
 9415TIP3   OH249659   1.464   3.779   9.762 -0.2648  0.1021 -0.4069
 9415TIP3    H149660   1.536   3.810   9.817 -0.6799 -1.3024  0.9934
 9415TIP3    H249661   1.500   3.705   9.714 -0.6601 -0.3838  0.0346
 9416TIP3   OH249662   1.718   0.697  12.702 -0.3578 -0.2528 -0.3847
 9416TIP3    H149663   1.749   0.786  12.686 -0.6840  0.1079  0.8967
 9416TIP3    H249664   1.797   0.646  12.720 -0.1486 -0.2974 -1.3519
 9417TIP3   OH249665   2.810   6.229   2.562 -0.4615  0.2290 -0.1393
 9417TIP3    H149666   2.864   6.296   2.521 -3.0762  2.0931 -0.7778
 9417TIP3    H249667   2.773   6.272   2.639 -1.3022 -0.8697  0.0877
 9418TIP3   OH249668   1.719   6.362   3.906  0.5239 -0.2119  0.6331
 9418TIP3    H149669   1.670   6.393   3.983  1.1194  0.0785  0.9064
 9418TIP3    H249670   1.711   6.267   3.909 -1.1716 -0.1395 -0.1050
 9419TIP3   OH249671   6.100   4.733   1.331  0.2880 -0.0159 -0.0840
 9419TIP3    H149672   6.026   4.780   1.292  0.4233  0.0495 -0.2630
 9419TIP3    H249673   6.174   4.752   1.273  0.1601 -1.1335 -0.6424
 9420TIP3   OH249674   1.573   3.094  14.322 -0.3930 -0.5859 -0.5712
 9420TIP3    H149675   1.578   3.000  14.307  0.6517 -0.5259 -0.6762
 9420TIP3    H249676   1.640   3.112  14.388 -1.3946 -0.0829  0.3490
 9421TIP3   OH249677   2.997   3.810   5.651  0.0208 -0.2762  0.0937
 9421TIP3    H149678   2.910   3.811   5.691 -0.9491 -0.0190 -1.9176
 9421TIP3    H249679   3.006   3.897   5.611  1.4717 -0.0817  0.7678
 9422TIP3   OH249680   6.285   1.590   3.523 -0.6835 -0.4528  0.3306
 9422TIP3    H149681   6.236   1.547   3.593  0.3411 -0.7020  0.9054
 9422TIP3    H249682   6.347   1.647   3.568 -1.1022  0.6213 -0.4061
 9423TIP3   OH249683   5.966   1.917   4.909  0.3518 -0.4872 -0.3280
 9423TIP3    H149684   5.937   2.009   4.901  0.9421 -0.3268 -0.6507
 9423TIP3    H249685   6.030   1.906   4.839  0.0923 -1.2309 -0.4583
 9424TIP3   OH249686   6.877   3.876   1.165  0.3249 -0.7839  0.3210
 9424TIP3    H149687   6.935   3.874   1.241 -0.0827  0.5548  0.6907
 9424TIP3    H249688   6.808   3.814   1.187  0.9509 -1.4700  0.4081
 9425TIP3   OH249689   6.674   2.233  13.184  0.0478 -0.5508  0.0011
 9425TIP3    H149690   6.739   2.166  13.162 -1.1543 -1.4650 -0.9254
 9425TIP3    H249691   6.628   2.198  13.260 -0.7437 -0.9115 -0.6324
 9426TIP3   OH249692   1.585   3.847   0.166  0.3579  0.6277  0.1040
 9426TIP3    H149693   1.617   3.763   0.133 -0.2171 -0.1369  1.4258
 9426TIP3    H249694   1.596   3.907   0.092 -0.2866 -0.8619 -1.2781
 9427TIP3   OH249695   7.126   2.165  10.591  0.0792 -0.4428 -0.3640
 9427TIP3    H149696   7.064   2.234  10.565  0.5862  0.1793  0.0369
 9427TIP3    H249697   7.157   2.129  10.508  0.1773  0.1573 -0.5961
 9428TIP3   OH249698   5.643   3.593   4.241 -0.3576  0.5155  0.3552
 9428TIP3    H149699   5.606   3.533   4.176 -1.0855  1.0450  0.2782
 9428TIP3    H249700   5.668   3.536   4.314 -0.4302  0.0359  0.0147
 9429TIP3   OH249701   1.700   6.719  10.346 -0.2001 -0.3247 -0.2703
 9429TIP3    H149702   1.718   6.807  10.314  0.9868 -0.9818 -1.5234
 9429TIP3    H249703   1.667   6.672  10.269 -1.5922 -0.7758  0.5703
 9430TIP3   OH249704   6.362   3.427   4.351  0.0763 -0.0410 -0.0568
 9430TIP3    H149705   6.450   3.391   4.341  0.7755  1.1373  1.4740
 9430TIP3    H249706   6.375   3.513   4.391 -1.8148 -0.3603  1.4196
 9431TIP3   OH249707   4.368   5.494   0.162 -0.3732 -0.0971 -0.0566
 9431TIP3    H149708   4.344   5.439   0.088  0.8769 -2.1434  0.9742
 9431TIP3    H249709   4.430   5.442   0.213 -1.4153  1.0622  2.6350
 9432TIP3   OH249710   5.026   2.825  13.161  0.4903  0.2574 -0.4492
 9432TIP3    H149711   5.015   2.817  13.066 -1.1903 -1.7195 -0.1691
 9432TIP3    H249712   5.121   2.822  13.174  0.7521  0.5285 -2.0635
 9433TIP3   OH249713   1.738   6.486  11.004  0.6223 -0.0448  0.5640
 9433TIP3    H149714   1.769   6.449  10.921  1.7324  0.6481  0.6481
 9433TIP3    H249715   1.724   6.578  10.985  3.0770  0.6168  1.6798
 9434TIP3   OH249716   2.179   4.562  15.472  0.1000 -0.4253 -0.4141
 9434TIP3    H149717   2.097   4.523  15.502  0.9759 -2.0704 -0.0586
 9434TIP3    H249718   2.200   4.627  15.538  0.0225 -1.3148  0.5054
 9435TIP3   OH249719   2.494   1.913  13.082  0.1084 -0.4764 -0.5123
 9435TIP3    H149720   2.472   1.883  13.171  0.3640 -1.8815 -0.9091
 9435TIP3    H249721   2.453   1.999  13.076  0.3654 -0.1997  1.0904
 9436TIP3   OH249722   2.565   1.197   1.840  0.3386 -0.2714  0.6512
 9436TIP3    H149723   2.494   1.156   1.791 -0.0311  2.6224 -1.5442
 9436TIP3    H249724   2.632   1.215   1.774  0.9489  1.5197  1.6867
 9437TIP3   OH249725   2.969   4.962   3.139  0.1981 -0.3073  0.0442
 9437TIP3    H149726   3.002   4.882   3.097  1.3705  1.0504 -1.7896
 9437TIP3    H249727   3.026   4.975   3.214  0.0139 -1.1700  0.3407
 9438TIP3   OH249728   5.577   6.548  11.523 -0.2846  0.2773 -0.1737
 9438TIP3    H149729   5.521   6.497  11.583 -1.6850 -0.8161 -2.2598
 9438TIP3    H249730   5.652   6.491  11.507 -0.6614 -0.1143 -0.6042
 9439TIP3   OH249731   0.916   6.435   2.138  0.0172  0.3115 -0.2017
 9439TIP3    H149732   0.841   6.465   2.190  0.6808  1.6284  0.0529
 9439TIP3    H249733   0.984   6.415   2.202  0.3564  0.5261 -0.4887
 9440TIP3   OH249734   1.136   0.284  14.754 -0.4658  0.4507 -0.3580
 9440TIP3    H149735   1.182   0.215  14.708 -0.9501  1.1491 -1.9624
 9440TIP3    H249736   1.060   0.241  14.793  0.2241 -0.2426  0.2484
 9441TIP3   OH249737   1.118   3.563   3.596 -0.3850  0.3067 -0.0929
 9441TIP3    H149738   1.158   3.567   3.509 -0.7817  0.7402 -0.2537
 9441TIP3    H249739   1.168   3.495   3.641  0.2934  0.5769 -0.4178
 9442TIP3   OH249740   5.250   1.625  14.176  0.1867  0.4094  0.3196
 9442TIP3    H149741   5.182   1.656  14.116 -0.4881  0.3981  1.0504
 9442TIP3    H249742   5.320   1.690  14.167 -0.4504  1.1475  0.4744
 9443TIP3   OH249743   1.219   6.688   0.424 -0.2412  0.0006  0.0045
 9443TIP3    H149744   1.142   6.636   0.449  0.8648 -1.7522 -0.0726
 9443TIP3    H249745   1.247   6.651   0.340  0.6466  0.6781 -0.0134
 9444TIP3   OH249746   0.445   3.016  12.388  0.1112 -0.1285  0.0004
 9444TIP3    H149747   0.416   3.013  12.297  1.3337  0.2747 -0.4261
 9444TIP3    H249748   0.514   3.083  12.389  1.1476 -1.1581  0.8994
 9445TIP3   OH249749   4.021   1.253   2.051 -0.1251  0.3565  0.2058
 9445TIP3    H149750   4.111   1.282   2.039  1.1710 -1.0489  4.6576
 9445TIP3    H249751   3.977   1.328   2.090 -0.7772  0.7557 -1.1990
 9446TIP3   OH249752   0.295   0.843   0.986  0.8918  0.7522  0.3939
 9446TIP3    H149753   0.386   0.867   0.971  0.6910  0.7693 -0.8638
 9446TIP3    H249754   0.251   0.926   1.004  0.8302  0.9398 -0.5960
 9447TIP3   OH249755   3.483   5.110  12.450  0.7127  0.2887 -0.2869
 9447TIP3    H149756   3.577   5.107  12.433  0.4131 -0.4673 -2.0121
 9447TIP3    H249757   3.448   5.034  12.404 -0.6529  0.0149  1.1157
 9448TIP3   OH249758   6.853   3.227  10.299  0.0587  0.3787  0.1686
 9448TIP3    H149759   6.787   3.264  10.358 -0.3501  1.9056 -1.1940
 9448TIP3    H249760   6.937   3.250  10.339 -0.2172  0.6877  0.5801
 9449TIP3   OH249761   1.366   2.460  10.853 -0.2038  0.2333 -0.8854
 9449TIP3    H149762   1.460   2.440  10.850 -0.3957 -1.6463  1.6410
 9449TIP3    H249763   1.353   2.526  10.786  3.4145  2.5585  0.3937
 9450TIP3   OH249764   3.849   3.438   1.747  0.3026  0.2235  0.0169
 9450TIP3    H149765   3.802   3.458   1.666 -0.7774  2.4067  1.0855
 9450TIP3    H249766   3.781   3.407   1.807  1.4204 -3.7997 -0.4877
 9451TIP3   OH249767   1.817   4.517   3.799 -0.1960  0.3434  0.1895
 9451TIP3    H149768   1.797   4.435   3.753 -2.5536  0.2907  1.1799
 9451TIP3    H249769   1.896   4.497   3.849  0.9375 -0.3903 -1.7623
 9452TIP3   OH249770   5.374   2.852   0.953  0.2678  0.1125 -0.3984
 9452TIP3    H149771   5.365   2.923   0.891 -0.4052 -0.8769 -1.4885
 9452TIP3    H249772   5.286   2.813   0.958  0.5231 -0.4047  0.4679
 9453TIP3   OH249773   4.671   5.456  13.754 -0.1491 -0.7189  0.2991
 9453TIP3    H149774   4.720   5.531  13.787 -2.3181  1.0253 -0.2269
 9453TIP3    H249775   4.640   5.483  13.668 -1.6926 -1.8703  0.4472
 9454TIP3   OH249776   5.443   6.787  12.234  0.3507 -0.4126  0.2693
 9454TIP3    H149777   5.389   6.708  12.223 -1.3593  0.7951 -0.4631
 9454TIP3    H249778   5.493   6.794  12.153  0.0439 -0.4245  0.0770
 9455TIP3   OH249779   6.375   4.491  11.947 -0.1600  0.0876 -0.1432
 9455TIP3    H149780   6.287   4.455  11.944 -0.6903  1.3498 -2.4928
 9455TIP3    H249781   6.361   4.586  11.951  1.0279  0.3451 -1.3172
 9456TIP3   OH249782   1.070   7.039   3.461 -0.2649 -0.1205 -0.0285
 9456TIP3    H149783   1.078   6.975   3.532  0.2013  0.5043  0.4914
 9456TIP3    H249784   1.067   6.986   3.381 -0.1920 -0.8026  0.4132
 9457TIP3   OH249785   6.966   6.048  13.386 -0.6476 -0.4247 -0.3890
 9457TIP3    H149786   6.899   6.046  13.455 -0.2753  1.9052  0.1126
 9457TIP3    H249787   7.048   6.059  13.434 -0.4678  2.1288 -1.1657
 9458TIP3   OH249788   2.208   6.724   2.455  0.1521  0.1918 -0.0991
 9458TIP3    H149789   2.146   6.667   2.408 -1.1150  0.6889  0.8894
 9458TIP3    H249790   2.178   6.720   2.546  1.7993  0.2102  0.4682
 9459TIP3   OH249791   2.586   5.843  12.108 -0.1687 -0.4497 -0.3156
 9459TIP3    H149792   2.660   5.882  12.154  0.0462  0.2280 -1.2169
 9459TIP3    H249793   2.540   5.918  12.069  1.1634 -1.1381 -3.4554
 9460TIP3   OH249794   5.369   5.378   0.451 -0.3420 -0.0497  0.0382
 9460TIP3    H149795   5.376   5.418   0.364 -1.4675 -2.3342 -1.1718
 9460TIP3    H249796   5.447   5.324   0.459 -0.5194 -0.2803  0.2153
 9461TIP3   OH249797   1.664   3.056   1.249 -0.1201  0.0539 -0.1880
 9461TIP3    H149798   1.729   3.026   1.186 -0.8492 -1.4386 -0.2663
 9461TIP3    H249799   1.659   3.151   1.235  1.2639  0.0527 -0.8788
 9462TIP3   OH249800   4.446   3.778  10.288  0.2334  0.3513  0.0239
 9462TIP3    H149801   4.466   3.856  10.340  0.0648  0.2515  0.2398
 9462TIP3    H249802   4.454   3.807  10.197  0.2337  0.6044  0.1044
 9463TIP3   OH249803   2.736   4.603   0.829 -0.1916 -0.1745 -0.6709
 9463TIP3    H149804   2.746   4.509   0.841  0.8582  0.1326  1.2559
 9463TIP3    H249805   2.737   4.639   0.918 -0.5096  1.6683 -1.3646
 9464TIP3   OH249806   4.128   6.747   3.494  0.0861  0.0617  0.6832
 9464TIP3    H149807   4.140   6.653   3.508  0.1008 -0.0304  0.0709
 9464TIP3    H249808   4.123   6.784   3.582 -4.0415 -1.0161  1.1077
 9465TIP3   OH249809   1.225   5.925  12.409 -0.7392  0.5659 -0.0565
 9465TIP3    H149810   1.256   5.839  12.381 -1.3145 -0.4708  2.2632
 9465TIP3    H249811   1.178   5.959  12.333  1.3366 -0.1693 -1.7692
 9466TIP3   OH249812   2.769   2.247   0.624  0.0750 -0.5368 -0.5257
 9466TIP3    H149813   2.767   2.338   0.654 -0.2575 -1.4051  2.3374
 9466TIP3    H249814   2.678   2.218   0.628  0.5009 -1.7504  1.2870
 9467TIP3   OH249815   4.858   6.272  13.598  0.3090 -0.0945  0.2522
 9467TIP3    H149816   4.788   6.334  13.578 -0.2377 -0.4542  1.0193
 9467TIP3    H249817   4.832   6.191  13.556  0.3844 -0.1628  0.3355
 9468TIP3   OH249818   0.495   4.256  11.453 -0.5830 -0.4223 -0.3284
 9468TIP3    H149819   0.460   4.177  11.412  0.6190 -0.9336 -0.4331
 9468TIP3    H249820   0.556   4.291  11.388 -0.1550 -0.1242  0.2249
 9469TIP3   OH249821   5.288   0.112   1.890  0.8148  0.1654 -0.2907
 9469TIP3    H149822   5.241   0.103   1.807 -1.3163  1.4368  0.6918
 9469TIP3    H249823   5.288   0.206   1.909  0.5510 -0.1506  1.5121
 9470TIP3   OH249824   5.074   5.179  14.928  0.3908  0.3620 -0.1700
 9470TIP3    H149825   5.147   5.134  14.971  0.4542  0.4308 -0.2054
 9470TIP3    H249826   5.074   5.144  14.839 -0.2196 -0.3479  0.1060
 9471TIP3   OH249827   2.560   5.359  15.209 -0.3022  0.9250  0.0557
 9471TIP3    H149828   2.544   5.266  15.226  0.4261  0.8474  0.3515
 9471TIP3    H249829   2.578   5.396  15.296 -1.4783  1.5385  0.0705
 9472TIP3   OH249830   3.154   4.593  10.832  0.0738 -0.2946 -0.0399
 9472TIP3    H149831   3.081   4.645  10.865  1.5506  0.0501  2.9596
 9472TIP3    H249832   3.145   4.508  10.875  1.8030 -0.0033  0.9645
 9473TIP3   OH249833   0.631   4.355   5.280  0.6798  0.0590 -0.6493
 9473TIP3    H149834   0.655   4.448   5.274 -0.1116  0.3935  0.8391
 9473TIP3    H249835   0.591   4.347   5.367 -0.3346 -1.4277 -1.2309
 9474TIP3   OH249836   7.077   1.327   0.572  0.9016 -0.2418 -1.2655
 9474TIP3    H149837   7.008   1.274   0.612  2.7492 -1.4389  0.5914
 9474TIP3    H249838   7.038   1.363   0.493 -1.7186 -1.0899 -0.4536
 9475TIP3   OH249839   2.916   4.114  12.722  0.1212 -0.0365 -0.4620
 9475TIP3    H149840   2.940   4.131  12.631 -2.5066  1.8145 -0.9145
 9475TIP3    H249841   2.846   4.049  12.717  1.0561 -1.1589  0.4059
 9476TIP3   OH249842   5.297   5.762  11.090  0.1872 -0.0737  0.4053
 9476TIP3    H149843   5.204   5.740  11.083 -0.1992  1.5259  0.2223
 9476TIP3    H249844   5.319   5.744  11.182 -0.8805  1.5882  1.0282
 9477TIP3   OH249845   7.149   4.720   1.265 -0.1624 -0.1605  0.1268
 9477TIP3    H149846   7.102   4.744   1.345  0.5053  0.8608  0.2285
 9477TIP3    H249847   7.109   4.637   1.239 -1.3901  0.2109  0.7113
 9478TIP3   OH249848   4.113   6.725   3.801  0.2450 -0.0803 -0.5918
 9478TIP3    H149849   4.165   6.656   3.757 -0.2553 -1.3898  0.7899
 9478TIP3    H249850   4.177   6.775   3.851  0.1858 -2.8734  2.6908
 9479TIP3   OH249851   0.015   2.852   4.397 -0.5537  0.0014 -0.4445
 9479TIP3    H149852  -0.073   2.816   4.402 -0.3387 -0.6764 -1.3195
 9479TIP3    H249853   0.020   2.894   4.311 -0.1451  0.3489 -0.2553
 9480TIP3   OH249854   5.499   0.814  11.234  0.2625 -0.5170  0.3831
 9480TIP3    H149855   5.495   0.724  11.202 -1.3349 -0.7055  1.0404
 9480TIP3    H249856   5.495   0.806  11.329  1.6396  0.2018  0.5344
 9481TIP3   OH249857   6.524   1.172  15.386  0.0792  0.1338 -0.0604
 9481TIP3    H149858   6.484   1.142  15.304 -1.8249 -0.1450  0.9098
 9481TIP3    H249859   6.614   1.194  15.362 -0.0076 -1.2773 -1.9216
 9482TIP3   OH249860   0.395   1.868   0.873  0.0630  0.2528 -0.3483
 9482TIP3    H149861   0.355   1.784   0.896  0.0218  0.3462 -0.0695
 9482TIP3    H249862   0.329   1.933   0.898  0.0937  0.3672 -0.5653
 9483TIP3   OH249863   3.059   4.150  10.729 -0.1960 -0.2923 -0.4345
 9483TIP3    H149864   3.018   4.158  10.643  0.9108 -1.0663 -1.0720
 9483TIP3    H249865   3.152   4.139  10.710 -0.0585 -1.6374  0.7914
 9484TIP3   OH249866   2.949   2.824  14.171  0.3111 -0.1900  0.2138
 9484TIP3    H149867   3.002   2.751  14.201 -0.3227 -0.3160  1.0540
 9484TIP3    H249868   2.869   2.819  14.222 -0.4605  0.0908 -0.9157
 9485TIP3   OH249869   0.697   3.423  12.808  0.1646 -0.1387 -0.7156
 9485TIP3    H149870   0.676   3.418  12.901 -1.5585 -1.1399 -1.1120
 9485TIP3    H249871   0.792   3.425  12.805  0.2451  0.5711  1.0848
 9486TIP3   OH249872   1.958   1.136  13.366 -0.6418 -0.0216 -0.0704
 9486TIP3    H149873   1.938   1.180  13.448 -0.0149  0.0103  0.0691
 9486TIP3    H249874   2.048   1.160  13.346  0.1922 -2.2597  0.6957
 9487TIP3   OH249875   3.566   4.697   3.045 -0.2151 -0.3369  0.0967
 9487TIP3    H149876   3.637   4.758   3.068  0.1466  0.8088 -3.4406
 9487TIP3    H249877   3.486   4.748   3.053 -0.2520 -0.4319  0.3396
 9488TIP3   OH249878   5.908   3.826  14.342 -0.3813 -0.1563 -0.0787
 9488TIP3    H149879   5.985   3.784  14.379 -0.6389  1.3961  2.4667
 9488TIP3    H249880   5.943   3.885  14.274  0.5788 -0.1581  0.4008
 9489TIP3   OH249881   1.923   5.628   9.860  0.6494  0.1685  0.3024
 9489TIP3    H149882   1.982   5.693   9.821 -1.6917  2.9390  0.9960
 9489TIP3    H249883   1.844   5.633   9.808  0.2577 -1.9359  0.6333
 9490TIP3   OH249884   4.460   6.437  12.521 -0.2047 -0.4251  0.1222
 9490TIP3    H149885   4.530   6.373  12.517 -1.0780 -1.3558 -0.6875
 9490TIP3    H249886   4.504   6.522  12.512  0.7315 -1.0459 -1.6555
 9491TIP3   OH249887   1.589   0.471  12.050  0.3706 -0.4852 -0.2878
 9491TIP3    H149888   1.659   0.426  12.003 -0.3317 -0.0983 -1.7560
 9491TIP3    H249889   1.512   0.415  12.038  0.0518 -0.1041 -0.0478
 9492TIP3   OH249890   7.144   1.153  11.711  0.0930 -0.3458  0.3971
 9492TIP3    H149891   7.170   1.062  11.725  2.8640  0.1560 -0.8008
 9492TIP3    H249892   7.219   1.204  11.743 -0.5286  1.4203 -0.8176
 9493TIP3   OH249893   0.178   5.882   2.266  0.2469 -0.1695 -0.5082
 9493TIP3    H149894   0.247   5.931   2.221 -1.5533 -0.1273 -3.4903
 9493TIP3    H249895   0.110   5.947   2.285 -0.6561 -0.8746 -1.2560
 9494TIP3   OH249896   5.685   2.026  10.808  0.4677  0.8185 -0.2684
 9494TIP3    H149897   5.773   2.042  10.776  1.1343 -0.2149  0.9530
 9494TIP3    H249898   5.688   2.051  10.901 -0.0101 -0.8553  0.2446
 9495TIP3   OH249899   3.114   1.207   3.203 -0.2559  0.0432 -0.6789
 9495TIP3    H149900   3.188   1.188   3.145  0.4340  0.2501  0.1160
 9495TIP3    H249901   3.037   1.184   3.151  0.3661 -0.3236 -1.4682
 9496TIP3   OH249902   4.604   2.293  14.971  0.1763 -0.2264 -0.1961
 9496TIP3    H149903   4.699   2.300  14.966  0.2227 -0.4443  0.2722
 9496TIP3    H249904   4.575   2.286  14.880  0.5857  0.1081 -0.3519
 9497TIP3   OH249905   7.161   6.758  13.866  0.2089  0.1434  0.0607
 9497TIP3    H149906   7.186   6.798  13.782  1.9042 -1.4618 -0.2747
 9497TIP3    H249907   7.182   6.665  13.854  3.5267  0.2652  3.2567
 9498TIP3   OH249908   2.861   2.396   2.787 -1.2207 -0.4635  0.0766
 9498TIP3    H149909   2.833   2.315   2.829 -3.1935 -0.5229 -1.2146
 9498TIP3    H249910   2.819   2.394   2.701  0.2722  1.0315 -0.7463
 9499TIP3   OH249911   0.147   2.700   0.365 -0.4518  0.1064 -0.4473
 9499TIP3    H149912   0.204   2.739   0.432 -0.0259 -0.4305 -0.4926
 9499TIP3    H249913   0.065   2.748   0.373 -0.2385  0.3862  0.1232
 9500TIP3   OH249914   1.549   3.780   3.989  0.1937 -0.1893  0.1823
 9500TIP3    H149915   1.457   3.758   3.998  0.5308 -1.8663 -0.0703
 9500TIP3    H249916   1.568   3.769   3.896  0.8807 -0.9619  0.3968
 9501TIP3   OH249917   3.072   4.870  10.006  0.0876  0.3561  0.1601
 9501TIP3    H149918   3.125   4.795  10.034 -0.3448 -0.1494 -0.3459
 9501TIP3    H249919   3.087   4.878   9.912  0.5721  1.2728  0.3063
 9502TIP3   OH249920   4.702   5.159  10.161  0.0287 -0.4274  0.0047
 9502TIP3    H149921   4.719   5.253  10.164  1.5700 -0.7163  1.1107
 9502TIP3    H249922   4.663   5.146  10.074 -1.8091  1.4402  0.4546
 9503TIP3   OH249923   1.216   5.951  13.294 -0.1476 -0.4454 -0.1148
 9503TIP3    H149924   1.212   6.022  13.231 -1.0764  0.8380  1.3169
 9503TIP3    H249925   1.178   5.876  13.249  0.4734  0.0481 -1.5114
 9504TIP3   OH249926   6.652   4.010  13.082  0.4173  0.1594  0.5302
 9504TIP3    H149927   6.598   4.082  13.116 -2.6645 -1.0718 -1.3803
 9504TIP3    H249928   6.658   3.949  13.155 -1.5358 -0.0232  0.5966
 9505TIP3   OH249929   1.995   6.363  13.073 -0.4585 -0.0311 -0.1714
 9505TIP3    H149930   1.901   6.351  13.089 -0.3685  1.3376  1.7746
 9505TIP3    H249931   2.018   6.440  13.125  1.6787 -0.0668 -0.9648
 9506TIP3   OH249932   5.617   3.766  11.100  0.2571 -0.1378 -0.1915
 9506TIP3    H149933   5.523   3.783  11.107  0.4460  1.6100 -1.3190
 9506TIP3    H249934   5.623   3.681  11.056 -0.7832 -0.3625  0.0721
 9507TIP3   OH249935   1.095   4.151  11.349  0.3143  0.6505 -0.9090
 9507TIP3    H149936   1.185   4.178  11.366 -0.0908  1.2708  0.3560
 9507TIP3    H249937   1.094   4.057  11.370  0.0693  1.1792  1.8015
 9508TIP3   OH249938   4.807   1.743  10.302 -0.5636 -1.1776 -0.0608
 9508TIP3    H149939   4.839   1.784  10.382 -0.2814 -0.6385 -0.4447
 9508TIP3    H249940   4.883   1.698  10.265 -1.0244 -2.6343  0.7049
 9509TIP3   OH249941   4.286   0.655   3.413 -0.4251  0.7133 -0.1203
 9509TIP3    H149942   4.342   0.732   3.418  0.7354 -0.1459  0.6499
 9509TIP3    H249943   4.323   0.603   3.342 -0.0738  0.0373  0.5374
 9510TIP3   OH249944   4.743   0.374   2.704 -0.1706  0.4179  0.1625
 9510TIP3    H149945   4.797   0.295   2.697 -0.3604  0.4013 -1.3557
 9510TIP3    H249946   4.732   0.386   2.798 -2.2174 -2.7673  0.4824
 9511TIP3   OH249947   1.416   3.455  10.193  0.0437 -0.1811 -0.2295
 9511TIP3    H149948   1.470   3.471  10.270  1.2167 -0.4182 -0.9736
 9511TIP3    H249949   1.451   3.373  10.156  0.6511  0.7888 -1.9301
 9512TIP3   OH249950   4.100   4.554  15.091  0.5155 -0.2874 -0.3044
 9512TIP3    H149951   4.173   4.595  15.045  1.4646 -0.7653  0.7266
 9512TIP3    H249952   4.023   4.573  15.037  1.4643 -0.1609 -1.6553
 9513TIP3   OH249953   5.342   6.443  15.146 -0.3208  0.7516 -0.4343
 9513TIP3    H149954   5.314   6.407  15.230  0.0370 -0.0489 -0.6465
 9513TIP3    H249955   5.265   6.436  15.090 -0.8328  2.1059  0.0594
 9514TIP3   OH249956   2.631   4.283  14.782  1.0244 -0.5013 -0.3898
 9514TIP3    H149957   2.693   4.354  14.796  0.5335  0.4020 -2.4236
 9514TIP3    H249958   2.589   4.270  14.867  0.3632  2.3746 -0.1796
 9515TIP3   OH249959   2.325   0.508   1.029  0.1533  0.0010  0.1604
 9515TIP3    H149960   2.230   0.503   1.043 -0.0393  2.7821  0.4743
 9515TIP3    H249961   2.360   0.436   1.081 -1.7008 -0.2210  1.2101
 9516TIP3   OH249962   4.412   4.910   1.861 -0.2953  0.7004  0.3957
 9516TIP3    H149963   4.451   4.901   1.948 -1.3418 -0.9198  0.7504
 9516TIP3    H249964   4.377   4.823   1.842 -2.6063  1.7196 -0.4166
 9517TIP3   OH249965   6.912   0.483  12.310  0.6398  0.1263  0.5982
 9517TIP3    H149966   6.864   0.533  12.244  0.0566  1.4590  1.9889
 9517TIP3    H249967   6.946   0.407  12.262 -0.9601  0.3007 -0.9174
 9518TIP3   OH249968   5.909   2.122  10.443  0.1857  0.0237 -0.0426
 9518TIP3    H149969   5.991   2.075  10.426 -0.8789 -1.5929 -0.8916
 9518TIP3    H249970   5.856   2.109  10.365 -1.1500  0.5017  0.7441
 9519TIP3   OH249971   5.716   6.181  13.527  0.6840 -0.3746 -0.1134
 9519TIP3    H149972   5.693   6.133  13.606  1.4008 -0.0292  0.3043
 9519TIP3    H249973   5.643   6.164  13.467 -0.5673  0.4986  1.1019
 9520TIP3   OH249974   5.714   6.414  10.819  0.6434 -0.0011 -0.1184
 9520TIP3    H149975   5.636   6.434  10.767  0.4741  1.4225  0.6371
 9520TIP3    H249976   5.696   6.329  10.858 -0.4216  0.1842 -0.1762
 9521TIP3   OH249977   6.472   1.398  11.481  0.0026 -0.1664 -0.4177
 9521TIP3    H149978   6.405   1.396  11.412  0.7431  0.5294 -1.1881
 9521TIP3    H249979   6.492   1.306  11.499  0.9074 -0.3803 -2.2735
 9522TIP3   OH249980   1.341   4.764   1.128  0.1991  0.1898  0.2757
 9522TIP3    H149981   1.402   4.709   1.177  0.7237  0.3644 -0.1794
 9522TIP3    H249982   1.264   4.770   1.185  1.0561  0.9586  1.3812
 9523TIP3   OH249983   0.322   3.705   1.726  0.6036 -0.4492  0.1831
 9523TIP3    H149984   0.332   3.796   1.753 -2.7766 -0.1275  0.7708
 9523TIP3    H249985   0.276   3.710   1.643  1.0902 -1.6563 -0.1859
 9524TIP3   OH249986   2.392   1.018   0.987  0.5570  0.0375  0.4110
 9524TIP3    H149987   2.476   1.038   1.028  0.8756  0.9486 -0.6408
 9524TIP3    H249988   2.357   0.945   1.038  1.2660  0.6476  1.8333
 9525TIP3   OH249989   0.247   3.623   5.442 -0.1213  0.0050  0.6677
 9525TIP3    H149990   0.192   3.590   5.513 -1.0407 -0.7544 -0.3611
 9525TIP3    H249991   0.244   3.554   5.376  0.7745  0.6636 -0.0803
 9526TIP3   OH249992   6.011   0.089  11.075  0.3845 -0.0663 -0.5211
 9526TIP3    H149993   6.040   0.057  11.161 -0.2357  0.2544 -0.1881
 9526TIP3    H249994   5.936   0.035  11.052  0.6798 -0.2934 -0.9655
 9527TIP3   OH249995   5.920   1.937  14.888  0.1934 -0.0515 -0.7166
 9527TIP3    H149996   5.859   1.927  14.961  0.4155 -1.3755 -0.6918
 9527TIP3    H249997   5.909   1.857  14.836  1.3695  0.0215 -1.1107
 9528TIP3   OH249998   3.435   1.070  15.220 -0.2459  0.0645 -0.5597
 9528TIP3    H149999   3.412   1.002  15.158  3.0072 -1.6167 -0.1208
 9528TIP3    H250000   3.418   1.031  15.306  0.2492  0.3543 -0.3235
 9529TIP3   OH250001   7.044   5.169  10.201  0.0914 -0.0885 -0.2721
 9529TIP3    H150002   6.968   5.192  10.148 -1.3000 -1.2054  1.1193
 9529TIP3    H250003   7.117   5.169  10.140 -0.2738  4.4350 -1.0933
 9530TIP3   OH250004   5.987   1.742   0.428 -0.2405 -0.5731  0.3576
 9530TIP3    H150005   6.049   1.701   0.488 -1.2547 -0.3713  1.5718
 9530TIP3    H250006   5.975   1.831   0.461 -1.7347 -0.8324  0.6183
 9531TIP3   OH250007   6.363   1.700  13.627 -0.0439 -0.1526  0.3221
 9531TIP3    H150008   6.302   1.773  13.620  1.0537  0.6799 -1.0412
 9531TIP3    H250009   6.320   1.639  13.687 -2.2211  0.3504 -0.6289
 9532TIP3   OH250010   1.355   6.428  11.998  0.6648  0.0224  1.0724
 9532TIP3    H150011   1.277   6.419  11.943  1.5937  1.0616 -0.5037
 9532TIP3    H250012   1.395   6.341  11.997  0.6595  0.0160  0.0757
 9533TIP3   OH250013   4.461   0.295   0.771  0.6331 -0.7765 -0.7993
 9533TIP3    H150014   4.426   0.277   0.858  3.4412 -1.0421  0.4075
 9533TIP3    H250015   4.427   0.225   0.715 -1.4666 -0.4220 -0.0312
 9534TIP3   OH250016   2.863   1.992  14.221  0.1339 -0.6839  0.5508
 9534TIP3    H150017   2.787   1.950  14.181  0.5790 -0.3964 -0.6352
 9534TIP3    H250018   2.833   2.017  14.309 -0.7116 -1.7703  0.5949
 9535TIP3   OH250019   1.062   6.693  14.858  0.2163  0.3411  0.5903
 9535TIP3    H150020   0.989   6.634  14.878 -0.0598  0.2617 -0.5713
 9535TIP3    H250021   1.115   6.694  14.938 -1.3914  0.9103  1.6947
 9536TIP3   OH250022   2.857   0.026   1.850 -0.4033  0.4693  0.2600
 9536TIP3    H150023   2.850   0.066   1.937  0.3276  0.6208  0.2620
 9536TIP3    H250024   2.851  -0.068   1.866 -0.1908  0.4931  0.4845
 9537TIP3   OH250025   0.453   4.888  11.593  0.1594 -0.6295 -0.5921
 9537TIP3    H150026   0.478   4.980  11.607 -0.7804 -0.3646 -0.5789
 9537TIP3    H250027   0.447   4.852  11.682 -0.3328 -0.4631 -0.5562
 9538TIP3   OH250028   2.282   5.555   0.610  0.8690 -0.8639 -0.1188
 9538TIP3    H150029   2.359   5.551   0.554  1.3185 -1.2651  0.5189
 9538TIP3    H250030   2.299   5.628   0.669  0.4015 -0.4489 -0.4885
 9539TIP3   OH250031   2.319   4.230   0.970  0.0072 -0.4016  0.8916
 9539TIP3    H150032   2.313   4.325   0.976  0.7395 -0.2676 -0.2212
 9539TIP3    H250033   2.234   4.203   0.935 -0.2333 -0.1793  1.2905
 9540TIP3   OH250034   3.828   4.031  12.717  0.0337  0.0767  0.3354
 9540TIP3    H150035   3.864   4.045  12.804  0.2452  0.3984  0.1987
 9540TIP3    H250036   3.736   4.057  12.724  0.6646  2.7409 -0.1907
 9541TIP3   OH250037   1.047   2.892   0.226 -0.1808  0.0744 -0.2198
 9541TIP3    H150038   1.127   2.920   0.180  0.2885  0.6494  0.9110
 9541TIP3    H250039   1.052   2.797   0.226 -0.4727  0.0255 -1.8160
 9542TIP3   OH250040   6.951   1.438   1.704 -0.1449 -0.1896 -0.1068
 9542TIP3    H150041   6.879   1.463   1.762  0.4401 -0.2901  0.6777
 9542TIP3    H250042   6.908   1.399   1.628 -0.9271  0.0424  0.2062
 9543TIP3   OH250043   2.449   1.350   0.487  0.6939 -0.1437 -0.4252
 9543TIP3    H150044   2.372   1.329   0.539  0.0156  1.3090 -0.7926
 9543TIP3    H250045   2.514   1.379   0.551 -0.4099  2.4488 -0.3565
 9544TIP3   OH250046   6.998   0.598  10.919 -0.4321 -0.0942  0.1634
 9544TIP3    H150047   7.083   0.560  10.899 -0.3884  0.7389 -1.3387
 9544TIP3    H250048   6.939   0.523  10.925 -0.3121 -0.5247 -2.5697
 9545TIP3   OH250049   6.219   5.004  11.687 -0.4833 -0.1532 -0.5231
 9545TIP3    H150050   6.137   4.958  11.708 -0.6404  0.6960  0.7949
 9545TIP3    H250051   6.288   4.947  11.723 -0.7068  0.8656  1.6819
 9546TIP3   OH250052   6.819   1.126   2.406  0.2638  0.0507  0.1019
 9546TIP3    H150053   6.813   1.191   2.476 -0.3982 -0.8962  0.9747
 9546TIP3    H250054   6.732   1.085   2.404  0.6203 -0.7081 -0.4980
 9547TIP3   OH250055   0.615   6.180   2.086  0.6518 -0.1351 -0.8561
 9547TIP3    H150056   0.602   6.194   2.180  0.2967 -2.0625 -0.5735
 9547TIP3    H250057   0.711   6.175   2.076  0.6696 -0.7224 -0.4452
 9548TIP3   OH250058   5.154   0.521  14.622  0.8809 -0.0719 -0.0553
 9548TIP3    H150059   5.236   0.478  14.598  1.4220 -0.4896  2.3018
 9548TIP3    H250060   5.167   0.551  14.712 -0.5828  2.3708 -0.5536
 9549TIP3   OH250061   6.311   4.964   1.478  0.0389  0.0973 -0.1488
 9549TIP3    H150062   6.331   5.055   1.457 -1.0971  0.4694  0.3171
 9549TIP3    H250063   6.285   4.925   1.395  1.5006 -0.0904 -0.5421
 9550TIP3   OH250064   5.763   0.315  14.247  0.0197  0.5515  0.0267
 9550TIP3    H150065   5.674   0.279  14.246  0.0897  0.1844  2.0400
 9550TIP3    H250066   5.751   0.410  14.249 -0.3588  0.4901  0.9048
 9551TIP3   OH250067   0.431   4.799   5.282  0.8345  0.9396 -0.1524
 9551TIP3    H150068   0.420   4.838   5.195  0.6189  0.0076 -0.5556
 9551TIP3    H250069   0.355   4.829   5.332  0.2887  0.4712 -0.6791
 9552TIP3   OH250070   0.448   6.899  14.201  0.8446 -0.1159  0.0604
 9552TIP3    H150071   0.397   6.903  14.282 -0.0954 -1.1050 -0.4705
 9552TIP3    H250072   0.417   6.821  14.156  1.5465  0.2674 -1.1418
 9553TIP3   OH250073   1.446   3.040   3.686 -0.2725  0.2013  0.1182
 9553TIP3    H150074   1.443   2.996   3.770  0.9780 -1.8142 -0.8169
 9553TIP3    H250075   1.481   3.127   3.705  0.9521 -0.5598  1.5593
 9554TIP3   OH250076   6.232   3.980   2.633  0.2139 -0.1276 -0.3553
 9554TIP3    H150077   6.267   3.891   2.638 -0.0935 -0.2739 -0.7373
 9554TIP3    H250078   6.172   3.978   2.558 -2.1589 -0.4244  1.4536
 9555TIP3   OH250079   5.628   5.211  15.136  0.1793  0.3691 -0.2637
 9555TIP3    H150080   5.561   5.279  15.126 -0.2737 -0.0743 -0.2806
 9555TIP3    H250081   5.597   5.157  15.209  0.3977  0.0289 -0.4171
 9556TIP3   OH250082   1.634   6.597  10.098 -0.2918 -0.2415  0.2475
 9556TIP3    H150083   1.616   6.690  10.088  0.0717 -0.1503  0.4206
 9556TIP3    H250084   1.690   6.575  10.023 -0.7755 -0.4325 -0.0644
 9557TIP3   OH250085   2.088   3.947  15.423  0.3166  0.3612  0.2711
 9557TIP3    H150086   2.020   3.945  15.356  0.5185  0.0031  0.0755
 9557TIP3    H250087   2.068   3.872  15.479 -1.0159  1.7539  1.7788
 9558TIP3   OH250088   0.232   6.667  12.057 -0.1439 -0.0831  0.2262
 9558TIP3    H150089   0.190   6.679  11.972 -0.1062  0.2265  0.2492
 9558TIP3    H250090   0.174   6.712  12.119  1.1057  1.9315  0.0299
 9559TIP3   OH250091   0.420   6.977   4.993 -0.1811  0.0050 -0.1823
 9559TIP3    H150092   0.358   6.987   5.065  0.2239  0.4907  0.1062
 9559TIP3    H250093   0.502   7.012   5.027 -0.0171  0.3648 -0.9220
 9560TIP3   OH250094   1.875   4.597   3.253 -0.4825 -0.7140 -0.8603
 9560TIP3    H150095   1.903   4.596   3.161 -0.8235 -0.1482 -0.9732
 9560TIP3    H250096   1.792   4.549   3.253 -1.9034  1.5824 -1.3383
 9561TIP3   OH250097   0.728   0.674  14.353 -0.0590 -0.4635 -0.7390
 9561TIP3    H150098   0.693   0.655  14.440 -0.5695 -1.9847 -1.2317
 9561TIP3    H250099   0.667   0.738  14.316 -0.1695 -0.2467 -0.1899
 9562TIP3   OH250100   2.967   4.080  13.308 -0.6525 -0.0253 -0.6597
 9562TIP3    H150101   2.886   4.129  13.293 -0.8677 -0.1191  0.1686
 9562TIP3    H250102   2.952   3.995  13.265 -0.9611 -0.0137 -0.5775
 9563TIP3   OH250103   5.190   3.668   3.632 -0.0549  0.5094  0.1737
 9563TIP3    H150104   5.251   3.674   3.559 -0.4360  1.7010 -0.0740
 9563TIP3    H250105   5.130   3.743   3.620 -1.6532 -0.6914  0.3220
 9564TIP3   OH250106   7.015   6.357   0.793  0.5061 -0.2601  0.2661
 9564TIP3    H150107   7.069   6.278   0.802  1.0746  0.1574  0.6080
 9564TIP3    H250108   7.055   6.405   0.719  0.8288  0.2172  0.7406
 9565TIP3   OH250109   0.355   5.870   2.067 -0.7480  0.1089 -0.0662
 9565TIP3    H150110   0.262   5.847   2.058 -0.5538 -0.7020 -0.1227
 9565TIP3    H250111   0.390   5.862   1.978 -0.5027 -0.1466  0.0525
 9566TIP3   OH250112   3.017   1.548  13.547 -0.3387 -0.1658 -0.3215
 9566TIP3    H150113   3.099   1.549  13.499  0.2065 -0.0235  0.5996
 9566TIP3    H250114   2.967   1.621  13.511  0.2372  0.2021 -0.3805
 9567TIP3   OH250115   2.060   2.053   1.608 -0.3033 -0.8602 -0.2297
 9567TIP3    H150116   1.992   2.042   1.674 -0.6629  0.0559 -0.4254
 9567TIP3    H250117   2.065   1.969   1.564  0.5108 -1.7496  1.4750
 9568TIP3   OH250118   6.868   3.325   4.457  0.0044 -0.7320  0.1982
 9568TIP3    H150119   6.839   3.277   4.535  0.1306 -2.9187 -1.0176
 9568TIP3    H250120   6.916   3.400   4.492  1.0435 -2.2477  2.2660
 9569TIP3   OH250121   1.690   6.741   5.698  0.8125 -0.3794  0.5636
 9569TIP3    H150122   1.652   6.829   5.700 -0.0630 -0.7481  0.4819
 9569TIP3    H250123   1.748   6.742   5.622  0.9477  0.1799  0.6683
 9570TIP3   OH250124   2.993   3.929  12.975 -0.4429  0.2883  0.0903
 9570TIP3    H150125   2.928   3.869  13.013  0.1019 -1.0771 -1.0464
 9570TIP3    H250126   2.975   3.927  12.881  0.1792  1.2287 -0.0625
 9571TIP3   OH250127   0.382   4.363   0.188 -0.4068 -0.5549  0.5329
 9571TIP3    H150128   0.330   4.387   0.265  0.7035  0.1207  1.0889
 9571TIP3    H250129   0.471   4.388   0.211  0.0701 -1.1323 -0.6540
 9572TIP3   OH250130   0.101   2.359   4.583  0.3466 -0.2144  0.4451
 9572TIP3    H150131   0.179   2.381   4.532 -0.3361  1.4797  0.0426
 9572TIP3    H250132   0.112   2.267   4.606  0.8774 -0.9571 -2.4123
 9573TIP3   OH250133   1.054   5.566  10.797  0.4198 -0.0325 -0.2649
 9573TIP3    H150134   0.982   5.503  10.789 -0.0322  0.6112 -1.3910
 9573TIP3    H250135   1.012   5.652  10.792  1.2024  0.3596 -0.3110
 9574TIP3   OH250136   6.689   2.504   1.563  0.5146  0.7007  0.1341
 9574TIP3    H150137   6.717   2.519   1.653 -1.3634  2.3445  0.5183
 9574TIP3    H250138   6.670   2.591   1.529 -3.7315 -0.1019 -0.0965
 9575TIP3   OH250139   4.213   6.752   2.197 -0.0912 -0.0503  0.6839
 9575TIP3    H150140   4.167   6.674   2.165 -0.5794  0.6317 -0.3436
 9575TIP3    H250141   4.187   6.759   2.289 -1.0183 -0.4104  0.4664
 9576TIP3   OH250142   6.034   5.462  10.825 -0.1398 -0.4274 -0.1614
 9576TIP3    H150143   5.978   5.436  10.753 -1.8107  0.8920  0.5965
 9576TIP3    H250144   5.986   5.436  10.904  0.5570  0.2437  0.5095
 9577TIP3   OH250145   2.379   1.967  10.780 -0.0726  0.1237 -0.0472
 9577TIP3    H150146   2.300   1.949  10.728  0.4531 -0.1305 -0.7689
 9577TIP3    H250147   2.439   1.896  10.757  0.0594 -0.1864  1.1608
 9578TIP3   OH250148   5.680   4.729  12.931  0.0133 -0.2004 -0.1694
 9578TIP3    H150149   5.619   4.659  12.952  1.5092 -1.6981 -0.5526
 9578TIP3    H250150   5.720   4.702  12.848  0.4522  1.2503 -0.4649
 9579TIP3   OH250151   3.983   5.121   5.912  0.0954  0.1873 -0.1043
 9579TIP3    H150152   3.999   5.184   5.841 -0.5710 -0.7214 -1.0914
 9579TIP3    H250153   4.044   5.147   5.981  0.1914  1.5960 -0.6880
 9580TIP3   OH250154   6.948   3.163  13.026  0.0492 -0.5765 -0.1330
 9580TIP3    H150155   6.994   3.155  13.109  2.2675  1.1229 -1.0877
 9580TIP3    H250156   6.956   3.077  12.985  2.0606 -0.4642 -0.0621
 9581TIP3   OH250157   5.446   5.767   2.391 -0.1671 -0.2756 -0.1968
 9581TIP3    H150158   5.433   5.835   2.325 -0.6317  1.7221  1.8578
 9581TIP3    H250159   5.382   5.786   2.459  0.6728 -1.9316  1.1368
 9582TIP3   OH250160   6.126   3.331  13.235  0.9195 -0.2419 -0.1015
 9582TIP3    H150161   6.186   3.306  13.305  0.0410  1.3827  1.2863
 9582TIP3    H250162   6.183   3.359  13.164  1.8170 -0.1147  0.6426
 9583TIP3   OH250163   5.279   5.962  12.803 -0.3233 -0.7309 -0.1449
 9583TIP3    H150164   5.210   5.901  12.831  0.0501 -0.7282  0.8251
 9583TIP3    H250165   5.348   5.905  12.768 -0.1982 -0.8333  0.2650
 9584TIP3   OH250166   4.187   4.552  14.362 -0.2733  0.3372  0.4727
 9584TIP3    H150167   4.188   4.642  14.396 -0.3549  0.4735  0.1168
 9584TIP3    H250168   4.105   4.546  14.313  0.2390  0.4122 -0.4124
 9585TIP3   OH250169   4.496   6.148  14.042 -0.3845  0.2630 -0.0540
 9585TIP3    H150170   4.425   6.114  14.096 -1.6364  1.0791 -1.1269
 9585TIP3    H250171   4.518   6.232  14.082  1.2785 -0.7801  1.3561
 9586TIP3   OH250172   5.373   6.290  13.348 -0.2815 -0.2233  0.0517
 9586TIP3    H150173   5.278   6.281  13.352 -0.1369 -2.0686  0.1170
 9586TIP3    H250174   5.393   6.299  13.254 -0.3947 -2.0170 -0.1789
 9587TIP3   OH250175   6.746   7.070   1.475 -0.0653  0.1401 -0.0518
 9587TIP3    H150176   6.837   7.090   1.454 -0.3077  1.5362  0.1613
 9587TIP3    H250177   6.739   7.086   1.569  0.0881 -2.4859  0.4887
 9588TIP3   OH250178   5.807   2.761  13.154 -0.3056  0.8004 -0.4183
 9588TIP3    H150179   5.860   2.698  13.202 -3.1572 -1.4075  0.0773
 9588TIP3    H250180   5.731   2.711  13.124 -1.3387  3.3861 -2.4935
 9589TIP3   OH250181   5.420   4.468   9.623 -0.0978 -0.0884  0.2574
 9589TIP3    H150182   5.477   4.391   9.617 -1.6181 -1.3041  0.7484
 9589TIP3    H250183   5.413   4.499   9.533 -1.2381 -1.9097 -0.3333
 9590TIP3   OH250184   1.615   3.722  13.532 -0.3906 -0.2868 -0.0481
 9590TIP3    H150185   1.671   3.787  13.490 -0.6084 -0.8654 -1.2746
 9590TIP3    H250186   1.675   3.651  13.556 -0.4177 -0.4015 -0.3159
 9591TIP3   OH250187   0.519   0.795  15.024  0.0035 -0.0603 -0.1694
 9591TIP3    H150188   0.610   0.772  15.002  0.4228  0.8595  0.5353
 9591TIP3    H250189   0.478   0.815  14.940  0.9881  1.3586 -0.3544
 9592TIP3   OH250190   2.798   1.855  11.550 -0.0310 -0.1049  0.0208
 9592TIP3    H150191   2.732   1.904  11.500 -0.2574 -0.2929  0.1312
 9592TIP3    H250192   2.866   1.835  11.487  0.1761  0.5600  0.0265
 9593TIP3   OH250193   5.010   1.750  12.205  0.5167 -0.1642 -0.2713
 9593TIP3    H150194   5.057   1.748  12.122 -0.7109 -2.0465 -0.9860
 9593TIP3    H250195   4.960   1.669  12.206 -1.7210  1.1298  1.0011
 9594TIP3   OH250196   1.371   1.177   5.909  0.0240 -0.5421 -0.4696
 9594TIP3    H150197   1.452   1.214   5.871  0.3524  0.0143  0.7448
 9594TIP3    H250198   1.340   1.244   5.969 -1.3957 -0.7347 -0.9597
 9595TIP3   OH250199   4.082   4.933  15.140 -0.4786 -0.6245  0.0376
 9595TIP3    H150200   4.170   4.912  15.108  0.3779 -1.2374  2.5888
 9595TIP3    H250201   4.049   4.851  15.176 -2.5475 -0.6420 -1.6612
 9596TIP3   OH250202   0.035   0.595  10.325  0.3182  0.2871 -0.3421
 9596TIP3    H150203   0.127   0.618  10.318  1.1000 -1.3572  2.5636
 9596TIP3    H250204   0.015   0.605  10.418 -2.9772  2.1868 -1.0991
 9597TIP3   OH250205   3.762   6.508  12.756  0.7717  0.0874  0.2261
 9597TIP3    H150206   3.777   6.502  12.850 -1.3345  0.5191  0.6250
 9597TIP3    H250207   3.739   6.600  12.741 -1.5800 -0.5164 -0.2370
 9598TIP3   OH250208   1.039   0.500  14.619  0.4680 -0.1144  0.0234
 9598TIP3    H150209   1.081   0.429  14.667 -0.9029 -1.3095 -0.4627
 9598TIP3    H250210   1.103   0.571  14.620  0.1907  0.3094  4.4051
 9599TIP3   OH250211   3.603   5.533  14.851 -0.1266 -0.8997 -0.8846
 9599TIP3    H150212   3.563   5.606  14.899  1.0044 -0.7669 -0.1140
 9599TIP3    H250213   3.533   5.501  14.793 -0.5867  0.9084 -1.3774
 9600TIP3   OH250214   0.213   4.821   5.462 -0.2467 -0.8078 -0.0260
 9600TIP3    H150215   0.254   4.778   5.538  1.6448 -0.8481 -1.0108
 9600TIP3    H250216   0.198   4.911   5.491  0.8619 -0.7071  0.2804
 9601TIP3   OH250217   0.817   0.928   4.472  0.2848  0.1027  0.0426
 9601TIP3    H150218   0.758   1.002   4.460  0.3577  0.6633  2.5141
 9601TIP3    H250219   0.814   0.910   4.566  0.8789 -2.5557 -0.3643
 9602TIP3   OH250220   4.832   1.216   5.512 -0.3812 -0.1425 -0.5684
 9602TIP3    H150221   4.902   1.267   5.472  0.5738 -0.1375  1.0398
 9602TIP3    H250222   4.843   1.228   5.606 -0.7649 -2.4607 -0.1595
 9603TIP3   OH250223   4.105   1.130   4.166 -0.5545 -0.1214  0.2074
 9603TIP3    H150224   4.153   1.082   4.234  0.1985 -0.0055 -0.2367
 9603TIP3    H250225   4.033   1.072   4.143  1.0087 -1.6231 -1.1808
 9604TIP3   OH250226   1.599   6.823  10.786  0.3964 -0.6751  0.3929
 9604TIP3    H150227   1.660   6.877  10.837 -0.7282  0.2204  0.8544
 9604TIP3    H250228   1.569   6.756  10.848 -0.3140 -0.1100  0.6821
 9605TIP3   OH250229   4.148   3.203  14.429  0.4671 -0.4515 -0.3194
 9605TIP3    H150230   4.098   3.142  14.483  1.9164 -0.1968  1.4177
 9605TIP3    H250231   4.184   3.149  14.359 -1.2231 -0.8481 -0.9257
 9606TIP3   OH250232   5.050   1.313  13.476  0.3158 -0.4061  0.1304
 9606TIP3    H150233   4.971   1.261  13.462  0.4583 -0.4186 -0.6937
 9606TIP3    H250234   5.122   1.254  13.455  0.4398  0.5920 -2.6885
 9607TIP3   OH250235   1.598   6.332   0.751  0.0529  0.6837 -0.2835
 9607TIP3    H150236   1.539   6.262   0.780  0.7893  0.4900  0.8367
 9607TIP3    H250237   1.572   6.408   0.802 -0.3254  1.0589 -1.0313
 9608TIP3   OH250238   0.972   7.028  11.979 -0.0010  0.5236  0.1051
 9608TIP3    H150239   1.028   6.974  12.034  1.5968 -0.0604 -1.9954
 9608TIP3    H250240   1.021   7.109  11.967 -2.0034  2.2447  2.5281
 9609TIP3   OH250241   6.047   4.145   1.040 -0.2011  0.3291  0.0386
 9609TIP3    H150242   6.009   4.058   1.027 -0.9395  0.5365  0.7268
 9609TIP3    H250243   6.127   4.144   0.988 -0.6355 -0.4725 -0.6504
 9610TIP3   OH250244   4.895   0.154   1.636  0.1339  0.3353 -0.2913
 9610TIP3    H150245   4.868   0.113   1.553 -2.5011  0.8223  0.2279
 9610TIP3    H250246   4.942   0.233   1.609 -0.0551  0.1145 -1.3171
 9611TIP3   OH250247   3.649   1.173   3.016  0.2111  0.0389 -0.0770
 9611TIP3    H150248   3.738   1.205   3.031 -0.2341  0.7587  1.1856
 9611TIP3    H250249   3.595   1.252   3.012 -1.0641 -0.4008  4.0405
 9612TIP3   OH250250   5.115   0.671  12.352 -0.7958 -1.0742  0.2258
 9612TIP3    H150251   5.069   0.625  12.282 -1.3406 -2.1929  1.2792
 9612TIP3    H250252   5.208   0.655  12.333 -0.8303  0.3280 -1.3308
 9613TIP3   OH250253   3.127   1.288  11.095  0.0470 -0.1008 -0.2305
 9613TIP3    H150254   3.190   1.310  11.162  1.9703  0.3255 -2.0698
 9613TIP3    H250255   3.169   1.312  11.013 -2.0294 -0.9361 -1.6489
 9614TIP3   OH250256   5.870   4.769  11.538 -0.2405 -0.6667 -0.2217
 9614TIP3    H150257   5.779   4.752  11.565 -0.1290 -2.1360 -0.6791
 9614TIP3    H250258   5.862   4.818  11.457 -0.6520 -1.4689 -0.6774
 9615TIP3   OH250259   6.739   1.765   0.191  0.0321 -0.0691  0.6410
 9615TIP3    H150260   6.774   1.775   0.279 -0.1928 -0.0541  0.7282
 9615TIP3    H250261   6.811   1.726   0.141 -0.1741 -1.0296  1.0732
 9616TIP3   OH250262   1.674   2.977  13.731  0.6476 -0.3120 -0.2717
 9616TIP3    H150263   1.766   3.004  13.724  0.2598  1.6959  1.2894
 9616TIP3    H250264   1.672   2.921  13.809  0.6389 -0.8715 -0.6708
 9617TIP3   OH250265   5.178   1.037   2.064 -0.0270  0.2810 -0.2083
 9617TIP3    H150266   5.160   1.082   2.146 -0.4039 -0.0767 -0.0896
 9617TIP3    H250267   5.273   1.030   2.060 -0.0263 -0.2510  0.5033
 9618TIP3   OH250268   1.172   3.973   4.340  0.2035 -0.0084 -0.2509
 9618TIP3    H150269   1.226   3.983   4.419  0.1916  0.2936 -0.2771
 9618TIP3    H250270   1.139   4.062   4.323 -0.1037 -0.1442 -0.3755
 9619TIP3   OH250271   4.438   1.007   5.687  0.2819  0.2820 -0.2348
 9619TIP3    H150272   4.489   0.947   5.742  1.5710  1.7650  0.2631
 9619TIP3    H250273   4.347   0.991   5.712  0.7223 -0.2684  1.1139
 9620TIP3   OH250274   4.183   6.777   1.401  0.0470 -0.2931  0.6439
 9620TIP3    H150275   4.170   6.869   1.378  2.0219 -0.3030 -0.7728
 9620TIP3    H250276   4.269   6.756   1.367 -1.1108 -3.2019 -0.8340
 9621TIP3   OH250277   3.762   0.922  11.619 -0.3811  0.2855  0.2321
 9621TIP3    H150278   3.745   0.842  11.569 -0.9037 -0.2173  1.1741
 9621TIP3    H250279   3.809   0.979  11.559  0.3403 -0.8860 -0.3538
 9622TIP3   OH250280   6.930   6.696  10.235 -0.8427 -0.2945 -0.8066
 9622TIP3    H150281   6.954   6.760  10.168  0.0272 -0.1670 -0.3722
 9622TIP3    H250282   6.963   6.613  10.201  1.8258  0.1206  0.5669
 9623TIP3   OH250283   3.378   5.519  12.994  0.7166  0.1255  0.1149
 9623TIP3    H150284   3.287   5.543  12.980  0.0363 -2.6218 -0.7113
 9623TIP3    H250285   3.428   5.582  12.942 -0.9932 -0.9593 -3.0730
 9624TIP3   OH250286   5.228   5.291   4.477 -0.6297  0.2144  0.2987
 9624TIP3    H150287   5.301   5.337   4.436 -1.7329  1.4783 -0.3132
 9624TIP3    H250288   5.258   5.272   4.566  1.0012 -0.6649 -0.3977
 9625TIP3   OH250289   1.231   3.704  13.920  0.1394 -0.1279 -0.6805
 9625TIP3    H150290   1.294   3.728  13.852 -0.1540 -0.0081 -0.9100
 9625TIP3    H250291   1.147   3.735  13.887 -0.3253 -1.8092 -1.1839
 9626TIP3   OH250292   4.874   4.022   2.155 -0.5650 -0.2258 -0.2563
 9626TIP3    H150293   4.894   4.115   2.156 -1.9180  0.1071 -1.4641
 9626TIP3    H250294   4.839   4.005   2.067 -1.7884 -1.5379  0.4377
 9627TIP3   OH250295   2.571   3.108   1.286  0.4810 -0.1538 -0.2800
 9627TIP3    H150296   2.481   3.138   1.292  0.2757 -0.7125 -0.4911
 9627TIP3    H250297   2.566   3.013   1.298  0.9854 -0.2533 -0.7729
 9628TIP3   OH250298   2.167   2.753  11.628  0.0746  0.0820 -0.2504
 9628TIP3    H150299   2.253   2.724  11.657 -0.4055  0.6141  1.9291
 9628TIP3    H250300   2.171   2.848  11.631 -0.4971  0.1147 -0.3956
 9629TIP3   OH250301   4.557   5.639   1.818 -0.0856 -0.0056  0.0627
 9629TIP3    H150302   4.610   5.661   1.742 -0.6141  0.6000 -0.1402
 9629TIP3    H250303   4.493   5.576   1.784  0.1997 -0.3754  0.2015
 9630TIP3   OH250304   6.514   5.532  13.891  0.3266  0.6253 -0.3707
 9630TIP3    H150305   6.581   5.525  13.823 -0.5375  0.0316 -1.1688
 9630TIP3    H250306   6.474   5.445  13.896 -1.6580  1.4330 -1.2248
 9631TIP3   OH250307   6.131   6.730   1.944  0.7632 -0.5425  0.2745
 9631TIP3    H150308   6.046   6.704   1.979  0.8764  0.5998  1.4588
 9631TIP3    H250309   6.178   6.768   2.018  1.0067  2.0049 -1.0435
 9632TIP3   OH250310   5.730   5.382   2.726 -0.2030 -0.1197  0.1459
 9632TIP3    H150311   5.780   5.418   2.653  0.6291  0.0008  0.7602
 9632TIP3    H250312   5.670   5.452   2.752  1.6423  1.0433  1.5649
 9633TIP3   OH250313   5.859   5.946   2.867  0.3462 -0.3079 -0.8047
 9633TIP3    H150314   5.926   5.886   2.900 -0.5189 -0.7717  0.1675
 9633TIP3    H250315   5.803   5.964   2.943 -0.8768 -0.2489 -1.6881
 9634TIP3   OH250316   5.755   1.595   5.537  0.4241 -0.1639 -0.1998
 9634TIP3    H150317   5.703   1.566   5.462  0.2172  0.1520 -0.1806
 9634TIP3    H250318   5.775   1.687   5.518 -0.1985  0.1143  0.4414
 9635TIP3   OH250319   2.571   6.961   9.779 -0.0167 -0.6504  0.7313
 9635TIP3    H150320   2.616   7.045   9.788 -0.7870 -0.2440  0.8300
 9635TIP3    H250321   2.618   6.916   9.709 -0.0391  0.1548  0.1927
 9636TIP3   OH250322   7.141   4.067   1.807 -0.1235 -0.1505 -0.1476
 9636TIP3    H150323   7.146   4.154   1.768  0.7627 -0.4219 -0.6783
 9636TIP3    H250324   7.178   4.009   1.741 -1.9185 -1.1304 -0.3428
 9637TIP3   OH250325   0.921   0.155  10.181 -0.4475  0.1034  1.0166
 9637TIP3    H150326   0.903   0.218  10.250 -0.4842 -1.5577  2.6065
 9637TIP3    H250327   1.009   0.177  10.149 -0.7438  1.3557  1.0354
 9638TIP3   OH250328   1.695   6.974  14.477  0.2256 -0.6780  0.6897
 9638TIP3    H150329   1.727   7.048  14.426 -0.8073  0.6249  1.8555
 9638TIP3    H250330   1.628   6.934  14.421  1.9587 -1.8312 -0.6577
 9639TIP3   OH250331   2.585   6.833   3.802 -0.1180 -0.1657 -0.4056
 9639TIP3    H150332   2.663   6.888   3.804  1.2929 -2.0652 -0.7004
 9639TIP3    H250333   2.564   6.823   3.709 -0.7510  0.3647 -0.3271
 9640TIP3   OH250334   4.948   6.657  15.102  0.0706 -0.2206 -0.0519
 9640TIP3    H150335   4.923   6.577  15.056 -1.6540  0.2280  0.0476
 9640TIP3    H250336   4.987   6.626  15.184  0.0075 -0.9607 -0.2934
 9641TIP3   OH250337   4.232   2.956  13.341  0.0494  0.0241 -0.7342
 9641TIP3    H150338   4.292   3.030  13.338 -1.8092  1.5899 -1.0333
 9641TIP3    H250339   4.186   2.965  13.425 -1.4378  0.2763 -1.5430
 9642TIP3   OH250340   3.425   6.472   2.966  0.3592  0.5833 -0.2988
 9642TIP3    H150341   3.423   6.552   2.915  0.8569  0.6682 -0.1819
 9642TIP3    H250342   3.501   6.481   3.024  0.6899 -0.1685 -0.6047
 9643TIP3   OH250343   5.379   4.834  12.215  0.3801  0.4147  0.2735
 9643TIP3    H150344   5.301   4.856  12.266 -0.3920  2.8891 -1.7848
 9643TIP3    H250345   5.359   4.749  12.175 -0.5781  0.2916  0.9796
 9644TIP3   OH250346   7.027   1.508  11.769  0.4756 -0.0339 -0.1295
 9644TIP3    H150347   7.084   1.501  11.845 -0.1528  3.5353  0.8155
 9644TIP3    H250348   7.023   1.601  11.749 -2.7593 -0.3941 -1.9459
 9645TIP3   OH250349   4.667   6.646  10.596 -0.1500  0.1161  0.1900
 9645TIP3    H150350   4.578   6.614  10.581  0.0784  0.2012 -1.4767
 9645TIP3    H250351   4.660   6.741  10.588  0.0523  0.1437  0.3252
 9646TIP3   OH250352   4.266   0.436  11.621 -0.0473  0.0370  0.2480
 9646TIP3    H150353   4.202   0.369  11.645  0.1756 -1.3714 -2.7199
 9646TIP3    H250354   4.226   0.518  11.650 -0.8751 -1.1747  2.8999
 9647TIP3   OH250355   0.933   1.392   3.140 -0.1678  0.2599  0.1830
 9647TIP3    H150356   0.910   1.485   3.144  0.2671  0.3186  2.4661
 9647TIP3    H250357   0.860   1.352   3.092 -0.6704  1.6773 -0.2909
 9648TIP3   OH250358   6.166   5.312  14.247 -0.3433 -0.7852  0.5196
 9648TIP3    H150359   6.138   5.284  14.334 -0.5219 -2.2174  0.0320
 9648TIP3    H250360   6.260   5.327  14.255 -0.3084 -1.1927  0.8968
 9649TIP3   OH250361   2.512   3.551   4.386 -0.3795  0.1934  0.1959
 9649TIP3    H150362   2.497   3.514   4.299 -0.6303 -0.1257  0.3753
 9649TIP3    H250363   2.460   3.496   4.445  2.0016 -1.3961  0.9424
 9650TIP3   OH250364   0.815   4.306   2.282 -0.3147  0.1502 -0.0305
 9650TIP3    H150365   0.733   4.276   2.242 -0.0907  0.4977 -0.7738
 9650TIP3    H250366   0.879   4.238   2.260 -0.4324 -0.2255  0.7265
 9651TIP3   OH250367   1.072   0.469   3.306 -0.2055 -0.6148  0.0606
 9651TIP3    H150368   1.055   0.408   3.234  0.3705  1.3952 -1.8760
 9651TIP3    H250369   1.161   0.500   3.291  0.0897 -0.4474  1.9263
 9652TIP3   OH250370   6.180   5.037  12.317 -0.7268  0.3437  0.5482
 9652TIP3    H150371   6.176   5.006  12.227 -1.0743  1.2904  0.2328
 9652TIP3    H250372   6.245   5.107  12.316 -1.0946  0.6988  0.9259
 9653TIP3   OH250373   5.513   5.124   1.102 -0.4933 -0.1399  0.4249
 9653TIP3    H150374   5.556   5.042   1.077  1.1695  0.4274  1.3139
 9653TIP3    H250375   5.571   5.193   1.069 -0.7403  0.6539  1.6069
 9654TIP3   OH250376   0.123   3.142  14.933 -0.2844 -0.0300  0.7017
 9654TIP3    H150377   0.162   3.214  14.884 -0.9015 -0.1846 -0.0270
 9654TIP3    H250378   0.091   3.182  15.014 -2.0959  0.8632 -0.3933
 9655TIP3   OH250379   5.380   4.954   9.987  0.2744 -0.2956 -0.6403
 9655TIP3    H150380   5.334   4.884   9.939  1.0134  0.1458 -2.0368
 9655TIP3    H250381   5.466   4.917  10.005  0.0332 -0.4181  0.2697
 9656TIP3   OH250382   2.776   5.632   1.340 -0.2237  0.0829 -0.6468
 9656TIP3    H150383   2.819   5.709   1.378  1.7762 -0.7428 -1.1287
 9656TIP3    H250384   2.684   5.658   1.331 -0.0099  1.6548  1.1446
 9657TIP3   OH250385   1.121   3.051   9.925 -0.0899  0.5888  0.1478
 9657TIP3    H150386   1.165   3.131   9.896 -0.0587  0.8184  0.8277
 9657TIP3    H250387   1.191   2.994   9.954 -0.1957  0.7380  0.7003
 9658TIP3   OH250388   5.919   1.773  15.372 -0.0094  0.0790 -0.4957
 9658TIP3    H150389   5.905   1.692  15.421  1.2730  0.0488 -0.1503
 9658TIP3    H250390   5.892   1.752  15.283  1.3184 -1.0805 -0.6590
 9659TIP3   OH250391   3.186   3.106   2.257  0.3593 -0.5509  0.2000
 9659TIP3    H150392   3.127   3.111   2.332  1.3615 -0.2737  0.9899
 9659TIP3    H250393   3.242   3.031   2.274  1.9118  0.6602  0.7688
 9660TIP3   OH250394   5.603   4.918   1.977  1.0155 -0.4039 -0.0554
 9660TIP3    H150395   5.599   4.834   2.022 -1.4310  0.1825  1.0044
 9660TIP3    H250396   5.623   4.982   2.047 -1.9896  0.4146  0.1757
 9661TIP3   OH250397   2.798   2.407   1.775  0.2580 -0.2633 -0.2426
 9661TIP3    H150398   2.800   2.334   1.837  1.0165 -0.6829 -0.7437
 9661TIP3    H250399   2.709   2.441   1.781  0.5640  0.3263  1.7774
 9662TIP3   OH250400   1.079   5.434   3.317  0.2061  0.2338  0.1372
 9662TIP3    H150401   0.991   5.462   3.296  0.4890  1.3916  0.4456
 9662TIP3    H250402   1.073   5.338   3.322 -1.4219  0.3777  1.8939
 9663TIP3   OH250403   0.978   5.919  14.546  0.1296  0.1675 -0.6578
 9663TIP3    H150404   0.960   5.903  14.453 -2.5486  0.1344 -0.2195
 9663TIP3    H250405   1.007   5.835  14.581 -0.5008 -0.2540 -1.1356
 9664TIP3   OH250406   1.633   4.616   4.800 -0.5113 -0.1946 -0.1211
 9664TIP3    H150407   1.601   4.569   4.877  1.1014  1.3245  1.5798
 9664TIP3    H250408   1.725   4.591   4.793  0.1075  1.7779  0.1897
 9665TIP3   OH250409   1.799   4.349  14.630  0.3400 -0.5586 -0.0753
 9665TIP3    H150410   1.705   4.328  14.630 -0.0186  0.9008  0.4998
 9665TIP3    H250411   1.841   4.273  14.670 -0.6881 -0.9130  0.3645
 9666TIP3   OH250412   1.449   3.171  14.742 -0.3608 -0.0632  0.4287
 9666TIP3    H150413   1.446   3.195  14.650 -1.3420 -1.8976 -0.0641
 9666TIP3    H250414   1.357   3.165  14.768 -0.1020 -0.0287  1.3953
 9667TIP3   OH250415   2.908   4.868   5.112  0.3876  0.4389  0.3535
 9667TIP3    H150416   2.971   4.820   5.165 -0.4122 -0.3691  0.5975
 9667TIP3    H250417   2.833   4.809   5.104 -0.5696  1.5730  0.5431
 9668TIP3   OH250418   2.408   1.316  15.377  0.0671  0.2820 -0.1653
 9668TIP3    H150419   2.357   1.367  15.440 -0.9548 -0.1155 -0.6413
 9668TIP3    H250420   2.497   1.351  15.384 -0.1771  0.7204  0.9750
 9669TIP3   OH250421   2.189   3.898   3.566 -0.4980  0.2381 -0.2235
 9669TIP3    H150422   2.252   3.875   3.635 -1.6954  0.9564  1.1676
 9669TIP3    H250423   2.181   3.819   3.513 -0.9851 -1.0115  1.6263
 9670TIP3   OH250424   6.257   6.178  12.055  0.0795 -0.4683  0.0180
 9670TIP3    H150425   6.335   6.231  12.070 -1.1598  1.5940 -0.3797
 9670TIP3    H250426   6.224   6.160  12.143  0.0344  0.2185  0.1528
 9671TIP3   OH250427   3.586   1.342   1.229  0.2890  0.4222  0.1139
 9671TIP3    H150428   3.491   1.350   1.232  0.3286  0.6176  1.2551
 9671TIP3    H250429   3.613   1.338   1.321  1.1701 -2.2327 -0.1654
 9672TIP3   OH250430   1.210   2.089  13.917 -0.2086  1.1532 -0.4196
 9672TIP3    H150431   1.166   2.174  13.926  0.6385  1.5772 -0.1525
 9672TIP3    H250432   1.288   2.108  13.865  0.4869  0.7248  0.4479
 9673TIP3   OH250433   6.027   5.560   9.965 -0.2189  0.3140 -0.0768
 9673TIP3    H150434   6.044   5.597   9.879  0.7994  0.0102 -0.0199
 9673TIP3    H250435   6.110   5.569  10.012 -0.6905  0.2617  0.7938
 9674TIP3   OH250436   2.327   4.976   1.041 -0.2063 -0.5504  0.0200
 9674TIP3    H150437   2.374   5.037   0.984 -0.9448  0.1863  0.1778
 9674TIP3    H250438   2.240   4.968   1.000 -0.6826 -0.1595  0.9283
 9675TIP3   OH250439   2.165   3.526   1.658 -0.1221  0.1601  0.1656
 9675TIP3    H150440   2.239   3.552   1.604 -0.1001  1.3231  0.7196
 9675TIP3    H250441   2.113   3.606   1.667 -0.4037 -0.1361  1.3907
 9676TIP3   OH250442   6.951   4.352   4.916  0.3780 -0.0326 -0.6046
 9676TIP3    H150443   6.989   4.369   4.830 -0.3358  0.4789 -0.8253
 9676TIP3    H250444   6.959   4.258   4.928  0.2690 -0.1375 -1.3271
 9677TIP3   OH250445   0.855   4.297   1.962 -0.1180  0.0098  0.0099
 9677TIP3    H150446   0.849   4.384   1.924  0.0275  1.0403  2.1927
 9677TIP3    H250447   0.764   4.271   1.978 -0.1224  1.1744  2.2391
 9678TIP3   OH250448   0.073   6.629  11.193  0.4765  0.3507  0.0120
 9678TIP3    H150449   0.025   6.547  11.180  1.1461 -0.0300 -0.1323
 9678TIP3    H250450   0.145   6.605  11.252  0.0019  1.0939  0.9173
 9679TIP3   OH250451   0.432   6.915   4.547  0.3155  0.9261 -0.4931
 9679TIP3    H150452   0.521   6.916   4.510 -0.0858 -3.1669 -2.1432
 9679TIP3    H250453   0.445   6.901   4.641  1.3574  2.1766 -0.4205
 9680TIP3   OH250454   1.051   4.963  13.636 -0.4269  0.6226 -0.0923
 9680TIP3    H150455   1.101   4.947  13.717  0.3921  2.5357 -0.1558
 9680TIP3    H250456   0.990   5.032  13.659 -0.8758  0.4916 -0.8656
 9681TIP3   OH250457   2.561   2.649  13.774 -0.0944  0.7268 -0.2406
 9681TIP3    H150458   2.610   2.716  13.726  2.6981  0.2059  1.6148
 9681TIP3    H250459   2.576   2.568  13.723 -0.6640  0.9038 -0.6974
 9682TIP3   OH250460   3.411   0.485  11.374 -0.0402 -0.0293  0.4772
 9682TIP3    H150461   3.408   0.559  11.434 -1.2163 -0.8099  1.4274
 9682TIP3    H250462   3.498   0.490  11.334  0.6422  0.7262  1.9748
 9683TIP3   OH250463   6.366   4.360   4.134 -0.3695  0.4192  0.4159
 9683TIP3    H150464   6.420   4.323   4.064 -0.7523 -1.3275  0.9790
 9683TIP3    H250465   6.282   4.314   4.125 -0.6298  0.6344  1.6129
 9684TIP3   OH250466   4.239   5.997   1.623 -0.2717  1.0482 -0.0715
 9684TIP3    H150467   4.270   5.913   1.654 -1.6125 -0.1397 -1.7114
 9684TIP3    H250468   4.307   6.028   1.563 -0.2768  0.5967 -0.3092
 9685TIP3   OH250469   1.328   2.703   5.692  0.4569 -0.2139 -0.0495
 9685TIP3    H150470   1.392   2.726   5.760  0.7143  0.8543 -0.6369
 9685TIP3    H250471   1.244   2.729   5.727  0.5459 -0.0218  0.0209
 9686TIP3   OH250472   5.752   7.063  10.524 -0.0338 -0.5569 -0.1910
 9686TIP3    H150473   5.817   7.019  10.579  0.8128  1.2299  0.3239
 9686TIP3    H250474   5.795   7.145  10.498 -1.3533 -0.2480 -1.5021
 9687TIP3   OH250475   2.580   1.153  10.335 -0.3061 -0.4209 -0.0105
 9687TIP3    H150476   2.674   1.156  10.320 -0.2558  0.1794  0.3837
 9687TIP3    H250477   2.561   1.233  10.383 -0.6545 -1.6481  2.0058
 9688TIP3   OH250478   4.955   0.732   2.124  0.0392 -0.1459  0.1930
 9688TIP3    H150479   5.018   0.770   2.062 -0.1638 -0.1403 -0.0135
 9688TIP3    H250480   4.870   0.759   2.089 -0.1186 -0.9811 -0.0798
 9689TIP3   OH250481   6.372   5.128   3.913 -0.4394 -0.8412 -0.4140
 9689TIP3    H150482   6.331   5.095   3.833  2.6477 -1.3398 -1.9374
 9689TIP3    H250483   6.456   5.083   3.917 -0.5781 -1.0346  3.3292
 9690TIP3   OH250484   0.421   4.281   3.908  0.7965  0.2252 -0.6733
 9690TIP3    H150485   0.390   4.245   3.992  1.4984 -2.3490 -1.4307
 9690TIP3    H250486   0.363   4.355   3.891  0.1044  0.3142  1.6658
 9691TIP3   OH250487   0.900   0.534   4.133  0.1762 -0.2333  0.5856
 9691TIP3    H150488   0.977   0.490   4.169 -0.7457 -0.9353  1.7887
 9691TIP3    H250489   0.905   0.623   4.167  0.2914 -0.3641  0.9135
 9692TIP3   OH250490   1.149   0.452   0.058  0.1010  0.4357  0.0223
 9692TIP3    H150491   1.159   0.407  -0.026 -0.5446  1.0040 -0.3646
 9692TIP3    H250492   1.055   0.462   0.070  0.1827  0.3455  0.8310
 9693TIP3   OH250493   5.486   2.987  14.131  0.2074  0.3193  0.7243
 9693TIP3    H150494   5.447   2.930  14.064  0.0330 -0.2910  1.3279
 9693TIP3    H250495   5.470   3.076  14.100 -1.6190  0.0931  0.8978
 9694TIP3   OH250496   5.032   6.780  12.039  0.0918 -0.5088  0.5395
 9694TIP3    H150497   5.071   6.840  11.976 -1.6110 -0.4119 -0.4808
 9694TIP3    H250498   5.011   6.834  12.114 -1.2318  0.1842 -0.2901
 9695TIP3   OH250499   0.203   1.987   1.063 -0.0866 -0.2442  0.4544
 9695TIP3    H150500   0.235   1.916   1.118 -0.3328 -0.7761 -0.0853
 9695TIP3    H250501   0.110   1.967   1.048 -0.7519  1.3066  2.0458
 9696TIP3   OH250502   5.099   3.225   0.847  0.1387 -0.2654 -0.0082
 9696TIP3    H150503   5.012   3.197   0.877  1.1804 -0.5170  3.1954
 9696TIP3    H250504   5.090   3.318   0.829 -0.7712 -0.2556  0.4360
 9697TIP3   OH250505   6.603   4.183   1.282 -0.3040  0.8302 -0.4110
 9697TIP3    H150506   6.539   4.114   1.264 -1.0169  1.5799 -0.8325
 9697TIP3    H250507   6.628   4.171   1.373  0.2746 -0.5383 -0.7268
 9698TIP3   OH250508   3.944   1.329  13.825  0.2077 -0.5585 -0.1434
 9698TIP3    H150509   3.997   1.339  13.745  0.0559  1.7693 -0.0427
 9698TIP3    H250510   3.966   1.242  13.858  1.9569 -0.7105 -1.5422
 9699TIP3   OH250511   2.292   0.802   1.103 -0.0156  0.0012 -0.0394
 9699TIP3    H150512   2.271   0.799   1.197  0.2028  1.1898  0.0604
 9699TIP3    H250513   2.270   0.715   1.071  2.8601 -1.5470  1.7388
 9700TIP3   OH250514   7.135   4.983  10.596  0.3978 -0.3451  0.2894
 9700TIP3    H150515   7.160   4.937  10.676  1.5165  0.4766  0.4320
 9700TIP3    H250516   7.184   4.938  10.526 -0.1445 -0.7075  0.1393
 9701TIP3   OH250517   6.128   3.351  11.144  0.5927 -0.0949  0.3358
 9701TIP3    H150518   6.198   3.329  11.206  0.4073 -2.0420 -0.0730
 9701TIP3    H250519   6.122   3.275  11.086 -1.4202  0.2775 -0.0398
 9702TIP3   OH250520   0.863   4.053  12.700  0.2525 -0.7763 -0.2546
 9702TIP3    H150521   0.767   4.060  12.703  0.2418 -0.7772 -0.5847
 9702TIP3    H250522   0.892   4.136  12.662  0.3316 -1.1248 -0.9627
 9703TIP3   OH250523   4.277   5.745   1.709 -0.5184  0.7700 -0.2415
 9703TIP3    H150524   4.347   5.721   1.769  0.2168  2.2410 -0.4444
 9703TIP3    H250525   4.197   5.714   1.751  0.1678 -0.1158  0.4465
 9704TIP3   OH250526   3.330   5.663  14.482  0.1112 -0.1139  0.4235
 9704TIP3    H150527   3.386   5.712  14.422  1.1870 -0.9118  0.7454
 9704TIP3    H250528   3.244   5.663  14.440  0.3464  1.0894 -0.1082
 9705TIP3   OH250529   6.915   6.252  13.640 -0.3166  0.1130 -0.2662
 9705TIP3    H150530   6.897   6.158  13.632  0.2297 -0.0652  0.5023
 9705TIP3    H250531   6.963   6.260  13.723 -0.1536  1.0399 -0.4454
 9706TIP3   OH250532   6.118   4.283  14.067  0.2362 -0.7012 -0.0273
 9706TIP3    H150533   6.115   4.372  14.032  0.8489  0.8031  3.3329
 9706TIP3    H250534   6.185   4.239  14.014  0.2067  0.9433 -1.5161
 9707TIP3   OH250535   3.718   4.587  11.921 -0.6450 -0.0600  0.7242
 9707TIP3    H150536   3.802   4.630  11.911 -0.5887 -0.4616 -0.7541
 9707TIP3    H250537   3.727   4.535  12.001  1.1491 -1.4928 -0.3353
 9708TIP3   OH250538   0.914   2.057  12.094 -0.1519  0.1835  0.2809
 9708TIP3    H150539   0.927   2.145  12.129 -2.5134  0.4484  0.6182
 9708TIP3    H250540   0.888   2.005  12.169  0.9580 -0.7636  0.0270
 9709TIP3   OH250541   2.105   1.049   3.111  0.6616 -0.3183 -0.6061
 9709TIP3    H150542   2.169   0.997   3.159  1.0376  0.0494 -0.7086
 9709TIP3    H250543   2.058   0.985   3.057  1.4387 -0.4916 -1.0880
 9710TIP3   OH250544   5.652   1.774  12.728 -0.4563  0.0179 -0.0185
 9710TIP3    H150545   5.597   1.736  12.797  0.4989  1.2795  1.5014
 9710TIP3    H250546   5.633   1.720  12.651 -2.0126 -1.0751  1.0505
 9711TIP3   OH250547   5.296   6.813   1.652 -0.1241 -0.1767 -0.6060
 9711TIP3    H150548   5.358   6.846   1.587 -1.0781  1.5705 -0.7077
 9711TIP3    H250549   5.292   6.882   1.718  0.0254 -1.4538  0.8036
 9712TIP3   OH250550   1.048   3.523   1.555 -0.2586  0.2173 -0.1496
 9712TIP3    H150551   1.135   3.548   1.586 -0.3700 -0.5056  0.7762
 9712TIP3    H250552   1.021   3.451   1.612 -1.8739  1.0626  0.2394
 9713TIP3   OH250553   5.516   4.787  13.712  0.0269  0.0056 -0.0420
 9713TIP3    H150554   5.551   4.851  13.650  1.4498  0.1616  0.8603
 9713TIP3    H250555   5.575   4.711  13.703  0.0643 -0.0876  0.8659
 9714TIP3   OH250556   1.956   0.197   4.714  0.1128  0.6053 -0.4506
 9714TIP3    H150557   2.031   0.138   4.705  1.1031  1.8674 -0.6492
 9714TIP3    H250558   1.899   0.153   4.778  0.7647 -0.6160 -0.6760
 9715TIP3   OH250559   4.789   5.302  14.831  0.4059  0.0542  0.4786
 9715TIP3    H150560   4.725   5.240  14.797  0.2997 -0.4210  1.4909
 9715TIP3    H250561   4.874   5.268  14.801  0.1820  1.1251 -1.5441
 9716TIP3   OH250562   5.577   0.460   4.035  0.0780 -0.0863  0.0316
 9716TIP3    H150563   5.662   0.458   3.990 -1.0227 -0.1671 -2.2107
 9716TIP3    H250564   5.534   0.378   4.008 -1.0285  0.3441  0.4230
 9717TIP3   OH250565   0.345   2.439   1.513 -0.2756  0.1477 -0.1066
 9717TIP3    H150566   0.438   2.418   1.517 -0.7198 -1.9678  0.0468
 9717TIP3    H250567   0.339   2.505   1.444  1.1111 -1.1129 -1.5023
 9718TIP3   OH250568   2.634   0.505  14.015 -0.1152  0.2242  0.2867
 9718TIP3    H150569   2.643   0.546  13.929 -0.3379 -1.1494 -0.4204
 9718TIP3    H250570   2.666   0.571  14.076 -0.8503  1.5904 -0.7539
 9719TIP3   OH250571   1.258   4.445   1.249  0.1707  0.1223 -0.1608
 9719TIP3    H150572   1.269   4.371   1.309 -0.3274  0.7240  0.7044
 9719TIP3    H250573   1.163   4.461   1.248  0.0975 -0.2686 -1.6188
 9720TIP3   OH250574   3.619   1.418   3.981 -0.0667  0.3777 -0.6357
 9720TIP3    H150575   3.595   1.421   3.888 -0.6842  4.9700 -0.5499
 9720TIP3    H250576   3.553   1.471   4.025  0.7592 -0.8569  2.3611
 9721TIP3   OH250577   2.196   7.064   2.640  0.0380 -0.0479 -0.3485
 9721TIP3    H150578   2.269   7.016   2.600  0.1131  0.0409 -0.3173
 9721TIP3    H250579   2.227   7.154   2.648  1.4528 -0.6825  3.2487
 9722TIP3   OH250580   5.356   6.804  11.441  0.0133  0.0647  0.1208
 9722TIP3    H150581   5.397   6.753  11.511 -1.0014  2.9012  3.0159
 9722TIP3    H250582   5.369   6.751  11.362  1.5073 -3.1947  2.3381
 9723TIP3   OH250583   3.017   3.147  15.402 -0.2597 -0.3992  0.3953
 9723TIP3    H150584   3.110   3.141  15.424 -0.4321 -0.5648  1.1042
 9723TIP3    H250585   3.009   3.229  15.353  0.3472 -0.6516 -0.1349
 9724TIP3   OH250586   6.317   1.433  13.759 -0.0232 -0.4294  0.1506
 9724TIP3    H150587   6.374   1.425  13.683  0.5009  1.4411  0.3188
 9724TIP3    H250588   6.376   1.429  13.834  0.1320  2.5442  0.3086
 9725TIP3   OH250589   4.263   0.808  11.042 -0.0276  0.2506  0.2936
 9725TIP3    H150590   4.318   0.802  10.964 -0.5394  1.1189 -0.1424
 9725TIP3    H250591   4.306   0.750  11.105 -0.1472 -1.2570 -0.9373
 9726TIP3   OH250592   4.555   0.368   4.487  0.0371 -0.1147 -0.2448
 9726TIP3    H150593   4.538   0.288   4.438 -1.8266 -0.4148  0.7731
 9726TIP3    H250594   4.470   0.412   4.491  0.0886 -0.0780  2.5633
 9727TIP3   OH250595   4.469   1.565   2.460 -0.8365 -0.3333 -0.3237
 9727TIP3    H150596   4.405   1.558   2.389  0.1611  0.7365 -1.3808
 9727TIP3    H250597   4.434   1.632   2.518 -0.9453 -0.1468 -0.6036
 9728TIP3   OH250598   2.015   4.487  12.957  0.0491  0.0483  0.8348
 9728TIP3    H150599   1.968   4.496  12.874 -2.4531  0.6030  2.2272
 9728TIP3    H250600   2.105   4.510  12.935  0.2537 -2.9566 -2.3900
 9729TIP3   OH250601   0.044   6.917   0.978 -0.0329 -0.3073  0.0832
 9729TIP3    H150602   0.090   6.836   0.956  0.9705  0.3686 -0.3796
 9729TIP3    H250603   0.084   6.984   0.922  1.1686  1.0922  2.4815
 9730TIP3   OH250604   4.892   1.487  14.976  0.1623  0.3206 -0.4846
 9730TIP3    H150605   4.854   1.405  14.946 -0.4784  0.4584 -0.0745
 9730TIP3    H250606   4.877   1.548  14.904 -2.2515  0.9130  0.4150
 9731TIP3   OH250607   0.085   0.969  11.886  0.3657 -0.0061 -0.3180
 9731TIP3    H150608   0.071   1.023  11.964 -0.8155  0.0394 -0.5384
 9731TIP3    H250609   0.159   0.913  11.909  0.7862  0.8065  0.3943
 9732TIP3   OH250610   6.843   5.703   1.086  0.4955  0.0346  0.1510
 9732TIP3    H150611   6.762   5.664   1.053  0.8301  0.4093 -1.1382
 9732TIP3    H250612   6.886   5.632   1.134 -0.3377 -0.3114  0.4062
 9733TIP3   OH250613   2.516   2.701   1.970  0.0657 -0.5190  0.3502
 9733TIP3    H150614   2.563   2.664   2.044 -0.5997 -0.7011  0.6918
 9733TIP3    H250615   2.426   2.668   1.980 -0.2017  0.0555 -0.1181
 9734TIP3   OH250616   1.497   0.757  12.873  0.0595 -0.8399  0.3464
 9734TIP3    H150617   1.435   0.685  12.857 -0.9930  0.2874 -0.9578
 9734TIP3    H250618   1.579   0.727  12.834 -0.5450 -1.0789 -0.7848
 9735TIP3   OH250619   1.242   1.106  12.651 -0.7349 -0.9971  0.4374
 9735TIP3    H150620   1.333   1.078  12.667 -0.5952 -0.8070  0.0125
 9735TIP3    H250621   1.195   1.082  12.730  0.1869  1.0963  1.7007
 9736TIP3   OH250622   1.016   4.957   9.804 -0.1993  0.0590  0.0638
 9736TIP3    H150623   1.075   4.886   9.780 -1.6966 -1.6694  1.2549
 9736TIP3    H250624   1.011   5.011   9.725  3.1698  0.5093  0.0121
 9737TIP3   OH250625   4.887   5.798  14.438  0.0462  0.2324  0.5515
 9737TIP3    H150626   4.891   5.890  14.414  0.7292 -0.0277 -0.3978
 9737TIP3    H250627   4.978   5.774  14.454  0.0497 -0.5936 -0.5477
 9738TIP3   OH250628   2.973   5.811   1.847  0.0072  0.2243  0.1071
 9738TIP3    H150629   2.903   5.859   1.802 -0.1160  1.4887  1.5482
 9738TIP3    H250630   2.929   5.759   1.913  0.2995 -0.3370 -0.1363
 9739TIP3   OH250631   6.194   2.110  12.639 -0.3918 -0.0719  0.1309
 9739TIP3    H150632   6.130   2.114  12.568 -0.5113 -1.5006  0.1300
 9739TIP3    H250633   6.278   2.094  12.595 -0.8705 -4.1896  0.3549
 9740TIP3   OH250634   7.068   2.860  14.895  0.1383  0.2846  0.2690
 9740TIP3    H150635   7.147   2.865  14.840  0.5438  0.2717  0.8478
 9740TIP3    H250636   7.076   2.777  14.941  0.0615  0.5392  0.7423
 9741TIP3   OH250637   1.294   5.041  14.081 -0.3685  0.3286  0.1147
 9741TIP3    H150638   1.362   5.053  14.015 -0.8992  0.2449 -0.4608
 9741TIP3    H250639   1.298   5.120  14.135  2.8310 -1.3011  2.6106
 9742TIP3   OH250640   4.050   4.040   9.983 -0.3170  0.0482  0.0963
 9742TIP3    H150641   4.146   4.034   9.980 -0.2483 -1.0971  2.4525
 9742TIP3    H250642   4.022   3.999   9.901  1.1862  0.5128 -0.7038
 9743TIP3   OH250643   4.586   0.190  11.479  0.0138 -0.0616 -0.2019
 9743TIP3    H150644   4.634   0.273  11.481 -1.4573  0.8092  1.2046
 9743TIP3    H250645   4.606   0.148  11.563 -2.3908  0.8150  0.9008
 9744TIP3   OH250646   4.738   2.023  14.767 -0.3714 -0.5042  0.5968
 9744TIP3    H150647   4.785   2.106  14.775  0.1993 -0.7673  0.0819
 9744TIP3    H250648   4.799   1.958  14.803 -1.2850 -0.5611  2.1021
 9745TIP3   OH250649   5.835   4.806   1.556 -0.2062 -0.1072 -0.2657
 9745TIP3    H150650   5.829   4.726   1.608 -0.4893 -1.1249 -1.8109
 9745TIP3    H250651   5.814   4.876   1.618  1.5967 -1.0363  1.5045
 9746TIP3   OH250652   2.826   3.283   0.043 -0.7212 -0.8480  0.2396
 9746TIP3    H150653   2.892   3.230  -0.002 -1.2957 -2.1041  0.8404
 9746TIP3    H250654   2.750   3.283  -0.015 -0.4597  0.0080 -0.1253
 9747TIP3   OH250655   4.553   6.793  15.157  0.1181 -0.9245  0.3055
 9747TIP3    H150656   4.466   6.760  15.133 -0.8879  2.1261 -0.6323
 9747TIP3    H250657   4.537   6.856  15.227  1.5632 -0.2133  0.0325
 9748TIP3   OH250658   1.119   6.034   0.770 -0.2417 -0.5804  0.0824
 9748TIP3    H150659   1.182   5.965   0.791 -0.3969 -0.6174  0.4288
 9748TIP3    H250660   1.087   6.012   0.682  0.6258 -0.2687 -0.3246
 9749TIP3   OH250661   6.032   4.249   3.055  0.2742 -0.1154  0.4388
 9749TIP3    H150662   6.071   4.336   3.063  1.2944 -0.4892 -0.2785
 9749TIP3    H250663   6.091   4.201   2.997 -0.2096 -1.3331  0.9118
 9750TIP3   OH250664   3.589   5.245   0.823  0.3399 -0.2672 -0.4512
 9750TIP3    H150665   3.585   5.239   0.918  2.4737 -0.5932 -0.3324
 9750TIP3    H250666   3.521   5.185   0.792  0.9057 -1.6392  0.8730
 9751TIP3   OH250667   3.579   6.336  13.817 -0.2430  0.1299  0.4283
 9751TIP3    H150668   3.492   6.297  13.807  0.3779 -1.0281 -0.7538
 9751TIP3    H250669   3.563   6.430  13.815 -1.3053 -0.0084 -2.1050
 9752TIP3   OH250670   6.617   4.597   6.018  0.1739 -0.6011 -0.1319
 9752TIP3    H150671   6.691   4.541   6.044 -0.5748 -0.5473  2.4020
 9752TIP3    H250672   6.570   4.545   5.952  0.9773 -1.7884  0.1991
 9753TIP3   OH250673   4.862   3.169  12.880  0.6065  0.1578  0.1020
 9753TIP3    H150674   4.912   3.120  12.815  0.5916  0.5643 -0.2201
 9753TIP3    H250675   4.838   3.103  12.946 -1.3454 -0.7873 -1.4326
 9754TIP3   OH250676   6.984   2.855  10.213  0.3964  0.5798  0.3360
 9754TIP3    H150677   7.058   2.916  10.216 -1.2658  2.7362  0.0285
 9754TIP3    H250678   6.963   2.838  10.305  0.2762  1.2864  0.4466
 9755TIP3   OH250679   6.412   1.162  12.138  0.8623 -0.2887 -0.4364
 9755TIP3    H150680   6.329   1.136  12.098  0.0702  0.3745  0.7255
 9755TIP3    H250681   6.392   1.175  12.230  2.4040 -0.6979 -0.0099
 9756TIP3   OH250682   2.729   3.193   3.605  0.1828 -0.5088  0.2096
 9756TIP3    H150683   2.756   3.107   3.639  1.9604 -0.1259 -0.0955
 9756TIP3    H250684   2.811   3.243   3.600 -0.8614  1.3203  0.6479
 9757TIP3   OH250685   5.872   6.063   3.453  0.2540  0.3578 -0.0187
 9757TIP3    H150686   5.844   5.977   3.482 -0.9851  1.0582  0.9776
 9757TIP3    H250687   5.968   6.060   3.453  0.3231 -0.0720  3.0317
 9758TIP3   OH250688   4.863   2.477  14.288 -0.1762 -0.0223 -0.0057
 9758TIP3    H150689   4.907   2.525  14.358 -0.5309 -0.8268  0.7894
 9758TIP3    H250690   4.921   2.403  14.269 -1.4328 -1.5019  1.5533
 9759TIP3   OH250691   2.299   5.680  13.754  0.0545  0.0205 -0.1171
 9759TIP3    H150692   2.216   5.725  13.768 -1.0987 -2.1885  0.5518
 9759TIP3    H250693   2.359   5.720  13.817 -0.5360  1.4720 -0.4393
 9760TIP3   OH250694   0.605   7.081  13.787 -0.2314  0.6520 -0.4581
 9760TIP3    H150695   0.547   7.153  13.811  1.2882  1.6345  0.3318
 9760TIP3    H250696   0.632   7.042  13.870 -1.1826 -0.9943 -0.8735
 9761TIP3   OH250697   4.746   4.200   3.021  0.2269  0.2776  0.2177
 9761TIP3    H150698   4.735   4.293   3.040 -1.3516  0.2961 -0.6374
 9761TIP3    H250699   4.782   4.163   3.102 -0.5882  1.3569  1.1060
 9762TIP3   OH250700   2.939   0.143   4.030 -0.5111 -0.1630 -0.4230
 9762TIP3    H150701   2.872   0.203   3.996 -0.1207  0.3929 -0.2272
 9762TIP3    H250702   2.964   0.180   4.115 -1.2329 -1.3539  0.3382
 9763TIP3   OH250703   6.733   2.295   2.705  0.6069 -0.0355  0.2150
 9763TIP3    H150704   6.755   2.387   2.687  2.0860 -0.6200 -1.1816
 9763TIP3    H250705   6.719   2.257   2.618 -0.0616 -1.1307  0.7844
 9764TIP3   OH250706   2.168   3.120   2.289  0.5221  0.5358 -0.1405
 9764TIP3    H150707   2.238   3.085   2.344  1.2311 -0.4849 -1.6287
 9764TIP3    H250708   2.096   3.135   2.350  1.6511  0.5856  1.2573
 9765TIP3   OH250709   2.866   2.140  14.897  0.0417  0.7163  0.3470
 9765TIP3    H150710   2.893   2.148  14.805  1.5212  1.0599  0.7891
 9765TIP3    H250711   2.882   2.226  14.935  1.9640 -0.0912  1.5392
 9766TIP3   OH250712   4.113   0.316   1.462 -0.3366 -0.1032 -0.0026
 9766TIP3    H150713   4.121   0.314   1.367 -0.1964 -2.7831 -0.0217
 9766TIP3    H250714   4.179   0.379   1.491  0.5727 -0.2528 -1.6264
 9767TIP3   OH250715   2.673   4.840   5.943 -0.3145 -1.0280  0.3350
 9767TIP3    H150716   2.728   4.783   5.997 -1.3411  0.4531  3.1925
 9767TIP3    H250717   2.733   4.878   5.879  1.1387 -2.4569  0.7980
 9768TIP3   OH250718   0.885   2.228   0.429  0.0735 -0.7931  0.4028
 9768TIP3    H150719   0.813   2.165   0.424  0.0824 -0.7729 -0.0691
 9768TIP3    H250720   0.926   2.223   0.343 -0.5671  0.5966 -0.0091
 9769TIP3   OH250721   3.525   4.943  15.206 -0.6307  0.0025  0.4922
 9769TIP3    H150722   3.430   4.929  15.208 -0.5941 -0.7461 -1.1165
 9769TIP3    H250723   3.550   4.953  15.298 -2.1695 -0.4468  0.9928
 9770TIP3   OH250724   4.931   7.075  10.851  0.2899 -0.2973 -0.2249
 9770TIP3    H150725   4.891   7.025  10.780  2.8917 -0.4089 -1.7489
 9770TIP3    H250726   4.994   7.133  10.807  0.6131  1.0534  1.8632
 9771TIP3   OH250727   6.191   5.857  14.649  0.5333  0.2307  0.6091
 9771TIP3    H150728   6.127   5.890  14.713  1.6699 -0.9077  2.4241
 9771TIP3    H250729   6.268   5.913  14.660  0.1302  1.2276 -1.1622
 9772TIP3   OH250730   3.728   2.123   1.646 -1.0844 -0.0924  0.0176
 9772TIP3    H150731   3.739   2.169   1.562 -0.9207 -2.8814 -1.6296
 9772TIP3    H250732   3.672   2.049   1.624  1.4223 -2.6464  1.6415
 9773TIP3   OH250733   6.500   4.270   0.788 -0.1818 -0.3578  0.9922
 9773TIP3    H150734   6.500   4.270   0.884 -0.4468 -2.5594  1.0438
 9773TIP3    H250735   6.579   4.221   0.764  0.3027  0.8435  0.0395
 9774TIP3   OH250736   0.945   4.076  14.550  0.0215 -0.0169  0.2129
 9774TIP3    H150737   0.866   4.052  14.599  1.0423 -0.9433  1.4863
 9774TIP3    H250738   0.968   4.163  14.582 -0.8673  0.5793 -0.7078
 9775TIP3   OH250739   0.604   0.453   2.681 -0.0834  0.1414  0.2489
 9775TIP3    H150740   0.597   0.517   2.752  4.0916  2.3506 -1.0378
 9775TIP3    H250741   0.566   0.497   2.605 -0.8552 -0.6002  0.1867
 9776TIP3   OH250742   6.048   5.105  14.832  0.4922  0.2437 -0.5446
 9776TIP3    H150743   6.054   5.152  14.916 -0.0374  2.6167 -1.7386
 9776TIP3    H250744   5.998   5.164  14.776  0.4182 -1.4994 -2.4152
 9777TIP3   OH250745   6.253   6.712  13.914  0.0772  0.1973  0.3102
 9777TIP3    H150746   6.179   6.653  13.929  1.6051 -2.1139 -0.6172
 9777TIP3    H250747   6.246   6.734  13.821  1.3117 -1.2523 -0.1648
 9778TIP3   OH250748   6.533   2.292   2.273 -0.0248 -0.4258 -0.0896
 9778TIP3    H150749   6.561   2.240   2.197  0.4734  0.1917 -0.3323
 9778TIP3    H250750   6.453   2.248   2.303 -0.8177 -0.0846 -1.6011
 9779TIP3   OH250751   4.348   0.192   1.013  0.4586  0.1981 -0.5908
 9779TIP3    H150752   4.303   0.258   1.067 -1.1464  0.7389 -2.4906
 9779TIP3    H250753   4.281   0.127   0.993  1.9246 -1.9154  0.9224
 9780TIP3   OH250754   1.848   0.258  13.569  0.6252  0.1089  0.4537
 9780TIP3    H150755   1.784   0.206  13.617 -1.2283  1.5713 -0.3315
 9780TIP3    H250756   1.860   0.336  13.623 -0.2912  1.0440 -0.6534
 9781TIP3   OH250757   1.081   5.938   1.375 -0.1160  0.4590  0.4534
 9781TIP3    H150758   1.162   5.891   1.396 -0.7491 -0.1255  1.6593
 9781TIP3    H250759   1.097   5.976   1.288  1.0748 -0.4759  0.2431
 9782TIP3   OH250760   0.890   6.174   2.082  0.3091 -0.0160 -0.0201
 9782TIP3    H150761   0.914   6.121   2.158 -0.4465  0.8507  0.8458
 9782TIP3    H250762   0.897   6.264   2.113 -1.5410  0.3213 -0.4791
 9783TIP3   OH250763   6.592   3.438   0.534 -0.0070  0.0571  0.1065
 9783TIP3    H150764   6.587   3.521   0.581  1.8002  0.9519 -1.1350
 9783TIP3    H250765   6.550   3.455   0.449 -1.7479 -1.0446  0.6864
 9784TIP3   OH250766   2.951   3.707   4.416  0.5031 -0.0810  0.1165
 9784TIP3    H150767   2.918   3.731   4.329  2.1475  0.6350 -0.3507
 9784TIP3    H250768   2.934   3.785   4.470 -0.4707 -0.5062  0.4437
 9785TIP3   OH250769   2.329   1.881  11.508 -0.1368  0.0669 -0.2506
 9785TIP3    H150770   2.374   1.964  11.526 -1.8453  0.8378  0.7886
 9785TIP3    H250771   2.397   1.814  11.518  1.1469  1.2871 -0.4779
 9786TIP3   OH250772   6.807   0.854  12.005  0.2808 -0.8027 -0.4601
 9786TIP3    H150773   6.810   0.933  11.950 -1.1940 -0.1916  0.2807
 9786TIP3    H250774   6.837   0.884  12.090  0.8498 -1.3367 -0.4669
 9787TIP3   OH250775   4.017   3.160   3.270 -0.1211  0.1386 -0.4820
 9787TIP3    H150776   3.928   3.145   3.303  0.3206  1.7484  1.6615
 9787TIP3    H250777   4.032   3.253   3.286  2.2273 -0.2668 -0.0907
 9788TIP3   OH250778   2.371   1.071   1.685 -0.9027  0.2683 -0.1754
 9788TIP3    H150779   2.421   1.012   1.628 -1.7520  0.0084 -0.6648
 9788TIP3    H250780   2.300   1.017   1.719 -0.4629  0.4465  1.0863
 9789TIP3   OH250781   3.131   4.460   3.773  0.5561 -0.4442 -0.3574
 9789TIP3    H150782   3.205   4.451   3.832  0.3273  0.1454  0.0240
 9789TIP3    H250783   3.141   4.388   3.711  1.2972 -0.5228 -0.1512
 9790TIP3   OH250784   5.573   5.154   2.723 -0.3009 -0.1175  0.3926
 9790TIP3    H150785   5.632   5.230   2.720 -1.1468  0.6373  1.8023
 9790TIP3    H250786   5.579   5.123   2.813 -2.5041  0.3736  0.7728
 9791TIP3   OH250787   5.043   6.492   0.681  0.5555  0.1818  0.0107
 9791TIP3    H150788   5.071   6.583   0.669  0.4077  0.3926  1.1695
 9791TIP3    H250789   5.111   6.452   0.736 -0.7997  0.4218  1.9929
 9792TIP3   OH250790   2.037   5.752  13.173 -0.0400  0.0006 -0.0773
 9792TIP3    H150791   2.019   5.781  13.083  1.6451 -0.4388 -0.5976
 9792TIP3    H250792   2.063   5.832  13.219 -0.4893  0.1561 -0.0889
 9793TIP3   OH250793   5.529   1.975   4.535 -0.1203  0.2026 -0.7793
 9793TIP3    H150794   5.559   2.036   4.467 -0.3039  1.1334 -0.0458
 9793TIP3    H250795   5.472   2.028   4.591  1.2922 -0.1054  1.0337
 9794TIP3   OH250796   1.849   1.915  11.295  0.1346 -0.4272  0.2117
 9794TIP3    H150797   1.895   1.934  11.214  0.2484 -1.0918  0.1188
 9794TIP3    H250798   1.913   1.933  11.364  0.1653 -0.2466  0.1356
 9795TIP3   OH250799   0.885   0.069  12.186 -0.0597  0.0432  0.0835
 9795TIP3    H150800   0.845   0.149  12.151  0.0895  1.0707  2.1187
 9795TIP3    H250801   0.978   0.080  12.169  0.2003  1.2489  1.9857
 9796TIP3   OH250802   1.070   2.121   3.129  1.0636  0.1201  0.5398
 9796TIP3    H150803   1.083   2.166   3.046 -0.6012 -0.4342 -0.0583
 9796TIP3    H250804   1.046   2.190   3.191  0.5253  0.3181  0.1179
 9797TIP3   OH250805   0.978   3.184  13.361 -0.2162  0.3578 -0.2623
 9797TIP3    H150806   0.996   3.251  13.427 -0.2320 -0.0635  0.1766
 9797TIP3    H250807   1.051   3.122  13.371 -2.6106 -2.3253  2.7283
 9798TIP3   OH250808   4.150   2.667   1.251 -0.7128 -0.0114 -0.3790
 9798TIP3    H150809   4.119   2.756   1.238  0.1352  0.1775 -1.2165
 9798TIP3    H250810   4.070   2.616   1.264 -1.1967  0.8797  0.3043
 9799TIP3   OH250811   6.100   6.506   0.527 -0.1602  0.2560  0.0732
 9799TIP3    H150812   6.129   6.579   0.472 -0.8519  1.0296  0.6946
 9799TIP3    H250813   6.179   6.473   0.569  0.2061  0.4310 -0.4798
 9800TIP3   OH250814   3.703   3.997   3.401  0.1232 -0.5119 -0.0766
 9800TIP3    H150815   3.760   3.957   3.335  0.2181 -0.6649  0.0973
 9800TIP3    H250816   3.743   3.973   3.485  1.6170  2.0012  0.0371
 9801TIP3   OH250817   6.139   0.831   2.760 -0.1237  0.3640 -0.5075
 9801TIP3    H150818   6.193   0.752   2.757  0.0917  0.3813  1.7014
 9801TIP3    H250819   6.062   0.809   2.708  0.2259 -1.0725 -0.4617
 9802TIP3   OH250820   4.315   6.670  15.087 -0.2339 -0.8381 -0.5356
 9802TIP3    H150821   4.222   6.677  15.062 -0.4593 -2.7434 -0.3833
 9802TIP3    H250822   4.351   6.606  15.026  0.2803 -2.2549  1.1701
 9803TIP3   OH250823   7.021   1.622   2.645  0.0266 -0.3818 -0.2149
 9803TIP3    H150824   6.972   1.645   2.724  0.0429 -0.7421 -0.0976
 9803TIP3    H250825   7.112   1.615   2.675  0.4174  1.8094 -0.7263
 9804TIP3   OH250826   3.481   1.403  15.110  0.3031 -0.0295 -0.1040
 9804TIP3    H150827   3.490   1.485  15.158 -0.0537 -0.4168  0.6448
 9804TIP3    H250828   3.536   1.341  15.158 -1.1886 -0.7936  0.7179
 9805TIP3   OH250829   2.366   0.985   4.802 -0.2486  0.2447  0.0489
 9805TIP3    H150830   2.292   1.045   4.811  0.3202  1.1080 -0.8035
 9805TIP3    H250831   2.387   0.959   4.891 -2.9728 -1.7991  0.2145
 9806TIP3   OH250832   2.868   2.719   2.838  0.1473 -1.5661 -0.0151
 9806TIP3    H150833   2.902   2.808   2.831 -1.3533 -0.8859  0.6812
 9806TIP3    H250834   2.940   2.668   2.874  1.3164 -0.8414 -1.2281
 9807TIP3   OH250835   3.057   3.525   4.114  0.0528 -0.0294  0.8903
 9807TIP3    H150836   3.064   3.447   4.059  1.5480 -0.6015  1.8452
 9807TIP3    H250837   3.032   3.491   4.200  0.7649  0.5329  1.3256
 9808TIP3   OH250838   2.259   2.879  12.579  0.0492  0.7193 -0.0170
 9808TIP3    H150839   2.252   2.974  12.590 -3.0291  0.6553 -0.3984
 9808TIP3    H250840   2.185   2.844  12.629  2.0046 -1.6751  1.4427
 9809TIP3   OH250841   3.939   1.014   0.627 -0.3425 -0.2450 -0.0644
 9809TIP3    H150842   3.949   1.062   0.545 -0.4798  0.1182  0.1285
 9809TIP3    H250843   4.000   0.940   0.620  0.4581  0.3968 -0.0444
 9810TIP3   OH250844   1.743   3.855   3.138 -0.1757 -0.0081 -0.4687
 9810TIP3    H150845   1.725   3.937   3.185  0.5993 -0.0212 -0.1413
 9810TIP3    H250846   1.663   3.804   3.147  0.0584 -0.1391  1.1088
 9811TIP3   OH250847   5.673   5.933  10.834 -0.1624 -0.0720 -0.1638
 9811TIP3    H150848   5.739   5.918  10.902  0.6835 -0.1057 -0.9658
 9811TIP3    H250849   5.643   5.845  10.810 -0.2668 -0.0761 -0.0155
 9812TIP3   OH250850   2.612   1.019   3.963 -0.2264 -0.3952  0.1398
 9812TIP3    H150851   2.674   1.086   3.935 -2.8360  1.2243 -2.3899
 9812TIP3    H250852   2.595   0.968   3.884 -1.7637 -1.0278  0.8470
 9813TIP3   OH250853   6.435   4.280  14.632  0.4507  0.3855 -0.3515
 9813TIP3    H150854   6.511   4.337  14.648  0.7610  0.5014 -2.1039
 9813TIP3    H250855   6.360   4.329  14.666  1.1333  0.2401  1.4679
 9814TIP3   OH250856   7.076   2.859   0.386  0.0144 -0.1428  0.0501
 9814TIP3    H150857   7.035   2.831   0.468  1.1212  0.2365  0.7683
 9814TIP3    H250858   7.004   2.889   0.331 -0.8052 -0.9321  0.6691
 9815TIP3   OH250859   2.759   0.191  12.226 -0.0554 -0.2480 -0.1035
 9815TIP3    H150860   2.771   0.098  12.246 -1.3830 -0.5761 -0.7567
 9815TIP3    H250861   2.716   0.192  12.140 -0.1319  0.9734 -0.0697
 9816TIP3   OH250862   2.115   5.408   1.628 -0.1032 -0.4525  1.0121
 9816TIP3    H150863   2.198   5.427   1.585 -0.9881 -0.3311 -0.7395
 9816TIP3    H250864   2.087   5.491   1.665  0.5365 -0.4926  1.6006
 9817TIP3   OH250865   0.070   6.213  14.128 -0.1750 -0.2953  0.1111
 9817TIP3    H150866   0.133   6.275  14.091  0.5307 -0.3513  1.1565
 9817TIP3    H250867   0.002   6.269  14.166  0.7592 -0.0921  1.5775
 9818TIP3   OH250868   2.212   2.551  15.373  0.4854 -0.8265  0.0503
 9818TIP3    H150869   2.256   2.473  15.339  0.6564 -0.5790 -0.3029
 9818TIP3    H250870   2.139   2.518  15.424  0.6169 -1.2210 -0.0191
 9819TIP3   OH250871   5.008   5.319   0.917  0.5402  0.4386  0.0583
 9819TIP3    H150872   5.078   5.335   0.980  0.3772  0.6611  0.1865
 9819TIP3    H250873   4.961   5.243   0.950  0.8429  0.1686 -0.1341
 9820TIP3   OH250874   5.931   1.154   2.664 -0.5166  0.8209 -0.0055
 9820TIP3    H150875   5.953   1.091   2.595 -0.2402  1.5125 -0.5552
 9820TIP3    H250876   5.951   1.107   2.746 -0.5117  0.1225 -0.3962
 9821TIP3   OH250877   6.108   4.423  10.433 -0.1861 -0.1155  1.0553
 9821TIP3    H150878   6.019   4.439  10.464 -1.1507  3.2340 -2.5188
 9821TIP3    H250879   6.096   4.378  10.349  1.7154 -1.8075  1.6132
 9822TIP3   OH250880   5.757   2.762  10.609  0.1077  0.0159  0.5456
 9822TIP3    H150881   5.745   2.844  10.561  0.6604 -1.5611 -2.6124
 9822TIP3    H250882   5.850   2.741  10.598 -0.5847 -2.5451 -1.7420
 9823TIP3   OH250883   6.546   0.628   1.647  0.0462 -0.3771  0.3969
 9823TIP3    H150884   6.572   0.583   1.567  0.3555 -0.4125  0.5162
 9823TIP3    H250885   6.612   0.697   1.659  0.0612 -0.4394  0.6789
 9824TIP3   OH250886   3.762   3.368  13.320 -0.3596  0.4218  0.1993
 9824TIP3    H150887   3.817   3.290  13.329 -0.2523  0.1298 -2.3203
 9824TIP3    H250888   3.810   3.424  13.260 -1.4205  1.5033  0.3345
 9825TIP3   OH250889   2.497   0.185  15.426  0.6136 -0.4491 -0.5642
 9825TIP3    H150890   2.445   0.261  15.400  2.3662  0.8385 -0.4952
 9825TIP3    H250891   2.506   0.133  15.346 -0.7006 -0.6907 -0.5821
 9826TIP3   OH250892   4.311   0.543  11.983  0.0100  0.7922  0.2855
 9826TIP3    H150893   4.387   0.543  12.042 -1.0764 -3.0396  2.0338
 9826TIP3    H250894   4.289   0.450  11.974 -2.8266  1.5798 -2.4238
 9827TIP3   OH250895   4.740   3.874   3.515  0.2536 -0.4391 -0.0030
 9827TIP3    H150896   4.783   3.822   3.447  0.1246  0.2145 -0.6070
 9827TIP3    H250897   4.690   3.811   3.567  0.7269 -1.0095 -0.2315
 9828TIP3   OH250898   0.617   6.446  13.182  0.1746  0.1237  0.6999
 9828TIP3    H150899   0.694   6.490  13.218 -0.6033  0.2023  2.3688
 9828TIP3    H250900   0.568   6.516  13.138  0.2453  0.4009  1.0571
 9829TIP3   OH250901   5.406   0.173   9.497 -0.3116 -0.1250  0.2790
 9829TIP3    H150902   5.435   0.101   9.442 -0.8992 -0.2478  0.1281
 9829TIP3    H250903   5.481   0.232   9.501  0.1293 -0.6823  0.3069
 9830TIP3   OH250904   4.070   6.479   1.480 -0.0793  0.0466 -0.0713
 9830TIP3    H150905   3.986   6.456   1.441  0.3330 -0.4739 -0.6671
 9830TIP3    H250906   4.122   6.513   1.407  1.1288 -2.0820 -0.2726
 9831TIP3   OH250907   3.809   1.189   3.368  0.3715 -0.3762 -0.6372
 9831TIP3    H150908   3.815   1.202   3.463 -1.1095  0.6054 -0.6471
 9831TIP3    H250909   3.900   1.184   3.339  0.8572 -0.3101  0.7877
 9832TIP3   OH250910   4.379   6.085  10.315  0.3094  0.5777  0.1019
 9832TIP3    H150911   4.445   6.147  10.284  1.7800 -0.3759  1.2236
 9832TIP3    H250912   4.351   6.038  10.236  1.1010  0.8618 -0.3530
 9833TIP3   OH250913   3.981   5.097   4.546  0.2316  0.5872  0.1235
 9833TIP3    H150914   3.897   5.087   4.590  0.0099  2.1268  0.1230
 9833TIP3    H250915   4.013   5.008   4.533 -2.0484 -0.1127 -1.1385
 9834TIP3   OH250916   6.092   4.641   4.300 -0.4421  0.4725 -0.2880
 9834TIP3    H150917   6.013   4.609   4.344 -1.3747 -0.4762 -2.5072
 9834TIP3    H250918   6.164   4.594   4.344 -1.3759 -0.8775 -0.1241
 9835TIP3   OH250919   2.529   5.992  14.212 -0.9570  0.1244 -0.3933
 9835TIP3    H150920   2.556   6.012  14.302 -2.8083  0.5818  0.1061
 9835TIP3    H250921   2.449   5.940  14.223 -1.8435  1.1441 -1.7701
 9836TIP3   OH250922   4.877   4.679   4.044  0.0663  0.0695  0.2010
 9836TIP3    H150923   4.849   4.766   4.017  0.2254  0.8438  2.3663
 9836TIP3    H250924   4.972   4.685   4.050 -0.0277  0.3446  2.0931
 9837TIP3   OH250925   7.034   0.500   9.413  0.1392 -0.0055  0.0726
 9837TIP3    H150926   6.964   0.511   9.477 -0.4478 -2.6607  0.0088
 9837TIP3    H250927   7.086   0.426   9.447  0.8305 -0.3535 -1.6364
 9838TIP3   OH250928   3.819   4.347   1.267 -0.3093 -0.4281  0.1663
 9838TIP3    H150929   3.727   4.367   1.288 -0.2606 -1.3033  1.3247
 9838TIP3    H250930   3.818   4.323   1.175 -1.3527 -0.9749  0.3018
 9839TIP3   OH250931   6.415   0.052   3.060  0.3086 -0.0360  0.3961
 9839TIP3    H150932   6.508   0.061   3.079  0.3118  1.2871 -0.1081
 9839TIP3    H250933   6.385  -0.019   3.116  1.8269 -1.1563 -0.1655
 9840TIP3   OH250934   6.548   5.717   0.092 -0.4833  0.5874 -0.7988
 9840TIP3    H150935   6.542   5.730   0.187  0.6519  1.2716 -0.7966
 9840TIP3    H250936   6.475   5.768   0.057 -0.0913  1.4942 -0.3526
 9841TIP3   OH250937   6.124   6.619  11.301 -0.2670 -0.6333  0.3098
 9841TIP3    H150938   6.043   6.654  11.263 -0.6426 -1.2002  0.5823
 9841TIP3    H250939   6.106   6.527  11.316  0.3274 -0.6990  0.6585
 9842TIP3   OH250940   6.056   0.679   1.138 -0.2649 -0.4374 -0.1108
 9842TIP3    H150941   6.138   0.629   1.132  0.4215  0.5261  0.8154
 9842TIP3    H250942   6.044   0.694   1.231 -0.0176  1.7729 -0.3789
 9843TIP3   OH250943   6.397   5.807   2.363  0.7187  0.0105  0.4481
 9843TIP3    H150944   6.412   5.713   2.374  0.1218 -0.3402 -1.3494
 9843TIP3    H250945   6.307   5.813   2.331  1.6199  0.9182 -2.1663
 9844TIP3   OH250946   2.688   5.643  14.812  0.5602 -0.4810  0.1185
 9844TIP3    H150947   2.730   5.636  14.898 -1.1633 -1.4077  0.9506
 9844TIP3    H250948   2.594   5.645  14.832  0.1677  1.5850 -1.6386
 9845TIP3   OH250949   2.623   7.014   0.261  0.0316 -1.0362 -0.2205
 9845TIP3    H150950   2.678   6.956   0.209  1.3559 -0.3722  0.3704
 9845TIP3    H250951   2.634   7.100   0.220 -1.1776 -1.0247 -0.5424
 9846TIP3   OH250952   0.383   3.852  14.806 -0.4379 -0.4046 -0.3109
 9846TIP3    H150953   0.422   3.937  14.789 -0.5729 -0.5277 -1.3136
 9846TIP3    H250954   0.428   3.793  14.745  0.1004 -1.1857  0.8019
 9847TIP3   OH250955   1.478   1.753  13.983  0.3166  0.1699  0.1578
 9847TIP3    H150956   1.421   1.741  13.906  0.9313 -0.6326 -0.1774
 9847TIP3    H250957   1.561   1.784  13.946  0.3074  0.7117  0.5900
 9848TIP3   OH250958   5.477   6.426  10.625  0.2876  0.1151 -0.1200
 9848TIP3    H150959   5.416   6.357  10.650  0.5629 -0.6732 -1.5136
 9848TIP3    H250960   5.424   6.488  10.574  0.3931  0.0565 -0.3026
 9849TIP3   OH250961   1.693   2.065  15.157  0.0123 -0.0005 -0.1104
 9849TIP3    H150962   1.657   1.977  15.167  3.9521 -1.7489  0.5896
 9849TIP3    H250963   1.747   2.060  15.078  1.2270  1.4074  0.5905
 9850TIP3   OH250964   4.662   2.339   5.393 -0.4119  0.3331  0.0112
 9850TIP3    H150965   4.679   2.359   5.485 -1.2648 -1.5430  0.6443
 9850TIP3    H250966   4.576   2.377   5.375 -0.9506 -0.6130  0.4896
 9851TIP3   OH250967   2.225   6.622   4.965  0.6118 -0.1953  0.2811
 9851TIP3    H150968   2.294   6.557   4.955 -0.6884 -1.4970 -0.6321
 9851TIP3    H250969   2.144   6.574   4.948 -0.4937  1.4053  0.7571
 9852TIP3   OH250970   4.923   3.667  12.646 -0.8167 -0.0133  0.5140
 9852TIP3    H150971   4.936   3.618  12.727  1.0062  0.8840  0.8211
 9852TIP3    H250972   4.848   3.723  12.663 -0.8596 -0.3238  1.3514
 9853TIP3   OH250973   7.048   3.975   0.960 -0.6618 -0.1508 -0.0572
 9853TIP3    H150974   6.973   4.034   0.956  0.9742  2.1606  0.6323
 9853TIP3    H250975   7.023   3.907   1.023 -1.5152  1.6680  1.6770
 9854TIP3   OH250976   2.820   4.179  11.635 -0.0929 -0.5069  0.3278
 9854TIP3    H150977   2.860   4.133  11.708 -1.6716 -1.0183  0.9086
 9854TIP3    H250978   2.790   4.110  11.576 -1.2918 -0.2080  0.5626
 9855TIP3   OH250979   0.500   0.923  14.166  0.1419  0.2642  0.0055
 9855TIP3    H150980   0.411   0.889  14.167 -0.0828  0.8311  1.2404
 9855TIP3    H250981   0.508   0.972  14.248  2.0708 -1.0745  0.7085
 9856TIP3   OH250982   3.332   2.694  14.929 -0.0895 -0.0891  0.0180
 9856TIP3    H150983   3.316   2.743  15.010 -0.1657  1.0107 -0.6563
 9856TIP3    H250984   3.402   2.633  14.952 -0.1309  0.1889  0.9225
 9857TIP3   OH250985   5.646   1.265   0.570  0.2332  0.2911  0.3386
 9857TIP3    H150986   5.613   1.319   0.498 -0.8066  1.8084  1.8658
 9857TIP3    H250987   5.632   1.175   0.540  0.3410  0.8420 -1.5500
 9858TIP3   OH250988   1.083   7.089   3.838 -0.1388 -0.4050 -0.4561
 9858TIP3    H150989   1.068   6.999   3.864 -0.2275 -0.0814  0.6585
 9858TIP3    H250990   1.178   7.100   3.839 -0.1466 -0.3456 -0.0574
 9859TIP3   OH250991   3.712   1.796   1.899 -0.8304 -0.1339 -0.1365
 9859TIP3    H150992   3.663   1.751   1.967  1.3712 -0.2960  1.4745
 9859TIP3    H250993   3.767   1.728   1.860 -1.3293  0.1657 -1.4194
 9860TIP3   OH250994   2.348   3.607   1.888 -0.0003 -0.0897 -0.1367
 9860TIP3    H150995   2.356   3.656   1.970 -0.3695  0.2438 -0.2988
 9860TIP3    H250996   2.324   3.672   1.823 -0.3916 -0.4680 -0.3747
 9861TIP3   OH250997   3.597   6.176  10.698  0.3397  0.3111 -0.1563
 9861TIP3    H150998   3.642   6.243  10.750  0.8969 -0.4323  0.3413
 9861TIP3    H250999   3.580   6.218  10.614  1.1754  0.8981 -0.0443
 9862TIP3   OH251000   1.232   1.859   5.871  0.3064  0.2299  0.3404
 9862TIP3    H151001   1.232   1.795   5.799 -0.7700  0.2346  0.3291
 9862TIP3    H251002   1.181   1.933   5.837  1.6642  1.1866  0.2981
 9863TIP3   OH251003   2.000   2.462   3.041 -0.0323 -0.1023  0.8090
 9863TIP3    H151004   2.096   2.467   3.047  0.0482  0.1710 -0.4533
 9863TIP3    H251005   1.977   2.524   2.972 -1.2119  0.4644  1.6928
 9864TIP3   OH251006   0.138   6.469   0.311 -0.2383  0.0958  0.9738
 9864TIP3    H151007   0.091   6.535   0.260  0.6081 -0.0371 -0.0152
 9864TIP3    H251008   0.090   6.387   0.294 -0.8360  0.3120  1.5910
 9865TIP3   OH251009   1.867   1.483   4.594 -0.0227 -0.0743  0.2506
 9865TIP3    H151010   1.809   1.550   4.558  0.2694 -1.0042 -2.1138
 9865TIP3    H251011   1.809   1.430   4.650 -0.3910  1.6793  1.6380
 9866TIP3   OH251012   3.050   6.676  14.666  0.0406  0.0894  0.0033
 9866TIP3    H151013   3.087   6.712  14.585  0.5307  2.5692  1.2307
 9866TIP3    H251014   2.960   6.708  14.669 -0.9234 -2.3367 -0.8552
 9867TIP3   OH251015   0.276   1.580  12.371  0.4420  0.3336  0.2276
 9867TIP3    H151016   0.298   1.503  12.424 -1.8605 -1.7295 -1.5580
 9867TIP3    H251017   0.331   1.573  12.293  1.1741  1.3007  0.6311
 9868TIP3   OH251018   5.182   6.542   4.636  0.3133 -0.3775 -0.0904
 9868TIP3    H151019   5.119   6.470   4.631 -0.1349  0.0349 -0.4434
 9868TIP3    H251020   5.142   6.606   4.695  0.0806  0.1924 -0.8493
 9869TIP3   OH251021   1.007   4.208   4.883  0.0089  0.3870  0.8321
 9869TIP3    H151022   0.992   4.206   4.978  0.5922 -2.0739  0.9491
 9869TIP3    H251023   0.990   4.118   4.855 -0.8131  1.2098 -1.5346
 9870TIP3   OH251024   6.590   5.414   0.384  0.1879  0.0319 -0.4898
 9870TIP3    H151025   6.624   5.329   0.358  0.7408  0.5831 -1.6286
 9870TIP3    H251026   6.509   5.394   0.432  1.0843 -1.1915  0.5914
 9871TIP3   OH251027   0.868   4.092  12.069  0.1725 -0.4638 -0.9036
 9871TIP3    H151028   0.778   4.090  12.102 -0.3440  1.8519 -1.9482
 9871TIP3    H251029   0.885   4.002  12.042 -1.6940 -1.0479 -0.3354
 9872TIP3   OH251030   0.368   4.782  15.181  0.0350 -0.4836 -0.0117
 9872TIP3    H151031   0.405   4.796  15.094  0.7667 -2.2233 -0.0114
 9872TIP3    H251032   0.403   4.855  15.234  0.7283 -0.2106 -0.8267
 9873TIP3   OH251033   4.111   4.417   0.120 -0.2466 -0.2118  0.2436
 9873TIP3    H151034   4.024   4.451   0.142 -0.5840 -0.7677 -0.1991
 9873TIP3    H251035   4.171   4.465   0.177 -0.5200  2.1726 -1.3511
 9874TIP3   OH251036   6.433   5.646   4.662  0.1058  0.5345  0.3782
 9874TIP3    H151037   6.347   5.682   4.683 -0.8178 -0.5397 -1.3364
 9874TIP3    H251038   6.454   5.589   4.736 -1.5166 -0.5975  0.0198
 9875TIP3   OH251039   6.345   0.025   2.012 -0.0615  0.0241 -0.4955
 9875TIP3    H151040   6.359  -0.035   1.939 -0.3818 -0.5647 -0.0881
 9875TIP3    H251041   6.407   0.096   1.997 -0.7490  0.3658 -1.8056
 9876TIP3   OH251042   3.946   3.201  10.277  0.1380  0.1340 -0.3707
 9876TIP3    H151043   3.961   3.134  10.344 -1.0754  1.9772  1.8669
 9876TIP3    H251044   3.855   3.189  10.252 -0.1778  1.1046  0.2718
 9877TIP3   OH251045   5.217   2.263  14.017 -0.5371  0.3374  0.0552
 9877TIP3    H151046   5.268   2.281  13.938  0.2227  1.4156  0.7652
 9877TIP3    H251047   5.282   2.261  14.087 -1.1547 -0.9686  0.6143
 9878TIP3   OH251048   5.319   5.262   5.179 -0.2776 -0.5823  0.1025
 9878TIP3    H151049   5.403   5.307   5.171 -0.5408 -0.4120 -2.0570
 9878TIP3    H251050   5.265   5.322   5.231 -0.0999  0.8911 -1.3271
 9879TIP3   OH251051   1.610   2.570  10.281 -0.9741  0.1543  1.1865
 9879TIP3    H151052   1.628   2.640  10.343 -1.3865  1.6624 -0.3430
 9879TIP3    H251053   1.575   2.614  10.204 -2.7920 -1.8788  0.7702
 9880TIP3   OH251054   4.585   4.784  13.687  0.0803  0.2936  0.2891
 9880TIP3    H151055   4.581   4.872  13.649 -0.3600 -0.0306 -0.4510
 9880TIP3    H251056   4.677   4.760  13.682  0.2485  0.8210  0.7590
 9881TIP3   OH251057   0.941   4.396   0.039 -0.0513  0.4921 -0.4870
 9881TIP3    H151058   1.006   4.411  -0.029 -1.6943 -2.4440 -2.9545
 9881TIP3    H251059   0.959   4.307   0.071  0.3784  1.5875  2.7697
 9882TIP3   OH251060   5.172   0.596   0.717  0.3183 -0.3375 -0.1789
 9882TIP3    H151061   5.153   0.554   0.801 -0.5615 -1.9801 -1.1223
 9882TIP3    H251062   5.086   0.618   0.681  0.4954 -1.6359 -1.5486
 9883TIP3   OH251063   5.403   4.363  14.433 -0.0995  0.0853  1.0065
 9883TIP3    H151064   5.439   4.428  14.373  0.1280 -0.2975  0.7239
 9883TIP3    H251065   5.448   4.378  14.516  0.9916 -0.6292  0.5597
 9884TIP3   OH251066   4.337   3.980  12.180 -0.0230 -0.2453  0.4256
 9884TIP3    H151067   4.265   4.029  12.219 -0.1219 -0.2645  0.2732
 9884TIP3    H251068   4.315   3.888  12.197 -1.2448 -0.4110 -1.5668
 9885TIP3   OH251069   2.764   1.623  13.127  0.3611  0.3064  0.0311
 9885TIP3    H151070   2.733   1.534  13.146  0.3542  0.5240  1.1101
 9885TIP3    H251071   2.805   1.616  13.041 -1.6100 -0.2540 -0.9174
 9886TIP3   OH251072   3.024   6.282  12.878 -0.7825  0.0220  0.2238
 9886TIP3    H151073   2.959   6.340  12.917 -1.5081 -0.3483 -0.4145
 9886TIP3    H251074   3.055   6.229  12.951  0.3974  1.6311  0.9694
 9887TIP3   OH251075   4.982   2.469  12.175  0.2425  0.2558  0.0087
 9887TIP3    H151076   5.065   2.485  12.219 -0.5259 -1.3095  2.2084
 9887TIP3    H251077   4.917   2.510  12.232 -0.6264  0.3570 -1.0169
 9888TIP3   OH251078   1.663   5.802   3.401  0.0688  0.4574 -0.1462
 9888TIP3    H151079   1.569   5.787   3.399  0.2285 -0.7801  0.5015
 9888TIP3    H251080   1.693   5.775   3.314 -0.1340  0.5560 -0.2473
 9889TIP3   OH251081   4.666   5.318  10.436 -0.3966  0.1879 -0.8566
 9889TIP3    H151082   4.647   5.411  10.426  1.0102  0.7463  1.1192
 9889TIP3    H251083   4.753   5.307  10.399 -0.6423 -0.4132 -1.2820
 9890TIP3   OH251084   0.677   2.350  12.458 -0.0647  0.4006 -0.5831
 9890TIP3    H151085   0.690   2.258  12.481 -1.7115  0.5430  1.1351
 9890TIP3    H251086   0.601   2.349  12.398 -0.0126  0.6364 -0.6529
 9891TIP3   OH251087   2.863   5.163   1.212 -0.1259 -0.1368  0.4738
 9891TIP3    H151088   2.855   5.150   1.306  0.5797  0.7062  0.6686
 9891TIP3    H251089   2.807   5.238   1.193 -0.6141 -0.5824  0.1469
 9892TIP3   OH251090   0.369   2.546  13.560  0.4144  0.3957 -0.7241
 9892TIP3    H151091   0.359   2.452  13.547 -0.5769  0.3728  0.0651
 9892TIP3    H251092   0.403   2.578  13.476  1.8789 -0.8020 -0.6328
 9893TIP3   OH251093   3.191   6.924   0.968  0.7970  0.0109  0.0462
 9893TIP3    H151094   3.118   6.984   0.955  1.2173  0.3996 -0.5842
 9893TIP3    H251095   3.260   6.958   0.911  1.2516 -0.7217  0.1499
 9894TIP3   OH251096   6.369   0.605  14.722  0.2239 -0.2542  0.3309
 9894TIP3    H151097   6.452   0.608  14.769  2.2450  1.6222 -2.9760
 9894TIP3    H251098   6.377   0.531  14.662 -0.3114  0.1725 -0.2834
 9895TIP3   OH251099   6.178   5.061   2.011 -0.0286  0.0562 -0.7093
 9895TIP3    H151100   6.195   5.129   1.945  0.4801  1.1729  0.5155
 9895TIP3    H251101   6.260   5.013   2.018 -0.3929 -0.7131 -1.5861
 9896TIP3   OH251102   0.840   1.630  12.832  0.1440 -0.4897  0.0992
 9896TIP3    H151103   0.777   1.601  12.898 -1.0081 -0.5531 -0.9924
 9896TIP3    H251104   0.798   1.705  12.790  0.7569 -0.5793 -0.6940
 9897TIP3   OH251105   6.692   6.939  15.046  0.9886 -0.2441  0.3669
 9897TIP3    H151106   6.690   6.850  15.010  2.6303 -0.7240  1.2992
 9897TIP3    H251107   6.697   6.925  15.141  0.1838  0.8896  0.5914
 9898TIP3   OH251108   4.333   3.248   2.086  0.2516 -0.0515  0.5736
 9898TIP3    H151109   4.429   3.250   2.092  0.3917  0.7330 -1.3472
 9898TIP3    H251110   4.314   3.165   2.044  0.1401  0.1551  0.2159
 9899TIP3   OH251111   5.435   3.250  13.137  0.2713 -0.5432  0.0030
 9899TIP3    H151112   5.476   3.282  13.218 -1.8353  0.3195  0.7919
 9899TIP3    H251113   5.404   3.329  13.093  1.7348 -0.9584 -1.9157
 9900TIP3   OH251114   3.739   4.368   2.019 -0.2548  0.2280 -0.3468
 9900TIP3    H151115   3.794   4.308   1.969  0.5593  0.8399 -0.2181
 9900TIP3    H251116   3.662   4.383   1.964  0.3557  0.4389 -1.1544
 9901TIP3   OH251117   1.260   5.387   2.823 -0.0616 -0.3487 -0.1312
 9901TIP3    H151118   1.165   5.385   2.840  0.2762 -1.7370  2.0659
 9901TIP3    H251119   1.299   5.391   2.910  1.9391  0.3323 -1.0050
 9902TIP3   OH251120   2.977   2.438  14.482  0.1686 -0.1061 -0.2205
 9902TIP3    H151121   2.979   2.484  14.566 -0.1342 -0.3377 -0.0832
 9902TIP3    H251122   3.007   2.503  14.418  3.6653 -0.8349  0.4571
 9903TIP3   OH251123   2.291   0.615  10.777  0.2795 -0.1454  0.2440
 9903TIP3    H151124   2.370   0.665  10.798 -0.4180  1.0934 -0.0218
 9903TIP3    H251125   2.307   0.582  10.688 -0.3837  2.0236 -0.7675
 9904TIP3   OH251126   5.119   2.724   0.918 -0.7945  0.1278  0.0867
 9904TIP3    H151127   5.061   2.795   0.946 -0.0536  0.4230  0.9496
 9904TIP3    H251128   5.074   2.644   0.943 -0.8653  0.3506  0.6951
 9905TIP3   OH251129   6.254   5.062   3.678  0.6194  0.1912  0.1430
 9905TIP3    H151130   6.217   4.980   3.645  0.7301  0.6208 -1.1215
 9905TIP3    H251131   6.263   5.116   3.600 -0.8845  1.9873  1.1272
 9906TIP3   OH251132   1.694   6.912  11.250  0.5314 -0.1713  0.2252
 9906TIP3    H151133   1.784   6.910  11.217  1.0940 -0.4191  1.7018
 9906TIP3    H251134   1.703   6.909  11.345 -0.9833  2.1222  0.5123
 9907TIP3   OH251135   6.278   2.581  13.277  0.3486  0.4427 -0.6456
 9907TIP3    H151136   6.257   2.490  13.256 -0.1073 -0.0083  1.5054
 9907TIP3    H251137   6.373   2.584  13.283  0.3250 -0.1300  0.1473
 9908TIP3   OH251138   3.395   6.613   0.578 -0.2797  0.1723  0.3221
 9908TIP3    H151139   3.439   6.529   0.586 -0.6544 -0.0758 -0.2166
 9908TIP3    H251140   3.323   6.609   0.641  0.0263  0.3003  0.6829
 9909TIP3   OH251141   1.524   5.127   3.891 -0.1090  0.1346  0.3650
 9909TIP3    H151142   1.460   5.196   3.905 -1.0295 -0.9305  1.7973
 9909TIP3    H251143   1.601   5.155   3.940  0.5613  1.3842 -1.3030
 9910TIP3   OH251144   4.388   3.026   0.709 -0.4368  0.2047  0.0977
 9910TIP3    H151145   4.404   3.120   0.719 -0.1555  0.3100 -1.1642
 9910TIP3    H251146   4.475   2.987   0.705 -0.5479 -0.2015  1.1938
 9911TIP3   OH251147   2.793   0.735   1.301 -0.1655  0.0080 -0.4971
 9911TIP3    H151148   2.840   0.773   1.226  0.3311  1.6757  0.6059
 9911TIP3    H251149   2.712   0.702   1.264  0.1669  0.5915 -1.8189
 9912TIP3   OH251150   1.639   0.732   5.014 -0.0149  0.3984 -0.2937
 9912TIP3    H151151   1.684   0.793   4.956 -1.0723  0.5273 -1.0109
 9912TIP3    H251152   1.635   0.650   4.964  0.0137  0.1922  0.0361
 9913TIP3   OH251153   1.094   4.925  13.899 -0.4188 -0.2540 -0.3415
 9913TIP3    H151154   1.186   4.915  13.922 -0.0064 -0.3805 -1.9552
 9913TIP3    H251155   1.062   4.995  13.957  0.7845  0.0722 -0.0536
 9914TIP3   OH251156   6.314   2.672  10.375  0.5924  0.7187  0.3146
 9914TIP3    H151157   6.363   2.752  10.357  0.1973  0.9543  0.2682
 9914TIP3    H251158   6.260   2.659  10.296  0.6979  0.3763  0.2986
 9915TIP3   OH251159   3.051   1.591  12.695  0.0597 -0.4176  0.3246
 9915TIP3    H151160   3.046   1.508  12.648  1.0054 -0.8915  1.0360
 9915TIP3    H251161   3.042   1.658  12.627  0.0058 -1.0923 -0.3396
 9916TIP3   OH251162   3.371   2.067  14.674 -0.2165  0.3569  0.2077
 9916TIP3    H151163   3.465   2.055  14.681 -0.3376 -0.0646  1.2392
 9916TIP3    H251164   3.344   2.101  14.759 -0.8215  1.7516 -0.5121
 9917TIP3   OH251165   2.686   2.785   3.964  0.0619 -0.2094 -0.0967
 9917TIP3    H151166   2.597   2.787   3.928 -0.9955 -0.8318  2.3004
 9917TIP3    H251167   2.721   2.700   3.937  0.2651  0.3376 -1.6776
 9918TIP3   OH251168   6.342   1.044  11.843  0.4787  0.6799  0.2024
 9918TIP3    H151169   6.365   0.974  11.905  0.4716  1.4327  1.0745
 9918TIP3    H251170   6.376   1.013  11.759  0.5887 -0.3167  0.5955
 9919TIP3   OH251171   0.209   2.585  11.388 -1.1069  0.0368 -0.0116
 9919TIP3    H151172   0.273   2.527  11.347 -0.3243  1.7486 -1.3314
 9919TIP3    H251173   0.125   2.542  11.373 -0.8807  0.5166 -3.5228
 9920TIP3   OH251174   4.017   0.548  14.443  0.4859 -0.7379 -0.4966
 9920TIP3    H151175   4.097   0.580  14.485 -0.2089 -1.3486  1.4263
 9920TIP3    H251176   3.972   0.627  14.414  0.7228 -0.2293  0.4708
 9921TIP3   OH251177   1.402   0.421   5.159  0.3557  0.6728  0.0922
 9921TIP3    H151178   1.309   0.444   5.161 -0.0161 -0.5758 -0.9713
 9921TIP3    H251179   1.403   0.326   5.144  1.7978 -0.0101  3.5274
 9922TIP3   OH251180   1.532   7.118   5.227 -0.3071  0.0424  0.8071
 9922TIP3    H151181   1.602   7.102   5.290  0.5036 -1.0181 -0.2952
 9922TIP3    H251182   1.458   7.147   5.280 -0.0260 -1.9008  2.4062
 9923TIP3   OH251183   3.754   0.155   2.117  0.0045  0.2837  0.1975
 9923TIP3    H151184   3.698   0.099   2.064  0.6829  0.9179 -1.2335
 9923TIP3    H251185   3.693   0.204   2.173 -0.6578 -1.0059  0.6297
 9924TIP3   OH251186   5.659   0.265   4.746  0.4819  0.0093  0.2869
 9924TIP3    H151187   5.600   0.276   4.671  1.3908 -0.3967 -0.5009
 9924TIP3    H251188   5.604   0.224   4.813 -0.1527 -0.3264 -0.4145
 9925TIP3   OH251189   5.459   2.937   5.591  0.7662  0.7404 -0.4762
 9925TIP3    H151190   5.470   2.848   5.558 -2.5642  0.3827 -0.9005
 9925TIP3    H251191   5.469   2.929   5.686  0.5753 -0.0613 -0.5210
 9926TIP3   OH251192   1.323   5.573  13.190 -0.0399  0.2363 -0.4954
 9926TIP3    H151193   1.399   5.625  13.217 -0.0748 -0.1018  0.2917
 9926TIP3    H251194   1.248   5.630  13.205 -0.1850 -0.3484  1.4010
 9927TIP3   OH251195   6.546   4.150  11.686  0.2597 -0.2341  0.3876
 9927TIP3    H151196   6.523   4.213  11.618  1.6212 -0.0539  0.0628
 9927TIP3    H251197   6.513   4.066  11.653  3.4952 -0.7269 -2.0289
 9928TIP3   OH251198   0.965   6.471   0.341 -0.4047 -0.2808 -0.2220
 9928TIP3    H151199   0.985   6.502   0.430  0.4858 -0.6971 -0.2671
 9928TIP3    H251200   0.878   6.431   0.349 -0.1194 -0.7706  0.5848
 9929TIP3   OH251201   3.579   1.289   2.689  0.2861 -0.1209  0.3513
 9929TIP3    H151202   3.639   1.351   2.647  0.1645  0.0898  0.4898
 9929TIP3    H251203   3.557   1.330   2.773  0.2101 -0.3530  0.4442
 9930TIP3   OH251204   2.093   2.860  15.240  0.3862 -0.0197  0.2317
 9930TIP3    H151205   2.106   2.936  15.183 -0.2053  0.1931  0.3690
 9930TIP3    H251206   2.032   2.805  15.192 -0.9868  0.6812  1.1200
 9931TIP3   OH251207   6.478   3.018   4.310 -0.0006 -0.2072 -0.5282
 9931TIP3    H151208   6.387   3.036   4.334 -0.0410 -0.5337 -0.4345
 9931TIP3    H251209   6.508   2.954   4.374  1.7190  3.1612  2.3718
 9932TIP3   OH251210   6.372   3.939   3.757  0.9055 -0.1809  0.2387
 9932TIP3    H151211   6.411   3.875   3.696  1.1588 -0.4642  0.6931
 9932TIP3    H251212   6.440   3.952   3.823 -0.0024 -1.1677  1.4023
 9933TIP3   OH251213   2.696   5.942   1.291 -0.1388 -0.4702 -0.2303
 9933TIP3    H151214   2.786   5.970   1.310 -0.4409  0.6137 -0.3614
 9933TIP3    H251215   2.652   5.945   1.376  0.0113 -1.2724 -0.1166
 9934TIP3   OH251216   6.342   7.143   1.566  0.7128 -0.2857 -0.4168
 9934TIP3    H151217   6.345   7.098   1.650 -1.8931 -1.6361 -0.9467
 9934TIP3    H251218   6.328   7.235   1.588  2.8295 -0.1619  0.6134
 9935TIP3   OH251219   6.201   2.430  14.321  0.3364 -0.2406  0.6045
 9935TIP3    H151220   6.180   2.346  14.362  0.3662 -0.3734  0.3448
 9935TIP3    H251221   6.174   2.420  14.230 -0.3524  0.2825  0.7362
 9936TIP3   OH251222   3.254   5.600  10.474 -0.4307  0.5214  0.1540
 9936TIP3    H151223   3.160   5.614  10.461 -0.4940  0.2726  0.3378
 9936TIP3    H251224   3.293   5.685  10.455 -0.8955  1.2359  2.0886
 9937TIP3   OH251225   1.596   3.970   5.503  0.5205 -0.2003 -0.4498
 9937TIP3    H151226   1.640   4.038   5.452 -0.4479 -1.2188 -2.8067
 9937TIP3    H251227   1.647   3.890   5.487 -0.3442 -0.7355 -0.6300
 9938TIP3   OH251228   2.851   2.513   0.718  0.0183  0.0854  1.1853
 9938TIP3    H151229   2.933   2.465   0.731  0.5974  0.3262 -1.2129
 9938TIP3    H251230   2.857   2.548   0.629 -3.5001 -1.4770  0.1606
 9939TIP3   OH251231   2.669   1.292  10.564  0.0512 -0.5323  0.1763
 9939TIP3    H151232   2.759   1.324  10.559 -0.3372  0.5965  0.1840
 9939TIP3    H251233   2.656   1.270  10.656  0.0977 -0.0275  0.3044
 9940TIP3   OH251234   0.049   1.555   0.703 -0.3534 -0.5264  0.8992
 9940TIP3    H151235   0.007   1.469   0.695 -0.5409 -0.4845  1.4197
 9940TIP3    H251236   0.112   1.557   0.631  1.0919 -1.9307  2.0471
 9941TIP3   OH251237   7.161   2.061  13.415 -0.1817  0.2657 -0.4185
 9941TIP3    H151238   7.145   2.121  13.487 -2.1877 -0.2538 -0.3603
 9941TIP3    H251239   7.078   2.014  13.404  1.7346 -3.8842  0.8089
 9942TIP3   OH251240   1.676   6.279  10.148  0.2386 -0.4667  0.1531
 9942TIP3    H151241   1.650   6.316  10.233  0.2328 -1.0572  0.4160
 9942TIP3    H251242   1.750   6.332  10.120  1.3783 -1.3666  1.3689
 9943TIP3   OH251243   0.478   2.871   0.697 -0.6470  0.5365  0.1664
 9943TIP3    H151244   0.412   2.940   0.688 -1.3275 -0.1307 -0.1287
 9943TIP3    H251245   0.534   2.882   0.620 -0.8436  0.6666  0.0405
 9944TIP3   OH251246   4.022   0.127   2.169  0.5717  0.4912 -1.0688
 9944TIP3    H151247   3.932   0.159   2.156  0.4667  0.7051  0.1023
 9944TIP3    H251248   4.028   0.051   2.111 -0.4504  0.3330 -0.9894
 9945TIP3   OH251249   2.400   2.738  14.674 -0.0865  0.4194 -0.2038
 9945TIP3    H151250   2.443   2.823  14.662  0.0486  0.6797  1.7782
 9945TIP3    H251251   2.325   2.741  14.615 -0.0029  1.8584 -0.2754
 9946TIP3   OH251252   1.812   3.729  14.115  0.0364 -0.1383 -0.2460
 9946TIP3    H151253   1.823   3.635  14.131  2.4993  0.0413 -0.5080
 9946TIP3    H251254   1.803   3.768  14.202  2.0550 -0.3410  0.0927
 9947TIP3   OH251255   4.714   0.241  11.162 -0.3444 -0.3028  0.4563
 9947TIP3    H151256   4.777   0.198  11.221 -0.9152  1.0552  2.1306
 9947TIP3    H251257   4.634   0.190  11.172 -0.6227  0.2979  1.3692
 9948TIP3   OH251258   6.836   5.111  12.408  0.6153 -0.5474 -0.0256
 9948TIP3    H151259   6.789   5.123  12.325  1.7663  0.9849 -0.5001
 9948TIP3    H251260   6.796   5.174  12.468  1.6614  0.3959 -0.2833
 9949TIP3   OH251261   6.671   4.615  14.929 -0.1827 -0.1913 -0.6794
 9949TIP3    H151262   6.668   4.681  14.860  0.0283  0.1810 -0.3333
 9949TIP3    H251263   6.623   4.654  15.002 -1.4405 -1.0453 -1.0019
 9950TIP3   OH251264   6.090   1.873   1.032  0.2043 -0.0228  0.1020
 9950TIP3    H151265   6.056   1.801   0.978  1.5469  0.0698 -0.9263
 9950TIP3    H251266   6.156   1.832   1.087  0.3849  0.2751  0.1064
 9951TIP3   OH251267   4.289   4.849  13.541 -0.5289  0.0734 -0.1135
 9951TIP3    H151268   4.345   4.805  13.478 -0.2962  0.5361 -0.2335
 9951TIP3    H251269   4.349   4.893  13.601 -0.5891 -2.8721  2.3752
 9952TIP3   OH251270   7.054   0.129  14.519  0.2630 -0.0215  0.3398
 9952TIP3    H151271   7.020   0.067  14.583 -0.4061  1.8569  1.8935
 9952TIP3    H251272   7.120   0.179  14.566  1.2780  0.0280 -1.0724
 9953TIP3   OH251273   7.006   4.890  11.532 -0.3543  0.1817  0.3177
 9953TIP3    H151274   7.093   4.859  11.554 -0.4225 -0.3177 -0.1177
 9953TIP3    H251275   6.963   4.816  11.491 -1.0730  0.3419  0.7564
 9954TIP3   OH251276   2.712   4.557  12.202 -0.0001 -0.3116 -0.2042
 9954TIP3    H151277   2.674   4.605  12.128 -1.2467 -3.1007 -1.5425
 9954TIP3    H251278   2.640   4.548  12.264  0.4167  0.1040  0.3443
 9955TIP3   OH251279   7.103   1.893   6.057  0.3020  0.0264  0.1996
 9955TIP3    H151280   7.121   1.843   5.978 -0.6345  0.9534 -0.6252
 9955TIP3    H251281   7.164   1.967   6.053 -1.3169  1.3738 -0.9182
 9956TIP3   OH251282   3.776   7.032   0.340 -0.6591  0.0638  0.3335
 9956TIP3    H151283   3.767   7.127   0.335  1.0281  0.2670  0.2883
 9956TIP3    H251284   3.822   7.008   0.259 -0.1893 -0.6371  0.7895
 9957TIP3   OH251285   3.439   5.399  10.630  0.1647 -0.2240 -0.2312
 9957TIP3    H151286   3.418   5.468  10.567 -0.5318 -0.0975  0.1369
 9957TIP3    H251287   3.357   5.382  10.676  0.5028 -0.7999  0.1741
 9958TIP3   OH251288   0.066   0.340   2.467 -0.1930 -0.1448 -0.3828
 9958TIP3    H151289   0.041   0.329   2.558 -0.8677 -1.4298 -0.6978
 9958TIP3    H251290   0.099   0.430   2.461 -0.6770  0.1395  0.9908
 9959TIP3   OH251291   6.319   1.660   2.246  0.0386 -0.9310 -0.5857
 9959TIP3    H151292   6.335   1.638   2.338  0.0505  0.2786 -0.2854
 9959TIP3    H251293   6.397   1.708   2.218 -1.6144  2.4350  0.0439
 9960TIP3   OH251294   6.214   6.742  10.413  0.2602 -0.5781 -0.1449
 9960TIP3    H151295   6.289   6.682  10.408  1.0871  0.3803  0.5031
 9960TIP3    H251296   6.251   6.829  10.404 -0.8300 -0.1007 -0.2106
 9961TIP3   OH251297   4.515   1.209   2.536  0.6495  0.1642  0.0610
 9961TIP3    H151298   4.442   1.271   2.538  0.5182  0.0373  2.4993
 9961TIP3    H251299   4.581   1.251   2.481 -0.2777  1.4422 -0.1269
 9962TIP3   OH251300   1.802   3.546  12.837  0.1964 -0.2101  0.2478
 9962TIP3    H151301   1.746   3.480  12.796 -0.1078  0.3231 -0.2128
 9962TIP3    H251302   1.866   3.495  12.887  0.1056 -0.8622 -0.2769
 9963TIP3   OH251303   6.877   5.452  14.851 -0.2501  0.1352  0.2738
 9963TIP3    H151304   6.834   5.469  14.936 -1.3617  0.8031 -0.3930
 9963TIP3    H251305   6.960   5.499  14.856 -0.6495  0.8254  0.7222
 9964TIP3   OH251306   6.835   0.811   3.887  0.1504 -0.4748 -0.5370
 9964TIP3    H151307   6.790   0.813   3.803 -1.6537  1.7390  0.3522
 9964TIP3    H251308   6.806   0.730   3.928 -1.8804  0.1169 -0.6677
 9965TIP3   OH251309   5.524   1.813   2.158 -0.0195  1.2011 -0.4929
 9965TIP3    H151310   5.460   1.813   2.087 -0.2459 -0.9039 -0.3694
 9965TIP3    H251311   5.477   1.847   2.233 -0.2780  1.8736 -0.9496
 9966TIP3   OH251312   3.318   2.630   5.330 -0.0564  0.0861 -0.2985
 9966TIP3    H151313   3.333   2.569   5.258 -0.7751 -0.8859  0.3546
 9966TIP3    H251314   3.270   2.703   5.290 -1.3838 -0.9225 -0.6239
 9967TIP3   OH251315   4.308   5.215  14.950 -0.6087  0.1074  0.7417
 9967TIP3    H151316   4.295   5.277  14.878 -1.0572 -0.7431  0.0677
 9967TIP3    H251317   4.400   5.189  14.944 -0.0266  1.7192  1.8898
 9968TIP3   OH251318   0.959   3.420   4.644 -0.1408 -0.0319 -0.0223
 9968TIP3    H151319   0.931   3.410   4.553  0.5067 -0.5881 -0.1700
 9968TIP3    H251320   0.930   3.508   4.669 -3.0161 -0.9334  0.2070
 9969TIP3   OH251321   2.210   4.689  12.902 -0.4536  0.1235  0.3316
 9969TIP3    H151322   2.170   4.739  12.973 -1.0752  1.9067 -1.2064
 9969TIP3    H251323   2.291   4.736  12.883  0.9687 -1.7171  1.3750
 9970TIP3   OH251324   2.235   1.753  14.162 -0.0020  0.4801  0.4046
 9970TIP3    H151325   2.248   1.744  14.068 -0.8669 -1.9078  0.4415
 9970TIP3    H251326   2.141   1.769  14.172 -0.1695 -0.6541  0.8725
 9971TIP3   OH251327   1.467   6.546   5.655 -0.0718 -0.2642 -0.2601
 9971TIP3    H151328   1.542   6.488   5.665 -0.0901 -0.4668 -1.2301
 9971TIP3    H251329   1.504   6.634   5.666  0.3712 -0.3463 -1.0209
 9972TIP3   OH251330   6.444   5.421  14.959  0.0296  0.2477 -0.0959
 9972TIP3    H151331   6.455   5.516  14.947 -0.6146  0.2088 -1.1372
 9972TIP3    H251332   6.502   5.399  15.032  0.1422  1.4555  0.2047
 9973TIP3   OH251333   5.194   0.827   4.610 -0.2588 -0.2373 -0.0284
 9973TIP3    H151334   5.171   0.785   4.527 -0.8351 -0.4596  0.2397
 9973TIP3    H251335   5.117   0.879   4.632  0.3400  0.7395 -0.2070
 9974TIP3   OH251336   5.687   6.579   4.121 -0.1546  0.0815  0.1490
 9974TIP3    H151337   5.617   6.531   4.164  0.5916 -1.2861 -0.0992
 9974TIP3    H251338   5.656   6.591   4.031  0.0812 -0.9273 -0.0882
 9975TIP3   OH251339   0.647   1.447   1.464  0.2012  0.0254  0.2260
 9975TIP3    H151340   0.630   1.406   1.379  1.0467  3.3217 -1.6975
 9975TIP3    H251341   0.561   1.456   1.504 -0.5740  0.8449 -1.5311
 9976TIP3   OH251342   5.442   4.364   2.829 -0.1408  0.3278 -0.0208
 9976TIP3    H151343   5.443   4.403   2.742 -1.6959  0.6216  0.0649
 9976TIP3    H251344   5.379   4.416   2.879  0.0125 -0.4149  0.9982
 9977TIP3   OH251345   2.218   1.771  13.883 -0.1643  0.0818  0.7859
 9977TIP3    H151346   2.217   1.863  13.857  2.0587  0.5421  2.0260
 9977TIP3    H251347   2.303   1.739  13.852  1.1236 -0.2431  4.2648
 9978TIP3   OH251348   4.056   2.324  11.781 -0.0694 -0.1092  0.1578
 9978TIP3    H151349   4.076   2.237  11.746  0.3708  0.1569 -0.2569
 9978TIP3    H251350   4.112   2.332  11.859 -0.9759 -0.6608  0.8899
 9979TIP3   OH251351   3.722   3.989  11.136 -0.5917 -0.2352  0.1191
 9979TIP3    H151352   3.718   3.894  11.131 -0.5590 -0.2704  0.6491
 9979TIP3    H251353   3.740   4.007  11.228  2.5917  0.1667 -0.4504
 9980TIP3   OH251354   4.149   0.142   9.565  0.0615  0.2185  0.1097
 9980TIP3    H151355   4.061   0.153   9.529  0.0887 -1.4208 -0.5435
 9980TIP3    H251356   4.148   0.053   9.602  2.0343 -0.6637 -1.7682
 9981TIP3   OH251357   3.782   5.189  14.988 -0.1727 -0.0118 -0.0192
 9981TIP3    H151358   3.835   5.160  15.062  2.6792 -0.0616 -1.9281
 9981TIP3    H251359   3.842   5.242  14.935 -2.0904  0.0692 -2.2594
 9982TIP3   OH251360   3.600   1.564   0.110  0.1525  0.3345  0.7150
 9982TIP3    H151361   3.632   1.528   0.193  2.2337  1.0295  0.2673
 9982TIP3    H251362   3.511   1.593   0.130  0.7629  0.9428  2.8443
 9983TIP3   OH251363   7.001   5.545   1.577  0.1600  0.1018 -0.2967
 9983TIP3    H151364   6.958   5.535   1.492 -1.4356 -0.3152  0.5307
 9983TIP3    H251365   7.020   5.639   1.583 -0.5663  0.2806 -0.7184
 9984TIP3   OH251366   7.155   0.964  10.759 -0.2703  0.1397  0.1418
 9984TIP3    H151367   7.223   1.023  10.726  1.1765 -0.4081  1.9735
 9984TIP3    H251368   7.198   0.879  10.765 -1.7567 -0.6965 -0.6182
 9985TIP3   OH251369   7.013   0.555  11.510 -0.4017 -0.8626  0.7720
 9985TIP3    H151370   7.062   0.637  11.505  0.2471 -1.2568  0.4729
 9985TIP3    H251371   6.951   0.560  11.437  1.4075 -1.7358 -0.9057
 9986TIP3   OH251372   3.233   7.021   0.448  0.1426  0.9378  0.0191
 9986TIP3    H151373   3.147   7.034   0.408  1.0068  1.9352 -1.6212
 9986TIP3    H251374   3.295   7.046   0.380  1.7325  1.2497  1.5115
 9987TIP3   OH251375   0.374   6.229   0.115 -0.3455 -0.1756 -0.1086
 9987TIP3    H151376   0.365   6.206   0.207 -2.4444  0.7216 -0.0326
 9987TIP3    H251377   0.327   6.159   0.069  1.3345 -1.0268 -0.5800
 9988TIP3   OH251378   6.514   0.854  11.982  0.0534 -0.1737 -0.7284
 9988TIP3    H151379   6.604   0.887  11.990  0.0004 -0.1815 -0.0735
 9988TIP3    H251380   6.510   0.816  11.894  1.0248 -1.2021 -0.3462
 9989TIP3   OH251381   4.214   6.745   2.486  0.1478  0.4463  0.2426
 9989TIP3    H151382   4.300   6.747   2.528  0.3747 -0.6134 -0.1298
 9989TIP3    H251383   4.168   6.821   2.520  1.0573  0.7397  0.8355
 9990TIP3   OH251384   1.184   5.566   0.859 -0.6496  0.1415  0.0388
 9990TIP3    H151385   1.169   5.475   0.885  1.2093  0.0228  0.8867
 9990TIP3    H251386   1.266   5.590   0.903  0.4106  1.3172 -2.3710
 9991TIP3   OH251387   2.317   7.027  13.918 -0.2887 -0.3695  0.1514
 9991TIP3    H151388   2.290   6.988  14.001 -0.1330  0.3902  0.5607
 9991TIP3    H251389   2.273   7.111  13.914  1.5530  0.6683  0.5860
 9992TIP3   OH251390   6.870   3.639  12.023  0.0567  0.1042  0.6591
 9992TIP3    H151391   6.811   3.588  12.079 -1.2701 -0.0404 -0.8100
 9992TIP3    H251392   6.813   3.699  11.975  1.2116  0.5874 -0.1680
 9993TIP3   OH251393   2.470   4.163   9.920  0.2698  0.0367  0.0020
 9993TIP3    H151394   2.546   4.159   9.863 -0.0478 -0.4009 -0.3913
 9993TIP3    H251395   2.446   4.072   9.936 -0.7345  0.1777 -0.6341
 9994TIP3   OH251396   2.172   4.747  10.119 -0.2207  0.1163  0.1183
 9994TIP3    H151397   2.220   4.809  10.175  0.3306  0.4713 -0.7251
 9994TIP3    H251398   2.190   4.777  10.030 -1.9164  0.1764 -0.2327
 9995TIP3   OH251399   0.507   6.031  10.359  0.3225  0.2176 -0.1426
 9995TIP3    H151400   0.448   6.069  10.293 -0.6232 -1.7978 -0.5350
 9995TIP3    H251401   0.589   6.015  10.312  0.0144 -0.1936 -0.5526
 9996TIP3   OH251402   1.230   1.968  12.231  0.6011 -0.1435  0.4896
 9996TIP3    H151403   1.242   2.040  12.170 -0.7586 -0.5854 -0.3463
 9996TIP3    H251404   1.244   2.006  12.317  2.0512  0.6052 -0.0535
 9997TIP3   OH251405   2.390   3.864  11.441  0.2202 -0.5628 -0.0890
 9997TIP3    H151406   2.348   3.812  11.373 -0.7167  2.0378 -1.6722
 9997TIP3    H251407   2.347   3.837  11.523  0.2171 -2.6017 -0.7136
 9998TIP3   OH251408   3.721   1.863  12.533 -0.0448 -0.4184  0.0605
 9998TIP3    H151409   3.676   1.794  12.486 -2.2935  0.3015  1.0099
 9998TIP3    H251410   3.720   1.938  12.473 -0.9590 -0.1491  0.3876
 9999TIP3   OH251411   2.653   2.912   0.986  0.7838 -0.4181 -0.3643
 9999TIP3    H151412   2.660   2.831   1.037  0.6162 -0.9920 -1.2364
 9999TIP3    H251413   2.736   2.919   0.940  0.7931 -0.0901 -0.3027
10000TIP3   OH251414   4.862   0.662  11.516 -0.5070 -0.0333  0.1691
10000TIP3    H151415   4.844   0.685  11.424  0.9105  1.1422  0.1427
10000TIP3    H251416   4.956   0.677  11.526 -0.5233 -0.7918  1.6516
10001TIP3   OH251417   0.165   3.012   3.600 -0.0282  0.6905  0.3117
10001TIP3    H151418   0.075   3.033   3.574 -0.5118  0.3364  1.5864
10001TIP3    H251419   0.167   2.916   3.602 -0.0196  0.7009  1.5082
10002TIP3   OH251420   5.667   0.372  11.360  0.4501 -0.0493 -0.3042
10002TIP3    H151421   5.752   0.378  11.317 -0.3771 -1.3804 -2.2721
10002TIP3    H251422   5.682   0.409  11.447  3.1836 -0.8065 -0.3549
10003TIP3   OH251423   6.274   2.520  10.612  0.3149  0.5854  0.1856
10003TIP3    H151424   6.276   2.593  10.550 -0.0942  0.8267  0.4506
10003TIP3    H251425   6.351   2.534  10.668  0.7760  0.2759 -0.3672
10004TIP3   OH251426   2.407   0.311   1.196 -0.2491 -0.4679 -0.4494
10004TIP3    H151427   2.466   0.293   1.269 -0.0453  2.8695  0.3764
10004TIP3    H251428   2.403   0.229   1.147  2.8611 -1.6468  1.0130
10005TIP3   OH251429   4.815   2.809   1.904  0.1474 -0.0422 -0.1339
10005TIP3    H151430   4.782   2.893   1.935  0.4601  0.8382 -2.0901
10005TIP3    H251431   4.880   2.783   1.971  0.7672  1.7525  0.0146
10006TIP3   OH251432   2.379   4.544   0.259  0.3589  0.3472  0.3055
10006TIP3    H151433   2.311   4.487   0.295  0.8487  0.1809  0.9826
10006TIP3    H251434   2.443   4.552   0.330  0.8076  0.8882 -0.1597
10007TIP3   OH251435   5.348   1.169   4.494 -0.0299  0.3606  0.1521
10007TIP3    H151436   5.292   1.153   4.419  0.0975 -0.4900  0.2224
10007TIP3    H251437   5.349   1.086   4.541  0.5379  0.6433  0.6562
10008TIP3   OH251438   4.286   1.581  15.176 -0.0239  0.9995  0.0357
10008TIP3    H151439   4.261   1.568  15.085 -0.1933  0.5129  0.1520
10008TIP3    H251440   4.271   1.675  15.191  2.9094  1.8096 -1.3099
10009TIP3   OH251441   6.265   2.997  13.666 -0.0365  0.0227  0.3017
10009TIP3    H151442   6.359   3.009  13.677  0.1971 -2.8385  2.2042
10009TIP3    H251443   6.257   2.928  13.600 -0.7789 -0.4136  0.8427
10010TIP3   OH251444   1.907   2.086  14.351  0.1705 -0.4174 -0.0913
10010TIP3    H151445   1.879   2.061  14.439  1.7847 -0.0131  0.5713
10010TIP3    H251446   1.934   2.177  14.359 -0.6698 -0.0388 -1.2675
10011TIP3   OH251447   5.415   5.082  11.364 -0.4445 -0.3023 -0.4711
10011TIP3    H151448   5.507   5.103  11.381  0.4392 -3.4031 -0.8847
10011TIP3    H251449   5.395   5.128  11.283  0.7343  0.3889 -0.4010
10012TIP3   OH251450   6.317   0.554  14.153  0.0818  0.1250 -0.2797
10012TIP3    H151451   6.374   0.492  14.198  0.1127 -0.3622 -0.9812
10012TIP3    H251452   6.229   0.522  14.169 -0.0604  1.1207  1.1746
10013TIP3   OH251453   2.008   2.056  12.182  0.2070  0.6393  0.2592
10013TIP3    H151454   1.922   2.016  12.171  1.0861 -1.5946  0.9185
10013TIP3    H251455   2.040   2.068  12.093 -0.3420  0.4502  0.0314
10014TIP3   OH251456   2.836   0.864   3.355 -0.2560 -0.2735  0.6557
10014TIP3    H151457   2.907   0.818   3.310  0.2458 -0.5022  1.6568
10014TIP3    H251458   2.879   0.933   3.406 -0.7612 -0.3022  1.1391
10015TIP3   OH251459   4.187   5.914   3.161  0.2138  0.0230  0.2651
10015TIP3    H151460   4.148   5.994   3.196  2.2871  1.1485  0.1660
10015TIP3    H251461   4.123   5.845   3.180 -1.6872  1.7010  0.2375
10016TIP3   OH251462   3.543   3.870   2.387  0.1888  0.4923 -0.0369
10016TIP3    H151463   3.492   3.822   2.451  0.4720  0.1248 -0.0870
10016TIP3    H251464   3.541   3.961   2.417 -0.2200  0.4241  0.1352
10017TIP3   OH251465   4.052   5.930  13.678  0.5351  0.0980 -0.1412
10017TIP3    H151466   4.034   5.934  13.584 -0.6608  1.2970  0.1066
10017TIP3    H251467   4.147   5.936  13.685  0.6688 -0.3641 -1.2762
10018TIP3   OH251468   0.468   3.189  12.968 -0.2347 -0.0704  0.3447
10018TIP3    H151469   0.547   3.179  12.916 -1.2565  3.6033 -2.3375
10018TIP3    H251470   0.399   3.148  12.915 -0.5643 -0.8370  1.3397
10019TIP3   OH251471   2.750   1.038  15.096 -0.3909 -0.5646 -0.1368
10019TIP3    H151472   2.657   1.016  15.098 -0.6552  0.5394  1.0390
10019TIP3    H251473   2.787   0.993  15.172 -0.1703 -0.1516  0.0017
10020TIP3   OH251474   3.159   0.423   2.050  0.0216 -0.0334  0.2345
10020TIP3    H151475   3.151   0.495   1.988  1.1486  0.9561  1.1810
10020TIP3    H251476   3.252   0.403   2.051  0.1189  0.2926  1.9021
10021TIP3   OH251477   5.318   2.142  10.784  0.7779 -0.4225  0.7881
10021TIP3    H151478   5.383   2.211  10.799  0.2633 -0.2946  2.7140
10021TIP3    H251479   5.237   2.190  10.766  0.8782 -0.5750 -0.1462
10022TIP3   OH251480   2.205   1.004   4.471  0.5478  0.1844 -0.7163
10022TIP3    H151481   2.138   0.942   4.443  0.3996  1.2496 -3.0106
10022TIP3    H251482   2.157   1.086   4.487  0.9946  0.2861  0.1380
10023TIP3   OH251483   0.163   1.691   2.577  0.2246 -0.4908  0.4736
10023TIP3    H151484   0.130   1.781   2.571  0.3087 -0.4249  0.9414
10023TIP3    H251485   0.164   1.660   2.487  1.4744  0.4403  0.1424
10024TIP3   OH251486   0.484   1.594   1.094 -0.6717 -0.0966 -0.0374
10024TIP3    H151487   0.411   1.584   1.034 -3.4753  1.7873  2.7551
10024TIP3    H251488   0.489   1.510   1.141 -0.5228 -0.4679 -0.7021
10025TIP3   OH251489   5.696   1.307   2.584 -0.3468 -0.1986  0.1014
10025TIP3    H151490   5.729   1.384   2.630 -0.7208  0.3446 -0.5351
10025TIP3    H251491   5.768   1.244   2.590 -0.0573  0.1722  0.6662
10026TIP3   OH251492   4.935   2.603   1.309 -0.2251 -0.5829 -0.3823
10026TIP3    H151493   4.921   2.584   1.216 -0.3022 -0.2756 -0.4334
10026TIP3    H251494   4.851   2.583   1.350 -0.7714  1.0140 -0.6514
10027TIP3   OH251495   1.163   6.209   9.626  0.1334  0.7661 -0.0288
10027TIP3    H151496   1.087   6.155   9.605  0.7387  0.0554 -0.4708
10027TIP3    H251497   1.226   6.190   9.557  0.1798  2.4585 -0.5041
10028TIP3   OH251498   5.580   4.222  10.446 -0.2365  0.0381 -0.3327
10028TIP3    H151499   5.613   4.172  10.520 -0.9506 -0.4917 -0.3630
10028TIP3    H251500   5.596   4.314  10.470 -1.0451 -0.0900  0.7646
10029TIP3   OH251501   2.929   3.438  14.361 -0.5851  0.3956 -0.0043
10029TIP3    H151502   2.905   3.442  14.268 -1.4842 -1.4833  0.0845
10029TIP3    H251503   3.010   3.489  14.367  0.1624 -0.4126 -2.0671
10030TIP3   OH251504   0.055   0.685  15.474 -0.6523 -0.6415 -0.6176
10030TIP3    H151505  -0.035   0.656  15.461 -0.7359 -0.7934  0.2443
10030TIP3    H251506   0.108   0.606  15.459 -0.8241 -1.0999  0.9144
10031TIP3   OH251507   4.474   4.626  13.869 -0.3763  0.1486 -0.3944
10031TIP3    H151508   4.417   4.680  13.924 -2.0397 -0.0277 -1.8547
10031TIP3    H251509   4.500   4.684  13.798 -0.0089 -0.2304 -0.5722
10032TIP3   OH251510   2.382   6.357  15.380  0.1807 -0.6574  0.1629
10032TIP3    H151511   2.302   6.401  15.410  0.5888 -0.8149  1.5433
10032TIP3    H251512   2.386   6.277  15.433  0.2930 -1.5858 -1.1979
10033TIP3   OH251513   2.852   5.831  11.017 -0.5802 -0.3940  0.7046
10033TIP3    H151514   2.813   5.792  10.939  1.6298 -1.4291  0.0289
10033TIP3    H251515   2.946   5.811  11.009  0.0281  1.4457  2.4953
10034TIP3   OH251516   1.587   0.540  11.028 -0.4868  0.1955  0.0136
10034TIP3    H151517   1.620   0.456  10.996 -0.4689 -0.7566  2.3246
10034TIP3    H251518   1.491   0.530  11.025 -0.4909 -0.3706  1.2840
10035TIP3   OH251519   4.975   0.937   3.226  0.0629  0.6341  0.1907
10035TIP3    H151520   4.941   0.927   3.137 -0.9272  0.2507  0.6019
10035TIP3    H251521   4.968   0.850   3.265 -1.3136  1.1734  1.2544
10036TIP3   OH251522   2.445   4.131   2.305 -0.2518 -0.4506  0.3925
10036TIP3    H151523   2.497   4.199   2.262 -0.4237  0.0003  0.8840
10036TIP3    H251524   2.436   4.162   2.395 -0.1345 -1.2415  0.6786
10037TIP3   OH251525   0.145   4.555  11.817 -0.1144 -0.2227  0.5155
10037TIP3    H151526   0.169   4.638  11.858 -0.2610  0.8400 -1.4395
10037TIP3    H251527   0.180   4.488  11.876 -0.7202  1.1842  2.5714
10038TIP3   OH251528   3.915   2.349   4.596  0.0450  0.1866 -0.0375
10038TIP3    H151529   3.993   2.393   4.630  0.2153 -0.0608 -0.1077
10038TIP3    H251530   3.916   2.367   4.502 -0.4583  0.9210  0.0910
10039TIP3   OH251531   6.389   6.508  10.591  0.3332  0.2940 -0.3148
10039TIP3    H151532   6.437   6.585  10.559 -0.9782  1.2688 -0.0340
10039TIP3    H251533   6.436   6.483  10.671  0.0722  1.5996  0.2872
10040TIP3   OH251534   2.436   4.964   2.281 -0.5668 -0.0682 -0.0166
10040TIP3    H151535   2.515   4.993   2.326 -1.1504  1.0556  0.3280
10040TIP3    H251536   2.411   4.883   2.325  0.1833 -0.2332  0.1121
10041TIP3   OH251537   5.475   3.013  13.386  1.0592 -0.1709 -0.0991
10041TIP3    H151538   5.422   2.989  13.462  0.1782  0.9971 -0.3113
10041TIP3    H251539   5.551   2.956  13.391  0.0284 -1.5566  0.5067
10042TIP3   OH251540   4.766   1.148   1.181  0.9573 -0.0830  0.7859
10042TIP3    H151541   4.672   1.130   1.175  0.8842  0.6255 -0.7035
10042TIP3    H251542   4.777   1.232   1.136  2.0898  0.6490  2.3691
10043TIP3   OH251543   6.740   4.261  12.412  0.2314 -0.6676 -0.1348
10043TIP3    H151544   6.795   4.221  12.479 -0.4014 -1.4919 -0.0804
10043TIP3    H251545   6.665   4.296  12.461 -0.0931 -1.0189 -0.3710
10044TIP3   OH251546   0.474   6.713  15.079  0.2198  0.4362 -0.4336
10044TIP3    H151547   0.562   6.680  15.061 -0.0635 -0.6498  0.0907
10044TIP3    H251548   0.416   6.644  15.048 -0.4294  0.8727 -0.2099
10045TIP3   OH251549   6.996   4.159   3.940  0.0145  0.6114  0.4782
10045TIP3    H151550   6.916   4.206   3.963 -0.4269  1.5185 -2.4464
10045TIP3    H251551   7.067   4.219   3.964 -0.0904 -0.1798  3.0418
10046TIP3   OH251552   2.359   5.014   2.004 -0.4328  0.3203  0.0027
10046TIP3    H151553   2.383   5.027   2.096 -1.5184  0.7399  0.2376
10046TIP3    H251554   2.394   5.091   1.960  0.8966 -0.3151 -0.1172
10047TIP3   OH251555   5.974   0.285   0.702  0.0429 -0.3765 -0.2518
10047TIP3    H151556   5.939   0.371   0.729 -2.0083 -1.4125  0.6054
10047TIP3    H251557   5.963   0.283   0.607 -2.9636 -0.8787  0.0229
10048TIP3   OH251558   2.833   3.110  11.248  0.0880  0.2956 -0.4347
10048TIP3    H151559   2.796   3.144  11.166 -0.5226 -0.9750 -0.7228
10048TIP3    H251560   2.816   3.178  11.313 -1.1739  0.5184 -0.9576
10049TIP3   OH251561   6.758   3.003  12.711 -0.1843  0.2924  0.3930
10049TIP3    H151562   6.701   2.946  12.660  0.0660  0.6899 -0.3492
10049TIP3    H251563   6.702   3.075  12.739 -0.3332  0.0502  0.7274
10050TIP3   OH251564   5.947   4.916   2.677 -0.2748  0.0781  0.5203
10050TIP3    H151565   6.034   4.955   2.664  0.5003 -1.0346  1.9219
10050TIP3    H251566   5.960   4.823   2.658 -1.7651  0.2320 -1.5205
10051TIP3   OH251567   2.614   4.261   2.150  0.1031  0.7047 -0.2497
10051TIP3    H151568   2.598   4.341   2.101  1.7139  1.3288  0.1670
10051TIP3    H251569   2.683   4.285   2.213  0.6384 -1.0023 -0.1382
10052TIP3   OH251570   1.445   4.053  11.142 -0.3272  0.2150  0.4652
10052TIP3    H151571   1.492   4.053  11.059 -2.5126 -0.7688 -0.8658
10052TIP3    H251572   1.352   4.050  11.117 -1.0399 -2.0711  2.9190
10053TIP3   OH251573   1.099   4.981  12.242 -0.4684 -1.3778 -0.3695
10053TIP3    H151574   1.153   5.048  12.200  1.5306 -2.3792  0.5080
10053TIP3    H251575   1.012   4.994  12.204  0.0277  1.1787 -0.8176
10054TIP3   OH251576   5.113   7.115   4.941  0.0562 -0.7920  0.3997
10054TIP3    H151577   5.189   7.135   4.996 -0.9865  0.5347  1.4389
10054TIP3    H251578   5.039   7.155   4.988 -1.0428 -0.6625 -1.3757
10055TIP3   OH251579   2.401   5.613  10.326 -0.2506  0.6938  0.4404
10055TIP3    H151580   2.376   5.541  10.268  0.8761  0.3958  0.3066
10055TIP3    H251581   2.365   5.588  10.411 -1.2409  0.7622  0.0605
10056TIP3   OH251582   6.890   3.913   2.942 -0.3238  0.4381 -0.1711
10056TIP3    H151583   6.913   3.855   2.869  1.5580 -0.0452  0.7513
10056TIP3    H251584   6.829   3.976   2.903  0.2682 -0.0691 -2.0621
10057TIP3   OH251585   0.184   0.245  11.079  0.2027  0.5208 -0.3741
10057TIP3    H151586   0.107   0.235  11.023 -0.0349 -0.8076  0.1470
10057TIP3    H251587   0.209   0.156  11.102  1.0519  0.9842  0.6056
10058TIP3   OH251588   1.452   3.055  10.204  0.4006  0.2546 -0.4868
10058TIP3    H151589   1.384   3.008  10.156  0.1318  0.2143 -0.0688
10058TIP3    H251590   1.469   3.132  10.150 -2.8599  2.4527  1.2647
10059TIP3   OH251591   3.576   2.225  13.069  0.5251  0.0447 -0.2590
10059TIP3    H151592   3.567   2.232  13.164 -1.4647  0.2215 -0.4232
10059TIP3    H251593   3.654   2.276  13.048  1.7718 -1.0878  1.3984
10060TIP3   OH251594   1.215   1.311   2.383 -0.5940  1.0697  0.6818
10060TIP3    H151595   1.126   1.344   2.399 -1.2628 -0.5873  0.6550
10060TIP3    H251596   1.226   1.242   2.448  0.8302  1.4729  0.8975
10061TIP3   OH251597   3.763   1.645  14.973  0.2519 -0.5439 -0.1112
10061TIP3    H151598   3.816   1.619  15.049 -0.2979 -2.7183 -0.3908
10061TIP3    H251599   3.751   1.564  14.924 -1.1783  0.4062 -1.4158
10062TIP3   OH251600   3.910   1.720   2.573  0.2004  0.1010 -0.0075
10062TIP3    H151601   3.939   1.731   2.663 -1.1168  1.6706  0.2852
10062TIP3    H251602   3.991   1.719   2.522  0.9148  2.0402  0.9638
10063TIP3   OH251603   3.401   0.158   4.731 -0.2555 -0.0517  0.2263
10063TIP3    H151604   3.372   0.084   4.677 -3.6800 -0.3712  2.2213
10063TIP3    H251605   3.447   0.118   4.804  1.5112  0.1619 -0.7196
10064TIP3   OH251606   5.785   3.800   1.952 -0.0634 -0.1675 -0.1426
10064TIP3    H151607   5.850   3.730   1.947 -0.1037 -0.2633  0.5326
10064TIP3    H251608   5.715   3.772   1.893  0.4601 -0.1054 -0.8028
10065TIP3   OH251609   5.867   0.111  12.734 -0.6060 -0.6006 -0.1848
10065TIP3    H151610   5.906   0.193  12.703 -2.8597  0.2703 -0.9750
10065TIP3    H251611   5.904   0.098  12.821  0.4528  0.8022 -0.3978
10066TIP3   OH251612   3.795   2.793   1.664 -0.0811 -0.2845 -0.3466
10066TIP3    H151613   3.802   2.830   1.752  1.2726  1.4485 -1.1234
10066TIP3    H251614   3.825   2.702   1.674 -1.4111 -0.5934  1.2205
10067TIP3   OH251615   2.575   6.992  11.598 -0.0961 -0.2127 -0.2618
10067TIP3    H151616   2.570   7.011  11.692  1.4490  2.5683 -0.6087
10067TIP3    H251617   2.644   6.926  11.591 -0.9116 -1.1913  0.5897
10068TIP3   OH251618   3.174   6.151  14.567 -0.0689  0.2814 -0.0238
10068TIP3    H151619   3.145   6.208  14.637 -0.1026  0.2711 -0.0296
10068TIP3    H251620   3.215   6.077  14.612 -0.3348  0.1420 -0.0091
10069TIP3   OH251621   3.839   5.929  13.832 -0.8730  0.9735  0.0690
10069TIP3    H151622   3.920   5.913  13.783 -0.4699  0.9391  0.7313
10069TIP3    H251623   3.770   5.894  13.776 -0.2996 -0.2373  0.0780
10070TIP3   OH251624   2.072   1.339  10.927  0.4916  0.3746  0.3234
10070TIP3    H151625   2.108   1.418  10.887 -0.9077  0.7870 -0.1815
10070TIP3    H251626   1.978   1.344  10.911  0.4840 -2.0712 -0.9808
10071TIP3   OH251627   5.000   1.358   0.909 -0.4922 -0.0084 -0.1248
10071TIP3    H151628   4.957   1.401   0.982  1.0364 -2.2863  2.2961
10071TIP3    H251629   4.928   1.329   0.852 -1.7047  1.9968  0.3039
10072TIP3   OH251630   0.078   4.233   4.976  0.0568  0.2721 -1.0312
10072TIP3    H151631   0.134   4.310   4.982  0.5299 -0.1461  0.3346
10072TIP3    H251632  -0.011   4.267   4.986  0.3742  0.4553  2.3084
10073TIP3   OH251633   0.121   5.785  11.586  0.4822  0.2543  0.1633
10073TIP3    H151634   0.066   5.708  11.569 -0.0788  0.4587  1.0236
10073TIP3    H251635   0.123   5.832  11.503 -1.6856  0.9102  0.4348
10074TIP3   OH251636   3.628   5.917  12.619  0.0749 -0.0327 -0.9424
10074TIP3    H151637   3.545   5.869  12.624 -0.9707  1.6376 -1.4198
10074TIP3    H251638   3.676   5.889  12.697 -1.5522  0.0048  0.1402
10075TIP3   OH251639   3.016   5.189  14.464 -0.5080 -0.1720  0.1100
10075TIP3    H151640   3.060   5.109  14.492  0.4674  0.8099  1.5148
10075TIP3    H251641   2.947   5.201  14.528 -1.1466 -0.2812 -0.5492
10076TIP3   OH251642   5.852   4.020  13.932  0.1892  0.4062 -0.5082
10076TIP3    H151643   5.880   4.064  14.013 -0.2383  1.0426 -0.7002
10076TIP3    H251644   5.882   3.929  13.943 -0.1538  0.4003  0.5101
10077TIP3   OH251645   4.913   0.708  13.044  0.1720 -0.4596  0.1383
10077TIP3    H151646   4.925   0.622  13.085  1.3260 -0.2114  0.3705
10077TIP3    H251647   4.931   0.770  13.114  2.3979 -0.0219 -0.7456
10078TIP3   OH251648   0.904   4.670   4.048  0.1747  0.0087  0.2178
10078TIP3    H151649   0.975   4.711   4.099  0.8124 -0.8802  0.0768
10078TIP3    H251650   0.949   4.629   3.974 -0.3767 -1.2553  0.5549
10079TIP3   OH251651   1.887   5.612   3.467  0.5670 -0.0113  0.4858
10079TIP3    H151652   1.805   5.658   3.483  0.7676  0.9420 -1.0382
10079TIP3    H251653   1.893   5.547   3.538 -1.3470  0.0694  0.7588
10080TIP3   OH251654   5.807   3.775   4.875  0.5643  0.1673  0.2334
10080TIP3    H151655   5.795   3.693   4.922 -1.7103  0.0951 -0.3614
10080TIP3    H251656   5.742   3.773   4.805 -0.0200  2.7413  0.5940
10081TIP3   OH251657   5.447   1.731  15.072  0.1471  0.8998  0.2711
10081TIP3    H151658   5.435   1.653  15.127  1.7335 -2.0866 -3.1976
10081TIP3    H251659   5.361   1.773  15.073 -0.5190 -0.2676  3.0585
10082TIP3   OH251660   5.528   4.101  11.921  0.1087 -0.4188 -0.0933
10082TIP3    H151661   5.579   4.060  11.990 -0.0755  0.3944  0.5364
10082TIP3    H251662   5.531   4.038  11.848  0.9129 -0.9509  0.3879
10083TIP3   OH251663   6.442   0.366   0.355  0.3151  0.5370  0.0916
10083TIP3    H151664   6.352   0.372   0.388  0.1684 -1.3309  0.1339
10083TIP3    H251665   6.434   0.381   0.261  0.0880  1.1147  0.1938
10084TIP3   OH251666   1.996   6.471   0.301  0.2327  0.1347 -0.1241
10084TIP3    H151667   2.037   6.534   0.241  0.1033  0.0792 -0.2705
10084TIP3    H251668   1.965   6.524   0.374  0.3204  0.2128 -0.1427
10085TIP3   OH251669   5.402   6.752   0.744  0.4143  0.1032 -0.7195
10085TIP3    H151670   5.468   6.705   0.692 -0.0680 -0.9726 -0.3865
10085TIP3    H251671   5.403   6.708   0.829  0.3241  1.0628 -0.2044
10086TIP3   OH251672   6.194   0.246   2.720  0.6209  0.2011  0.2514
10086TIP3    H151673   6.132   0.194   2.669  0.8415 -1.0691  1.2412
10086TIP3    H251674   6.154   0.254   2.806  1.5188 -0.0701  0.7064
10087TIP3   OH251675   3.712   2.992  14.402 -0.1811  0.0341  0.2043
10087TIP3    H151676   3.756   3.060  14.453  1.2631 -1.8819  1.6421
10087TIP3    H251677   3.712   2.915  14.458 -4.3229 -0.5090 -0.2052
10088TIP3   OH251678   1.941   3.783  11.835  1.2725  0.2234 -0.6818
10088TIP3    H151679   1.881   3.725  11.881 -1.5456  1.0064 -3.1044
10088TIP3    H251680   1.928   3.764  11.742  3.6013  1.6180 -1.3902
10089TIP3   OH251681   5.760   2.807  12.472  0.3576 -0.2782  0.1353
10089TIP3    H151682   5.814   2.833  12.547  1.4238  1.8283 -1.2546
10089TIP3    H251683   5.820   2.759  12.415  0.5514  1.1561 -0.9269
10090TIP3   OH251684   5.607   4.145  13.911  0.0666 -0.1344 -0.3352
10090TIP3    H151685   5.632   4.222  13.962  0.7249 -1.6583  1.7578
10090TIP3    H251686   5.689   4.111  13.876 -0.0569 -0.6318 -0.1478
10091TIP3   OH251687   3.294   2.940   2.928 -0.2232 -0.0315 -0.4529
10091TIP3    H151688   3.345   2.999   2.983 -0.1929 -1.3399  0.9928
10091TIP3    H251689   3.353   2.917   2.856  0.2859  0.5211 -0.2193
10092TIP3   OH251690   4.096   1.614  13.645 -0.8074 -0.3309 -0.4289
10092TIP3    H151691   4.161   1.547  13.624  0.1924  0.2622  0.6594
10092TIP3    H251692   4.103   1.677  13.574 -0.4335 -0.4463 -0.4981
10093TIP3   OH251693   6.275   1.638   2.843 -0.2844 -0.0463  0.3032
10093TIP3    H151694   6.360   1.677   2.821 -0.6487  0.2977 -0.5329
10093TIP3    H251695   6.261   1.664   2.934  0.7895 -0.6373  0.6600
10094TIP3   OH251696   4.873   1.390   4.180  0.2638  0.2721  0.3801
10094TIP3    H151697   4.804   1.448   4.213 -1.9792 -1.7158 -0.5136
10094TIP3    H251698   4.901   1.431   4.098 -0.8106  0.4795  0.1020
10095TIP3   OH251699   5.693   3.549  14.329  0.1748  0.3078 -0.4701
10095TIP3    H151700   5.678   3.500  14.248 -1.2865 -1.1654  0.6269
10095TIP3    H251701   5.783   3.528  14.353  0.7361  1.0189 -1.8482
10096TIP3   OH251702   5.158   1.218   5.911 -0.3799 -0.2495 -0.3105
10096TIP3    H151703   5.082   1.258   5.868  1.5005  0.5566 -3.2280
10096TIP3    H251704   5.225   1.286   5.908  1.1028 -1.6451  0.1182
10097TIP3   OH251705   6.285   0.038  11.420  0.2522 -0.0276  0.2784
10097TIP3    H151706   6.353  -0.027  11.434 -0.0293 -0.1831  0.9456
10097TIP3    H251707   6.262   0.069  11.507 -1.4066 -0.8766  0.1775
10098TIP3   OH251708   0.429   1.525  10.560 -0.3035 -0.4454 -0.1318
10098TIP3    H151709   0.471   1.543  10.645 -0.8884  0.9706 -0.1127
10098TIP3    H251710   0.335   1.530  10.578 -0.5525 -3.0956 -0.2823
10099TIP3   OH251711   6.640   4.046   4.176 -0.6285 -0.1932 -1.0798
10099TIP3    H151712   6.711   4.106   4.154 -0.6458 -0.2949 -1.4182
10099TIP3    H251713   6.659   4.019   4.266 -0.4170  0.0303 -1.0547
10100TIP3   OH251714   6.486   0.043  15.112 -0.2054 -0.5248 -0.4685
10100TIP3    H151715   6.402   0.075  15.079  0.6517  1.0508 -1.2408
10100TIP3    H251716   6.551   0.097  15.067  1.1150  0.7781  2.7052
10101TIP3   OH251717   4.318   6.457  10.224 -0.2285  0.1660  0.2472
10101TIP3    H151718   4.406   6.443  10.259 -0.2795 -0.6059  0.0805
10101TIP3    H251719   4.319   6.417  10.138 -0.2443  1.6660 -0.4791
10102TIP3   OH251720   6.470   0.349   1.391  0.2597 -0.3634  0.0039
10102TIP3    H151721   6.512   0.408   1.328  0.8166 -0.4586  0.2808
10102TIP3    H251722   6.542   0.302   1.432 -0.0837 -0.1180  0.9010
10103TIP3   OH251723   7.128   2.223  14.550  0.0145  0.5964  0.6079
10103TIP3    H151724   7.188   2.197  14.620 -3.5526 -1.8366  3.1475
10103TIP3    H251725   7.155   2.170  14.475  2.6742  1.7190  0.6605
10104TIP3   OH251726   2.845   5.143  15.450 -0.2950 -0.4843 -0.2609
10104TIP3    H151727   2.825   5.187  15.533 -1.6690  0.2492 -0.9637
10104TIP3    H251728   2.863   5.214  15.389 -1.1714 -0.9481 -1.0679
10105TIP3   OH251729   0.438   5.219  11.650 -0.5001  0.5475 -0.2704
10105TIP3    H151730   0.450   5.313  11.642 -0.1959  0.4526 -0.9826
10105TIP3    H251731   0.433   5.203  11.745  3.3388  0.8302  0.1205
10106TIP3   OH251732   2.938   4.263   0.955 -0.0596  0.5203 -0.1626
10106TIP3    H151733   2.920   4.279   1.048 -0.4121 -1.1696  0.1030
10106TIP3    H251734   3.031   4.241   0.953 -0.3337 -0.7635  0.0300
10107TIP3   OH251735   0.281   2.884  11.286  0.2844 -0.5450 -0.1812
10107TIP3    H151736   0.233   2.847  11.212  0.9622 -1.2311 -0.2919
10107TIP3    H251737   0.249   2.974  11.293 -1.1263 -1.0249 -0.1466
10108TIP3   OH251738   6.847   1.820  12.841 -0.3220 -0.2205 -0.0636
10108TIP3    H151739   6.919   1.879  12.862 -1.1912  1.1687 -0.8372
10108TIP3    H251740   6.768   1.870  12.863 -1.0935 -0.9441 -1.0747
10109TIP3   OH251741   2.048   5.035  12.973 -0.0901 -0.2303  0.0550
10109TIP3    H151742   1.958   5.024  13.004 -0.1804 -0.6775 -0.3513
10109TIP3    H251743   2.101   4.983  13.034 -0.1635 -0.3766 -0.0061
10110TIP3   OH251744   6.093   4.900   4.811  0.1489 -0.3752  0.2238
10110TIP3    H151745   6.074   4.815   4.850 -0.4971 -1.2739 -1.9120
10110TIP3    H251746   6.145   4.879   4.733 -0.1498  1.1826 -0.4240
10111TIP3   OH251747   0.239   1.453   3.120 -0.6046  0.3812 -0.1062
10111TIP3    H151748   0.151   1.427   3.147 -2.2709  4.3669 -0.9789
10111TIP3    H251749   0.288   1.458   3.202 -0.3488 -3.8568  0.2294
10112TIP3   OH251750   5.060   4.789   3.217 -0.2451  0.2716  0.2384
10112TIP3    H151751   5.027   4.858   3.160 -0.8831 -0.3750 -0.2000
10112TIP3    H251752   5.003   4.714   3.199  2.1639 -1.2861 -1.4054
10113TIP3   OH251753   1.833   3.147  15.362  0.7345  0.4032  0.1665
10113TIP3    H151754   1.922   3.136  15.397  0.9102 -1.1630 -0.6942
10113TIP3    H251755   1.779   3.091  15.417  0.1689  1.7150  0.9876
10114TIP3   OH251756   4.238   6.294   2.793  0.0762  0.0059 -0.3657
10114TIP3    H151757   4.200   6.289   2.705  0.1741  1.5182 -0.5217
10114TIP3    H251758   4.242   6.203   2.822 -0.2024 -0.5039 -1.8174
10115TIP3   OH251759   6.715   1.605   2.559 -0.7581 -0.0008  0.3501
10115TIP3    H151760   6.686   1.524   2.518 -0.8324  0.7436 -1.1203
10115TIP3    H251761   6.722   1.668   2.487 -0.4140  1.2231  1.4081
10116TIP3   OH251762   4.783   0.630   4.844  0.1330  0.1682  0.7690
10116TIP3    H151763   4.726   0.611   4.918 -0.2437 -1.7852  0.0419
10116TIP3    H251764   4.724   0.663   4.775  0.3037  0.7929  0.9142
10117TIP3   OH251765   1.135   4.636  12.995 -0.2927 -0.3622 -0.7293
10117TIP3    H151766   1.221   4.595  13.007 -0.6582 -0.8313  0.4406
10117TIP3    H251767   1.094   4.631  13.081 -0.8444  1.3907 -0.8438
10118TIP3   OH251768   2.048   5.798   3.273 -0.3436 -0.2309  0.2481
10118TIP3    H151769   2.125   5.765   3.228  2.2075  1.7899  2.7834
10118TIP3    H251770   2.011   5.722   3.318  0.0500 -1.2613 -1.1199
10119TIP3   OH251771   0.408   5.538  13.412  0.1874  0.4035  0.6260
10119TIP3    H151772   0.332   5.588  13.443  1.1696  1.8937  0.7630
10119TIP3    H251773   0.426   5.475  13.481 -1.7645 -0.9970 -0.0339
10120TIP3   OH251774   4.013   6.141  10.981 -0.5993  0.0225 -0.1331
10120TIP3    H151775   3.999   6.159  10.888 -0.4206 -1.4245 -0.4568
10120TIP3    H251776   3.933   6.099  11.010  0.0585 -1.2440 -0.1049
10121TIP3   OH251777   0.087   4.983   0.383 -0.5950 -0.3738  0.1207
10121TIP3    H151778  -0.003   4.954   0.365 -0.6450 -1.2905  1.6895
10121TIP3    H251779   0.141   4.932   0.324 -1.0618 -0.1912 -0.4743
10122TIP3   OH251780   3.858   4.771  12.976  0.0882 -0.2292  0.0167
10122TIP3    H151781   3.820   4.857  12.994 -0.6586 -0.8651  1.5938
10122TIP3    H251782   3.918   4.787  12.902 -0.8758  1.4073 -0.4701
10123TIP3   OH251783   1.798   4.299   0.316  0.0093  0.3401  0.0540
10123TIP3    H151784   1.749   4.323   0.395 -0.9151  0.8559 -0.6597
10123TIP3    H251785   1.815   4.205   0.327 -3.3252 -0.4846 -0.7710
10124TIP3   OH251786   2.814   2.799  10.691  0.0806 -0.6561  0.6780
10124TIP3    H151787   2.757   2.749  10.634  0.5963  0.4012 -0.8336
10124TIP3    H251788   2.760   2.873  10.721  0.0210 -0.8311  1.0119
10125TIP3   OH251789   4.854   4.673   3.671 -0.1300 -0.1510  0.2924
10125TIP3    H151790   4.863   4.607   3.603  0.9294  0.5001 -0.2230
10125TIP3    H251791   4.849   4.622   3.752 -2.2561 -0.9774 -0.2861
10126TIP3   OH251792   2.366   6.132   2.524 -0.3794  0.2165  0.5016
10126TIP3    H151793   2.396   6.101   2.438 -0.8221  0.7095  0.1654
10126TIP3    H251794   2.351   6.226   2.511 -0.7257  0.2358  1.0454
10127TIP3   OH251795   3.354   5.598  14.074  0.5421 -0.0670  0.3066
10127TIP3    H151796   3.399   5.653  14.138  0.2363 -0.6730  1.0475
10127TIP3    H251797   3.400   5.515  14.075  0.0770 -0.3291  0.2775
10128TIP3   OH251798   5.459   5.042   2.945  0.6006 -0.5268 -0.2833
10128TIP3    H151799   5.375   5.050   2.900  0.7397 -0.4677 -0.5323
10128TIP3    H251800   5.441   4.983   3.018  0.5081 -1.0848 -0.7505
10129TIP3   OH251801   5.493   6.989  14.527  0.2352  0.4126  0.5009
10129TIP3    H151802   5.412   7.020  14.568 -0.3246  0.6012 -0.6978
10129TIP3    H251803   5.473   6.988  14.433  0.2864 -3.3834  0.3830
10130TIP3   OH251804   6.044   3.516  12.953  0.0622 -0.1901  0.6023
10130TIP3    H151805   6.138   3.499  12.963  0.4274  0.1665 -1.7240
10130TIP3    H251806   6.015   3.541  13.041  2.0912 -0.4838  1.4191
10131TIP3   OH251807   3.987   1.122  13.996  0.3643 -0.1706  0.0271
10131TIP3    H151808   3.934   1.053  13.956  1.8353 -0.4266 -1.6436
10131TIP3    H251809   4.074   1.084  14.003  0.5332  0.4780  2.0270
10132TIP3   OH251810   1.216   4.422  11.140 -0.3388  0.5240  0.6390
10132TIP3    H151811   1.229   4.389  11.229 -2.6581 -1.0035  0.4680
10132TIP3    H251812   1.252   4.354  11.083 -2.2414 -0.2711  0.3505
10133TIP3   OH251813   1.811   5.192   2.079  0.2659 -0.1050  0.0092
10133TIP3    H151814   1.901   5.164   2.090  0.4507  0.7635  0.8675
10133TIP3    H251815   1.758   5.116   2.102  0.7682 -0.6117 -0.4899
10134TIP3   OH251816   1.757   4.752   3.996  0.2101  0.2882 -0.0614
10134TIP3    H151817   1.780   4.679   3.939  1.1535  0.1494  0.4815
10134TIP3    H251818   1.841   4.789   4.023 -0.2427  1.0385  0.3663
10135TIP3   OH251819   3.748   4.020   4.551  0.3785  0.5610 -0.2652
10135TIP3    H151820   3.718   4.086   4.614  0.2357 -0.7949  1.1329
10135TIP3    H251821   3.841   4.009   4.570  0.0208 -0.9249  0.7575
10136TIP3   OH251822   2.722   1.605  14.753 -0.9781  0.1843 -0.3246
10136TIP3    H151823   2.634   1.608  14.792 -0.1133  0.4465  1.7445
10136TIP3    H251824   2.776   1.560  14.818  0.1269 -1.5164 -2.2850
10137TIP3   OH251825   4.239   1.162   3.426  0.0304  0.8199 -0.0503
10137TIP3    H151826   4.333   1.179   3.420 -0.1406  2.2730  0.8068
10137TIP3    H251827   4.233   1.071   3.456  1.1728  0.9368  0.6022
10138TIP3   OH251828   5.583   0.126  10.972 -0.5021 -0.8654  0.0755
10138TIP3    H151829   5.531   0.206  10.980  0.6759 -0.1552  0.8009
10138TIP3    H251830   5.559   0.091  10.886 -0.3867  0.7388 -0.6553
10139TIP3   OH251831   7.035   4.255  13.862  0.0048  0.6425  0.1025
10139TIP3    H151832   6.987   4.240  13.943  0.4368  0.7347  0.3805
10139TIP3    H251833   6.995   4.196  13.799  1.1632 -1.1485  0.9660
10140TIP3   OH251834   1.465   4.909  14.731 -0.1370  0.0206  0.5343
10140TIP3    H151835   1.557   4.904  14.705 -0.3854  1.6444 -0.7547
10140TIP3    H251836   1.417   4.917  14.649 -1.4115 -0.3569  1.2221
10141TIP3   OH251837   0.442   4.418  10.388 -0.1711  0.6651 -0.1507
10141TIP3    H151838   0.489   4.496  10.418  0.5829 -0.5652  2.1788
10141TIP3    H251839   0.383   4.397  10.461 -0.5722 -0.7763 -0.8586
10142TIP3   OH251840   6.776   5.678   5.542 -0.5488  0.1055 -1.1931
10142TIP3    H151841   6.697   5.715   5.581 -0.4802 -0.3572 -0.5855
10142TIP3    H251842   6.845   5.740   5.565 -0.6611  0.2837 -1.3380
10143TIP3   OH251843   3.998   0.773   3.224 -0.4422 -0.1908 -0.3769
10143TIP3    H151844   4.037   0.822   3.296  1.4029 -0.6057 -1.0346
10143TIP3    H251845   4.005   0.681   3.251 -1.3813 -0.2618 -0.3368
10144TIP3   OH251846   2.379   0.951   2.814 -0.7055  0.6040  0.3506
10144TIP3    H151847   2.312   1.018   2.821 -2.7045 -1.1987 -0.3924
10144TIP3    H251848   2.356   0.902   2.735 -0.2594 -1.8490  1.6392
10145TIP3   OH251849   3.595   2.436   4.998 -0.4448  0.0566  0.0525
10145TIP3    H151850   3.687   2.445   4.974  0.3040 -1.2195  2.1468
10145TIP3    H251851   3.550   2.420   4.915  1.5747 -1.5908 -0.8208
10146TIP3   OH251852   0.654   1.472   0.364 -0.4005  0.6086  0.1341
10146TIP3    H151853   0.720   1.403   0.365  0.3896  1.3394 -0.5671
10146TIP3    H251854   0.578   1.432   0.407 -0.0817 -0.8136 -0.5558
10147TIP3   OH251855   4.631   1.372  13.996 -0.1535 -0.9363  0.7968
10147TIP3    H151856   4.541   1.340  13.989 -0.5579  0.1731  0.6869
10147TIP3    H251857   4.645   1.385  14.090 -0.1646 -0.9453  0.7997
10148TIP3   OH251858   5.309   5.730  10.361 -0.0752  0.0761 -0.0225
10148TIP3    H151859   5.221   5.710  10.328  0.7178 -1.3042 -1.4749
10148TIP3    H251860   5.363   5.738  10.282  1.1716  0.5910  0.8475
10149TIP3   OH251861   5.286   6.992  12.291 -0.8829 -0.7540  0.3545
10149TIP3    H151862   5.338   7.033  12.360  1.3699 -1.1918 -0.9811
10149TIP3    H251863   5.335   6.913  12.268 -2.1697 -1.2087 -0.9922
10150TIP3   OH251864   4.466   2.819   5.383  0.6233 -0.4128  0.0406
10150TIP3    H151865   4.517   2.816   5.302 -0.4128  1.0387 -0.7258
10150TIP3    H251866   4.529   2.799   5.452  1.5258 -1.7271 -1.1112
10151TIP3   OH251867   5.750   4.145   1.647  0.5090  0.1910 -0.3160
10151TIP3    H151868   5.820   4.110   1.702 -0.1517 -0.4950  0.1049
10151TIP3    H251869   5.771   4.238   1.638 -0.5060  0.8443  2.8856
10152TIP3   OH251870   3.346   6.994  10.798 -0.0708  0.1320  0.4135
10152TIP3    H151871   3.254   7.007  10.818  0.4244  0.4750  2.7856
10152TIP3    H251872   3.374   6.926  10.859  0.9232 -1.0984 -1.3346
10153TIP3   OH251873   1.837   5.869  14.160 -0.0089  0.1805  0.3640
10153TIP3    H151874   1.919   5.867  14.111 -0.6440 -0.6846 -0.7032
10153TIP3    H251875   1.842   5.950  14.211  1.2871  0.3881 -0.0433
10154TIP3   OH251876   1.191   2.357   1.260  0.5030  0.4006  0.4280
10154TIP3    H151877   1.203   2.451   1.271  0.4424  0.4346  0.2045
10154TIP3    H251878   1.266   2.317   1.305  0.7966  0.5698  0.0918
10155TIP3   OH251879   3.514   5.086   0.284 -0.8276 -0.2620  0.0961
10155TIP3    H151880   3.577   5.019   0.257  0.0056  0.0909  1.0754
10155TIP3    H251881   3.520   5.153   0.216 -2.1873 -1.4533 -1.2781
10156TIP3   OH251882   3.684   6.522   3.642  0.4978 -0.4083  0.2200
10156TIP3    H151883   3.760   6.571   3.674  1.2815 -1.2228 -0.3455
10156TIP3    H251884   3.612   6.551   3.697  1.4713 -0.5387  1.6173
10157TIP3   OH251885   7.049   2.365  14.790  0.5403 -0.3116  0.4635
10157TIP3    H151886   7.033   2.373  14.696  1.0656 -3.4739 -0.0247
10157TIP3    H251887   7.115   2.431  14.809  0.5561  0.2927 -1.4434
10158TIP3   OH251888   1.159   1.944   1.622  0.2736 -0.2971 -0.7572
10158TIP3    H151889   1.219   1.971   1.553  1.9481 -1.3191  0.2208
10158TIP3    H251890   1.126   2.026   1.659 -0.3208  0.2616 -2.4302
10159TIP3   OH251891   0.596   1.206   1.942  0.0040  0.5478  0.4460
10159TIP3    H151892   0.685   1.239   1.932 -0.3990  1.7049  0.5186
10159TIP3    H251893   0.570   1.235   2.030 -0.2699 -0.2232  0.6275
10160TIP3   OH251894   5.924   1.330  11.603 -0.2109 -0.1233 -0.0241
10160TIP3    H151895   5.979   1.274  11.658  1.2042  0.4583 -0.7989
10160TIP3    H251896   5.952   1.311  11.514 -1.1397  0.3507 -0.4308
10161TIP3   OH251897   6.348   1.470  14.718 -0.3607 -0.0065 -0.1707
10161TIP3    H151898   6.327   1.496  14.807 -0.0110 -1.6551  0.4229
10161TIP3    H251899   6.413   1.401  14.727  0.4730  0.5105 -1.7538
10162TIP3   OH251900   0.872   6.814  10.516 -0.6996 -0.3897 -0.6372
10162TIP3    H151901   0.959   6.789  10.484 -1.2348 -1.3354 -1.4059
10162TIP3    H251902   0.875   6.909  10.523  0.8294 -0.4935  0.6587
10163TIP3   OH251903   2.587   1.554  10.497 -0.2184  0.2761 -0.0270
10163TIP3    H151904   2.634   1.531  10.417 -0.8374 -0.0036 -0.3129
10163TIP3    H251905   2.604   1.481  10.556 -0.5585  0.0160 -0.2461
10164TIP3   OH251906   0.540   3.267   2.453 -0.4234 -0.1297 -0.2528
10164TIP3    H151907   0.529   3.271   2.358 -2.5115 -3.2913 -0.3153
10164TIP3    H251908   0.629   3.235   2.465  0.0049  0.6890 -1.1148
10165TIP3   OH251909   0.974   3.047  11.263 -0.0860  0.5567 -0.0687
10165TIP3    H151910   1.036   2.975  11.260 -1.0618 -0.4132  1.4966
10165TIP3    H251911   1.016   3.113  11.318 -0.0804  0.2539  0.2949
10166TIP3   OH251912   3.881   0.487   0.463 -0.0696 -0.2415  0.0346
10166TIP3    H151913   3.955   0.456   0.514 -1.1419 -2.0019  0.6002
10166TIP3    H251914   3.807   0.488   0.525 -0.5917  1.2929 -0.5510
10167TIP3   OH251915   1.476   1.143   0.660 -0.2951 -0.1449 -0.3117
10167TIP3    H151916   1.535   1.104   0.726  2.8338 -0.9431 -3.2806
10167TIP3    H251917   1.451   1.228   0.697  1.4364 -0.4730  1.8296
10168TIP3   OH251918   6.345   1.075   0.613 -0.3376 -0.4574  0.1577
10168TIP3    H151919   6.261   1.116   0.633  0.5197  1.0412  0.9174
10168TIP3    H251920   6.369   1.030   0.694  0.4573  0.7656  0.6420
10169TIP3   OH251921   2.605   5.290  11.219 -0.1239  0.5387  0.3050
10169TIP3    H151922   2.624   5.379  11.190  1.0619 -0.6649 -3.1935
10169TIP3    H251923   2.510   5.288  11.232 -0.6520  1.6827 -2.5561
10170TIP3   OH251924   6.017   3.977   0.218 -0.4030 -0.6582  0.7738
10170TIP3    H151925   6.032   3.883   0.230 -0.5688 -0.6300  1.2228
10170TIP3    H251926   6.071   4.018   0.286  2.1482 -0.2560 -1.3542
10171TIP3   OH251927   3.373   1.973   0.504 -0.6533 -0.7483  0.2756
10171TIP3    H151928   3.334   2.026   0.573 -0.1566  0.0817 -0.0517
10171TIP3    H251929   3.466   1.971   0.526 -0.3141  0.4180 -0.8982
10172TIP3   OH251930   6.085   2.313  12.449  0.4283 -0.2037  0.1810
10172TIP3    H151931   6.030   2.320  12.371  0.8369  0.2048 -0.0768
10172TIP3    H251932   6.173   2.335  12.418  0.4539  0.7761  0.9153
10173TIP3   OH251933   3.293   3.213  15.473  0.1734 -0.0529  0.2396
10173TIP3    H151934   3.311   3.135  15.526 -0.2686  0.0741  0.5775
10173TIP3    H251935   3.292   3.285  15.535  0.9993  0.2913 -0.1317
10174TIP3   OH251936   3.839   3.551  15.196 -0.2397  0.2804  0.6613
10174TIP3    H151937   3.836   3.558  15.101  0.1537 -0.1407  0.6161
10174TIP3    H251938   3.766   3.493  15.219  0.7114 -1.0373  0.4659
10175TIP3   OH251939   1.358   6.908   9.767 -0.1479 -0.1058  0.1138
10175TIP3    H151940   1.275   6.936   9.730 -2.2000 -2.6092  2.4094
10175TIP3    H251941   1.378   6.826   9.722  2.0223  1.2424 -1.5482
10176TIP3   OH251942   5.141   4.931  14.534  0.8872 -0.2935  0.0827
10176TIP3    H151943   5.154   4.841  14.505  0.0039 -0.5081  0.3065
10176TIP3    H251944   5.208   4.982  14.489 -0.0224 -0.7108 -1.8155
10177TIP3   OH251945   4.787   0.337  13.041 -0.0586  0.0029 -0.0222
10177TIP3    H151946   4.834   0.321  13.123  1.3627 -4.4549 -1.4008
10177TIP3    H251947   4.694   0.334  13.065  0.2417 -3.7009  1.2926
10178TIP3   OH251948   1.638   4.181  11.470 -0.0131 -0.6505 -0.0123
10178TIP3    H151949   1.618   4.265  11.512  0.9937  0.5543 -1.8152
10178TIP3    H251950   1.553   4.136  11.465 -0.4687 -0.0269  1.5077
10179TIP3   OH251951   5.899   3.197   0.106 -0.0032  0.5092  0.2386
10179TIP3    H151952   5.966   3.144   0.063  0.9624  0.3096  1.8945
10179TIP3    H251953   5.948   3.257   0.162 -1.1906  0.1389  1.7505
10180TIP3   OH251954   0.648   4.140  12.445  0.5768  0.0381 -0.8225
10180TIP3    H151955   0.695   4.189  12.513  1.8739 -0.5506 -1.2637
10180TIP3    H251956   0.717   4.098  12.394 -0.4291 -0.4924 -1.7808
10181TIP3   OH251957   5.763   5.887  13.265  0.0945  0.4036 -0.5180
10181TIP3    H151958   5.719   5.852  13.188 -2.5253 -0.1522  1.0937
10181TIP3    H251959   5.741   5.980  13.265 -1.5950  0.0508  0.5089
10182TIP3   OH251960   4.471   1.326   3.731 -0.1147 -0.3702  0.6595
10182TIP3    H151961   4.551   1.296   3.773 -0.6348  0.4905  2.3672
10182TIP3    H251962   4.483   1.421   3.721 -0.2781 -0.4615 -0.5669
10183TIP3   OH251963   3.567   3.243  13.464  0.4867 -0.4292  0.1776
10183TIP3    H151964   3.625   3.284  13.400 -0.1975  1.5492  0.7698
10183TIP3    H251965   3.615   3.167  13.495  1.5567 -0.4457 -1.4026
10184TIP3   OH251966   1.821   4.868   4.335  0.7649 -0.5328  0.0678
10184TIP3    H151967   1.811   4.836   4.245  1.4378 -2.6589  0.6915
10184TIP3    H251968   1.914   4.890   4.342  0.7861 -0.7013  0.3350
10185TIP3   OH251969   4.068   5.152  14.679 -0.1207 -0.7206 -0.2421
10185TIP3    H151970   4.074   5.064  14.716  1.0061 -0.5374  0.0497
10185TIP3    H251971   4.049   5.208  14.754 -0.0993 -0.6222 -0.3111
10186TIP3   OH251972   1.604   1.144   0.203  0.1733 -0.2158  0.2923
10186TIP3    H151973   1.629   1.098   0.283  1.7808  1.0292  0.5647
10186TIP3    H251974   1.537   1.207   0.232  0.1741 -0.3095  0.4979
10187TIP3   OH251975   5.180   2.944   4.151 -0.4449 -0.3175 -0.4160
10187TIP3    H151976   5.119   2.969   4.221  0.8629  3.1522 -0.3571
10187TIP3    H251977   5.262   2.926   4.196 -0.6026 -2.0917 -0.7683
10188TIP3   OH251978   5.895   1.236  12.939  0.2990 -0.1323 -0.2734
10188TIP3    H151979   5.930   1.267  12.856  1.5521  1.1030  0.6583
10188TIP3    H251980   5.848   1.312  12.974 -0.7716 -0.8482 -0.1503
10189TIP3   OH251981   3.105   3.622  11.745  0.2710 -0.2570  0.5457
10189TIP3    H151982   3.171   3.562  11.711  0.2689 -0.3131  0.6385
10189TIP3    H251983   3.122   3.705  11.701 -1.3720 -0.9766 -1.5908
10190TIP3   OH251984   3.769   5.296   0.218  0.2894 -0.1848 -0.2369
10190TIP3    H151985   3.771   5.278   0.125 -0.0912  0.4236 -0.3692
10190TIP3    H251986   3.677   5.309   0.239  0.4209  0.2859  0.0981
10191TIP3   OH251987   4.277   6.411  14.934 -0.0239 -0.1591 -0.9250
10191TIP3    H151988   4.266   6.332  14.985  1.5435  0.3961  0.3639
10191TIP3    H251989   4.194   6.423  14.888 -1.7037 -0.4301  1.8397
10192TIP3   OH251990   3.760   7.080   5.553 -0.6963 -0.3199  0.0962
10192TIP3    H151991   3.854   7.094   5.544 -0.8605 -0.1812 -1.6446
10192TIP3    H251992   3.723   7.168   5.563 -0.8225 -0.1758 -1.4048
10193TIP3   OH251993   3.341   3.439   4.966 -0.1092 -0.1242 -0.0084
10193TIP3    H151994   3.353   3.393   5.049  0.5590  0.2966  0.1415
10193TIP3    H251995   3.349   3.371   4.899  1.3446 -0.1834  0.1872
10194TIP3   OH251996   2.004   2.192   2.815 -0.1703  0.1051  0.5599
10194TIP3    H151997   2.021   2.119   2.755 -1.4772  0.8570 -0.7842
10194TIP3    H251998   2.040   2.163   2.899  1.5559 -1.0685 -0.5070
10195TIP3   OH251999   2.447   6.179   2.234 -0.1240  0.0114  0.5570
10195TIP3    H152000   2.372   6.230   2.203 -1.4819 -1.3487  1.4438
10195TIP3    H252001   2.482   6.137   2.156  0.2061  1.2120  0.0251
10196TIP3   OH252002   7.106   4.826   2.302 -0.6612 -0.2826 -0.1881
10196TIP3    H152003   7.136   4.779   2.224 -1.9933  0.1037 -0.9633
10196TIP3    H252004   7.019   4.790   2.319 -0.6415  0.0965  0.7389
10197TIP3   OH252005   3.523   2.752  12.982  0.0491  0.3882  0.3158
10197TIP3    H152006   3.610   2.718  13.004  0.4226  0.4762 -0.9225
10197TIP3    H252007   3.525   2.760  12.887 -1.4992 -0.0621  0.2299
10198TIP3   OH252008   1.771   4.636  14.645 -0.0428 -0.0727 -0.0767
10198TIP3    H152009   1.769   4.669  14.555  0.0136 -0.3738 -0.1871
10198TIP3    H252010   1.786   4.542  14.637  0.0457 -0.0895  0.2517
10199TIP3   OH252011   2.260   6.339  12.198 -0.4472  0.0305 -0.1251
10199TIP3    H152012   2.269   6.269  12.134  0.9715 -0.3409  0.4554
10199TIP3    H252013   2.174   6.377  12.179 -0.0479 -0.0071 -2.2840
10200TIP3   OH252014   5.683   1.252   0.209  0.7278 -0.0774 -0.1579
10200TIP3    H152015   5.629   1.308   0.264  1.9930  1.8799 -0.7937
10200TIP3    H252016   5.686   1.169   0.255 -3.8495 -0.8234 -0.7394
10201TIP3   OH252017   0.662   1.448   5.802 -0.4028  0.0201  0.9223
10201TIP3    H152018   0.734   1.510   5.793 -0.8912  0.5736  0.8062
10201TIP3    H252019   0.593   1.497   5.846 -0.7429 -0.4888  0.9676
10202TIP3   OH252020   1.132   6.426  12.686  0.0868 -0.1979 -0.4870
10202TIP3    H152021   1.186   6.501  12.664  0.8749 -1.5229 -3.5579
10202TIP3    H252022   1.187   6.373  12.745  0.4760  0.4253 -0.2831
10203TIP3   OH252023   0.965   5.324   0.785  0.0808 -0.2097  0.4281
10203TIP3    H152024   0.938   5.242   0.744 -0.5574 -0.5634  1.5071
10203TIP3    H252025   1.059   5.315   0.798  0.4017  0.1358 -1.4057
10204TIP3   OH252026   1.701   1.925  13.901  0.0691  0.0645 -0.1458
10204TIP3    H152027   1.681   1.880  13.818 -0.0596  2.3043 -1.4227
10204TIP3    H252028   1.797   1.929  13.903  0.1133 -0.9628  0.4032
10205TIP3   OH252029   0.799   3.131   1.016  0.2189 -0.2799 -0.3322
10205TIP3    H152030   0.799   3.036   1.024 -0.5782 -0.3300 -0.7931
10205TIP3    H252031   0.718   3.151   0.969  2.7273  0.1848 -5.0740
10206TIP3   OH252032   5.066   0.840  10.400 -0.0694 -0.1541  0.3398
10206TIP3    H152033   5.036   0.898  10.470  0.5541  1.2592 -0.5266
10206TIP3    H252034   5.018   0.758  10.414 -0.9685  0.5628  1.5961
10207TIP3   OH252035   1.322   2.891   1.422 -0.2036 -0.3716  0.3177
10207TIP3    H152036   1.380   2.889   1.346 -0.7247  1.5338 -0.1817
10207TIP3    H252037   1.340   2.975   1.464 -1.2260 -0.5954  1.2586
10208TIP3   OH252038   6.050   0.409  14.730 -0.6822 -0.7506 -0.0034
10208TIP3    H152039   6.071   0.326  14.687 -0.7562 -1.5640  1.4637
10208TIP3    H252040   6.106   0.473  14.686 -2.5918 -0.9994 -3.0506
10209TIP3   OH252041   0.862   4.725   9.806 -0.4000 -0.2670  0.2384
10209TIP3    H152042   0.921   4.798   9.827 -0.8227  0.3778 -0.7119
10209TIP3    H252043   0.919   4.648   9.805  0.1508  0.1183  0.7894
10210TIP3   OH252044   0.177   2.744   3.679 -0.4212 -0.3665 -0.2501
10210TIP3    H152045   0.175   2.649   3.669  0.2709 -0.4129  0.0209
10210TIP3    H252046   0.091   2.766   3.716 -0.9607 -0.7697 -1.2421
10211TIP3   OH252047   2.645   0.789  15.334  0.5239  0.4603 -0.5913
10211TIP3    H152048   2.712   0.723  15.317  1.1302  0.6386  0.9502
10211TIP3    H252049   2.639   0.793  15.429 -1.1850  0.9578 -0.6950
10212TIP3   OH252050   2.484   4.364  12.215  0.3684 -0.8384 -1.0862
10212TIP3    H152051   2.462   4.404  12.131  0.1368  1.7765  0.1280
10212TIP3    H252052   2.421   4.401  12.277  1.4263 -1.5729  0.5068
10213TIP3   OH252053   5.877   2.917   3.917 -0.3721 -0.1548 -0.4994
10213TIP3    H152054   5.972   2.910   3.919 -0.4507 -1.1180  1.0844
10213TIP3    H252055   5.847   2.831   3.889 -0.7950  0.2965 -1.5160
10214TIP3   OH252056   0.789   6.000   3.175  0.1999  0.0183  0.4258
10214TIP3    H152057   0.739   5.985   3.255 -0.2628 -0.0225  0.1330
10214TIP3    H252058   0.840   6.079   3.193 -1.0832  0.9335  0.2055
10215TIP3   OH252059   4.207   4.955   1.562  0.3436 -0.0792  0.6020
10215TIP3    H152060   4.124   4.952   1.514  0.1444  1.6447  0.7835
10215TIP3    H252061   4.181   4.963   1.653  0.7281 -2.9029  1.0575
10216TIP3   OH252062   5.156   1.000   6.183  0.1516 -0.6730  0.4003
10216TIP3    H152063   5.226   1.058   6.213 -0.5263  1.0975 -1.2743
10216TIP3    H252064   5.180   0.977   6.093 -0.8788 -0.9166  0.1696
10217TIP3   OH252065   5.527   1.518   5.370  0.4036  0.5493 -0.3696
10217TIP3    H152066   5.540   1.454   5.440 -0.6680  1.1108  0.3705
10217TIP3    H252067   5.597   1.500   5.307 -0.4890 -2.0486 -0.7250
10218TIP3   OH252068   0.750   1.763   2.368  0.0790 -0.1613 -0.9925
10218TIP3    H152069   0.821   1.783   2.307 -0.5443  0.4433 -1.5377
10218TIP3    H252070   0.698   1.843   2.371  0.0576 -0.2014  0.2904
10219TIP3   OH252071   4.677   4.605   5.013 -0.2802  0.3803 -0.3263
10219TIP3    H152072   4.725   4.536   4.967 -0.5586 -0.9695  1.2865
10219TIP3    H252073   4.712   4.603   5.102 -1.3936  1.2679  0.1647
10220TIP3   OH252074   2.649   1.488  11.039 -0.0166  0.2851  0.1036
10220TIP3    H152075   2.684   1.574  11.063 -0.1568  1.2104 -2.6310
10220TIP3    H252076   2.726   1.435  11.020  0.0200  0.6580 -0.8008
10221TIP3   OH252077   1.665   4.222  14.289 -0.3022 -0.7848 -0.5791
10221TIP3    H152078   1.684   4.209  14.196  0.9162 -0.7835 -0.3370
10221TIP3    H252079   1.704   4.147  14.333  3.9182  1.7031  0.4724
10222TIP3   OH252080   6.592   7.092  14.548 -0.2555  0.4328 -0.5674
10222TIP3    H152081   6.505   7.064  14.519 -0.2233 -0.5734  0.2591
10222TIP3    H252082   6.620   7.024  14.609  1.1858  0.6625 -0.9388
10223TIP3   OH252083   6.256   6.837   1.734  0.2106 -0.2547  0.1201
10223TIP3    H152084   6.264   6.753   1.688 -0.2115 -0.9613  1.2720
10223TIP3    H252085   6.195   6.818   1.806  2.9971 -0.0359  2.7649
10224TIP3   OH252086   5.068   6.639   2.878 -0.0894 -0.3651 -0.1920
10224TIP3    H152087   4.987   6.665   2.835 -1.1921 -1.6647  1.0329
10224TIP3    H252088   5.044   6.623   2.969  2.1551  2.2493  1.0280
10225TIP3   OH252089   3.347   5.587   0.711 -0.1760 -0.5076 -0.5448
10225TIP3    H152090   3.424   5.532   0.728  1.5170  2.3696  2.2257
10225TIP3    H252091   3.286   5.565   0.782  0.8079  1.4394  1.0219
10226TIP3   OH252092   0.387   0.230   0.135  0.4322  0.2464 -0.1298
10226TIP3    H152093   0.385   0.310   0.188 -3.4707 -0.2433  0.7556
10226TIP3    H252094   0.433   0.166   0.190 -0.3284  0.7435  1.1295
10227TIP3   OH252095   0.839   4.833  13.921  0.1377  0.7180 -0.8707
10227TIP3    H152096   0.803   4.777  13.852  0.2911 -1.2312  0.5598
10227TIP3    H252097   0.931   4.844  13.897  0.2351 -0.0907 -0.8857
10228TIP3   OH252098   0.220   4.412  13.798  0.3917 -0.3537  0.2340
10228TIP3    H152099   0.131   4.438  13.778  1.0516 -0.1511 -2.9142
10228TIP3    H252100   0.221   4.317  13.787  0.2804 -0.5652  1.7738
10229TIP3   OH252101   6.039   4.318  14.587  0.1717  0.6101  0.2401
10229TIP3    H152102   5.964   4.374  14.566  0.1071  0.9481  1.3218
10229TIP3    H252103   6.079   4.299  14.502 -0.6485  1.1098 -0.2743
10230TIP3   OH252104   2.379   6.670  14.798 -0.1668 -0.2682  0.1426
10230TIP3    H152105   2.400   6.743  14.739  1.6393 -0.1778  0.8216
10230TIP3    H252106   2.464   6.643  14.833 -1.1753  0.1314  3.2321
10231TIP3   OH252107   0.381   3.036  12.090  0.1559 -0.5231 -0.1199
10231TIP3    H152108   0.356   2.974  12.022 -0.1349 -0.8270  0.2569
10231TIP3    H252109   0.471   3.061  12.069  0.2180 -0.9525 -0.3650
10232TIP3   OH252110   2.812   5.467   4.228  0.4134 -0.3111 -0.0567
10232TIP3    H152111   2.809   5.536   4.294  2.9444 -1.0333  0.9268
10232TIP3    H252112   2.848   5.391   4.274  1.0692 -1.2331 -1.9612
10233TIP3   OH252113   5.349   6.018  10.951 -0.3626 -0.5116 -0.3852
10233TIP3    H152114   5.342   5.931  10.991  0.0616 -0.0699  0.6958
10233TIP3    H252115   5.285   6.071  10.999  1.4339  0.4910  1.0283
10234TIP3   OH252116   3.433   1.951  10.088 -0.6016 -0.0105 -0.3967
10234TIP3    H152117   3.377   2.026  10.109  0.8518  1.1480 -0.4594
10234TIP3    H252118   3.477   1.977  10.007  0.3680 -0.6678 -0.0932
10235TIP3   OH252119   6.012   3.860   3.143  0.4153  0.1602  0.0895
10235TIP3    H152120   6.020   3.778   3.192 -0.1248 -0.7243 -1.2225
10235TIP3    H252121   5.918   3.879   3.145  0.3208 -0.1199 -0.9058
10236TIP3   OH252122   3.621   6.100   4.519  0.7155  0.0282  0.5887
10236TIP3    H152123   3.535   6.060   4.531  1.6350 -2.8189 -1.1002
10236TIP3    H252124   3.603   6.190   4.492 -1.6280  0.0861  2.1117
10237TIP3   OH252125   6.058   3.467   2.713  0.0140  0.1313  0.0826
10237TIP3    H152126   6.067   3.431   2.801  1.3064  0.6865  0.2180
10237TIP3    H252127   5.983   3.423   2.675  0.6237 -1.5656  0.7665
10238TIP3   OH252128   0.202   1.325   4.931  0.6002 -0.6136 -0.5228
10238TIP3    H152129   0.170   1.414   4.945  0.6465 -0.7533  0.6204
10238TIP3    H252130   0.234   1.324   4.841 -0.5726  0.1605 -0.9694
10239TIP3   OH252131   0.544   4.596   2.307  0.2436 -0.9065  0.4669
10239TIP3    H152132   0.493   4.676   2.295  0.9669 -0.6123 -0.8526
10239TIP3    H252133   0.481   4.533   2.343 -0.3705  0.1916  1.3980
10240TIP3   OH252134   4.352   3.487  13.964  0.1891 -0.3743 -0.2648
10240TIP3    H152135   4.349   3.575  13.925  0.5205  0.0985  0.7615
10240TIP3    H252136   4.261   3.470  13.990  0.3758  0.3140  0.9160
10241TIP3   OH252137   6.337   2.388   4.210  0.7969  0.4425  0.1167
10241TIP3    H152138   6.425   2.390   4.171  0.7465  1.6555  0.0166
10241TIP3    H252139   6.278   2.392   4.135  0.6443 -0.5284  0.1767
10242TIP3   OH252140   5.724   6.176   1.145  0.0295 -0.7355  0.1019
10242TIP3    H152141   5.680   6.258   1.164 -0.2152 -0.5220 -1.2853
10242TIP3    H252142   5.669   6.133   1.080  0.9067 -1.3211 -0.2769
10243TIP3   OH252143   6.998   5.104   2.338 -0.6002  0.0620 -0.2793
10243TIP3    H152144   7.040   5.153   2.408  1.3008 -0.5866 -0.8939
10243TIP3    H252145   7.026   5.013   2.353 -2.9942 -0.6962  0.0945
10244TIP3   OH252146   6.747   2.093   3.511  0.5990 -0.2890  0.1818
10244TIP3    H152147   6.824   2.107   3.455  1.2694 -2.8335  0.3226
10244TIP3    H252148   6.688   2.040   3.457  0.1566 -0.6793  1.0358
10245TIP3   OH252149   1.679   3.947  12.076  0.1628  0.5301  0.1634
10245TIP3    H152150   1.714   3.889  12.008  1.0936  1.5950 -0.3210
10245TIP3    H252151   1.718   4.032  12.056  0.6232  0.8435  2.1527
10246TIP3   OH252152   4.555   7.115  13.529  0.3240  0.4771 -0.1311
10246TIP3    H152153   4.621   7.066  13.577 -0.9933  0.3173  1.5991
10246TIP3    H252154   4.503   7.048  13.484 -0.5965  0.3377  1.0899
10247TIP3   OH252155   5.790   4.467  13.049 -0.2535  0.0237  0.2882
10247TIP3    H152156   5.807   4.437  12.959  1.9463 -0.5570  0.8268
10247TIP3    H252157   5.695   4.476  13.054 -0.4373 -0.0429 -2.0584
10248TIP3   OH252158   2.545   5.930   4.237 -0.4016  0.3432 -0.4059
10248TIP3    H152159   2.616   5.937   4.300 -0.7907 -0.2802  0.1088
10248TIP3    H252160   2.576   5.979   4.160 -0.8522  3.1261  1.0505
10249TIP3   OH252161   4.749   1.164   4.054  0.2518 -0.2268 -0.1725
10249TIP3    H152162   4.774   1.241   4.104 -0.2249  0.7313 -1.3599
10249TIP3    H252163   4.657   1.150   4.074 -0.2582  0.8392 -1.5627
10250TIP3   OH252164   3.805   5.991   2.435  0.4489 -0.8193  0.1190
10250TIP3    H152165   3.819   6.040   2.516 -0.2101  0.5406 -0.5528
10250TIP3    H252166   3.893   5.963   2.409  0.9316  0.5068  0.2427
10251TIP3   OH252167   5.959   6.742  14.916 -0.2433  0.5283 -0.0914
10251TIP3    H152168   5.993   6.653  14.922 -2.7015 -0.5010 -0.5104
10251TIP3    H252169   5.864   6.732  14.910 -0.4888  3.0431 -2.5896
10252TIP3   OH252170   5.808   2.395   2.810  0.3480 -0.8126 -0.1724
10252TIP3    H152171   5.759   2.313   2.817  0.0549 -0.6059  0.2377
10252TIP3    H252172   5.749   2.461   2.846  1.2096 -0.6664  1.0270
10253TIP3   OH252173   5.113   1.629  14.458  0.5886 -0.1231  0.5307
10253TIP3    H152174   5.201   1.658  14.432 -0.7116  2.2035 -1.7433
10253TIP3    H252175   5.061   1.636  14.378 -2.0638  0.2348  2.1819
10254TIP3   OH252176   0.653   2.154   4.877  0.5204 -0.3971 -0.6622
10254TIP3    H152177   0.667   2.206   4.956 -0.7321 -1.4352  0.2859
10254TIP3    H252178   0.631   2.066   4.909 -2.8271 -0.2079 -2.0142
10255TIP3   OH252179   4.219   4.226   0.948  0.7328 -0.1761  0.3487
10255TIP3    H152180   4.173   4.266   0.873  1.0198 -2.3478 -1.0865
10255TIP3    H252181   4.306   4.205   0.914  1.4433  0.2754  1.8286
10256TIP3   OH252182   5.283   6.821  10.982 -0.3500 -0.2530 -0.3907
10256TIP3    H152183   5.200   6.774  10.978 -0.1641 -0.6155 -0.0424
10256TIP3    H252184   5.339   6.776  10.919 -0.3092 -0.2230 -0.3755
10257TIP3   OH252185   5.392   0.764   0.735  0.2688  0.0303 -0.3180
10257TIP3    H152186   5.439   0.712   0.800 -0.8828  0.5066  0.9547
10257TIP3    H252187   5.310   0.716   0.722 -0.8260  1.4673  0.8957
10258TIP3   OH252188   6.605   4.536  11.599  0.5142 -0.1359 -0.3335
10258TIP3    H152189   6.589   4.626  11.624  0.0483 -0.3427  0.1254
10258TIP3    H252190   6.526   4.509  11.552  1.1311  0.0595 -1.5185
10259TIP3   OH252191   6.461   4.927  12.228 -0.5181  0.1875 -0.4542
10259TIP3    H152192   6.551   4.899  12.209  0.0969 -0.1121  2.4540
10259TIP3    H252193   6.461   5.021  12.207 -0.4940 -0.3804 -3.3628
10260TIP3   OH252194   5.730   3.347  15.404  0.4205 -0.0724  0.3889
10260TIP3    H152195   5.814   3.379  15.373 -0.0145 -1.0885 -2.0249
10260TIP3    H252196   5.753   3.285  15.474  1.5802  0.4981  0.5448
10261TIP3   OH252197   3.332   5.815  11.916  0.0200 -0.5958 -0.0092
10261TIP3    H152198   3.336   5.730  11.961 -1.5105 -0.2118  0.9201
10261TIP3    H252199   3.335   5.879  11.987 -3.6856  0.0202 -0.2407
10262TIP3   OH252200   6.720   0.897  14.766  0.1026  0.1723 -0.4937
10262TIP3    H152201   6.784   0.842  14.721 -1.1598  0.4795 -2.8378
10262TIP3    H252202   6.772   0.968  14.804  1.4230 -1.0517  0.0763
10263TIP3   OH252203   1.861   7.048  12.000  0.2900 -0.2742 -0.0811
10263TIP3    H152204   1.881   7.115  11.934 -2.4068  0.2446 -0.4925
10263TIP3    H252205   1.848   7.097  12.081 -2.5681 -0.0516 -0.5641
10264TIP3   OH252206   2.604   3.386   3.063 -0.2777  0.1795 -0.0243
10264TIP3    H152207   2.565   3.318   3.008 -1.3104 -0.2469  1.1800
10264TIP3    H252208   2.670   3.340   3.115 -2.3496 -0.4074  2.2436
10265TIP3   OH252209   4.394   4.622   5.009  0.8301  0.1037  0.5546
10265TIP3    H152210   4.370   4.556   5.074 -0.9582 -1.7009 -1.7787
10265TIP3    H252211   4.489   4.614   5.002  0.6606 -2.8092 -0.0668
10266TIP3   OH252212   0.638   6.015   1.740  0.2378 -0.0708  0.2131
10266TIP3    H152213   0.627   6.027   1.646  1.5858  1.3762  0.1954
10266TIP3    H252214   0.576   5.945   1.763 -0.0897 -0.4758 -1.7301
10267TIP3   OH252215   1.301   0.190   0.157 -0.2607 -0.4904  0.4809
10267TIP3    H152216   1.227   0.134   0.132 -2.4042  2.8130 -1.2884
10267TIP3    H252217   1.356   0.194   0.078  0.2447 -0.5967  0.8207
10268TIP3   OH252218   3.158   0.805   1.723  0.1939 -0.1426 -0.3603
10268TIP3    H152219   3.233   0.853   1.759  0.1251  0.4067 -0.9236
10268TIP3    H252220   3.083   0.863   1.739  0.1141 -0.0394 -1.0896
10269TIP3   OH252221   2.629   6.458   2.127 -0.3941 -0.4020  0.0913
10269TIP3    H152222   2.593   6.432   2.212 -2.2278 -0.5161 -0.6844
10269TIP3    H252223   2.556   6.450   2.066  1.1421 -1.3282 -1.7255
10270TIP3   OH252224   6.441   3.833   3.111  0.6593  0.2159  0.2726
10270TIP3    H152225   6.400   3.747   3.118  0.2651  0.4354  0.7168
10270TIP3    H252226   6.481   3.848   3.196  0.7737  0.4507  0.1792
10271TIP3   OH252227   3.632   1.631   2.103 -0.5886 -0.6282 -0.4394
10271TIP3    H152228   3.602   1.645   2.193 -0.8119  0.1035 -0.6213
10271TIP3    H252229   3.715   1.584   2.112 -0.6024 -0.5425  0.1502
10272TIP3   OH252230   1.557   1.634  13.022 -0.5228  0.4377 -0.0067
10272TIP3    H152231   1.546   1.612  12.929 -0.4769  0.5232 -0.0324
10272TIP3    H252232   1.650   1.654  13.031 -0.1883 -1.2047  0.4155
10273TIP3   OH252233   4.666   6.914   2.832 -0.9016  0.1112  0.3765
10273TIP3    H152234   4.597   6.872   2.882 -1.6494  2.2000  1.2417
10273TIP3    H252235   4.663   7.006   2.860  0.6043  0.7626 -1.3778
10274TIP3   OH252236   5.771   7.155   4.965 -0.3081  0.1322  0.5563
10274TIP3    H152237   5.697   7.143   4.906  0.3940  0.6082 -0.4354
10274TIP3    H252238   5.810   7.067   4.972  0.2687  0.2774 -0.6009
10275TIP3   OH252239   4.745   6.603   5.281 -0.7663 -0.2583 -0.4290
10275TIP3    H152240   4.714   6.584   5.370  1.4764 -0.6192  0.3474
10275TIP3    H252241   4.773   6.694   5.285 -0.8147 -0.2271 -0.8109
10276TIP3   OH252242   6.193   4.805   3.093  0.0005  0.0381 -0.1203
10276TIP3    H152243   6.180   4.856   3.013 -0.9467  1.3470  0.8240
10276TIP3    H252244   6.243   4.864   3.151 -2.2727  0.5077  1.5056
10277TIP3   OH252245   6.499   6.013   9.826 -0.0862  0.1489 -0.2926
10277TIP3    H152246   6.456   6.072   9.763  0.4605  2.3271  1.2505
10277TIP3    H252247   6.567   5.970   9.775 -0.5955  0.7348 -1.5272
10278TIP3   OH252248   5.521   5.466   2.476  0.4819  0.1837 -0.2423
10278TIP3    H152249   5.540   5.511   2.558  0.7621 -0.1400 -0.1315
10278TIP3    H252250   5.485   5.535   2.420  3.0162  1.1299 -0.8719
10279TIP3   OH252251   5.587   0.396   4.308  0.0470  0.4545  0.4725
10279TIP3    H152252   5.567   0.438   4.225  1.0425  1.4556  0.7164
10279TIP3    H252253   5.605   0.468   4.369  3.0237 -0.2361  0.6023
10280TIP3   OH252254   5.854   0.745   2.150  0.3573  0.4056 -0.0824
10280TIP3    H152255   5.807   0.799   2.213 -0.6807  0.0527 -0.5261
10280TIP3    H252256   5.941   0.783   2.146  0.6892  0.0018  2.0874
10281TIP3   OH252257   4.919   3.762   3.327 -0.8910 -0.4988 -0.3471
10281TIP3    H152258   4.914   3.667   3.316  1.1606 -0.5610 -1.3290
10281TIP3    H252259   4.913   3.797   3.238  0.8386  0.0833 -0.2797
10282TIP3   OH252260   4.194   1.996  13.949  0.1144 -0.0464  0.2961
10282TIP3    H152261   4.236   1.911  13.936 -0.3168 -0.4524  1.4221
10282TIP3    H252262   4.258   2.048  13.998 -0.3207 -0.3479  1.1965
10283TIP3   OH252263   4.702   6.410  12.323  0.1016 -0.0943 -0.8848
10283TIP3    H152264   4.657   6.485  12.284 -0.8205 -1.4584 -2.6205
10283TIP3    H252265   4.779   6.397  12.268 -0.4687 -1.2131 -1.4493
10284TIP3   OH252266   3.085   4.029  15.006  0.5692 -0.0408 -0.2039
10284TIP3    H152267   3.006   4.075  14.976 -0.7515 -0.8089  1.8419
10284TIP3    H252268   3.117   3.984  14.928 -1.1916  0.0792 -1.0575
10285TIP3   OH252269   0.796   2.476  13.867  0.2331  0.9829 -0.3810
10285TIP3    H152270   0.768   2.568  13.869 -0.1194  0.8776 -0.1786
10285TIP3    H252271   0.877   2.475  13.918 -0.9719  0.8144  1.6299
10286TIP3   OH252272   4.731   6.559   1.356  0.5163  0.1067  0.0467
10286TIP3    H152273   4.816   6.522   1.333  0.1671 -0.3447 -0.5388
10286TIP3    H252274   4.668   6.513   1.300 -0.2787 -0.5021  1.3681
10287TIP3   OH252275   1.543   2.702   2.979  0.2126  0.4460  0.4103
10287TIP3    H152276   1.606   2.772   2.994  1.6184 -0.6381 -0.1396
10287TIP3    H252277   1.467   2.725   3.033  1.0241  1.8613  0.9908
10288TIP3   OH252278   6.080   2.802   2.439  0.4944 -0.3046  0.0109
10288TIP3    H152279   6.145   2.826   2.373 -0.5014  2.2589 -0.1413
10288TIP3    H252280   5.996   2.816   2.397 -0.1694 -0.7961  1.1264
10289TIP3   OH252281   1.486   4.214   1.593 -0.3112  0.0585 -0.1474
10289TIP3    H152282   1.560   4.199   1.534 -0.3468  2.6812 -0.9965
10289TIP3    H252283   1.411   4.226   1.535 -0.4734  2.0363  0.3975
10290TIP3   OH252284   0.659   6.596  12.500 -0.5200  0.1863  0.1592
10290TIP3    H152285   0.653   6.503  12.479 -0.4682  0.0645  0.6913
10290TIP3    H252286   0.638   6.602  12.593  0.1989  0.6205  0.3054
10291TIP3   OH252287   0.298   3.279   1.155  0.4696  0.3990 -0.5414
10291TIP3    H152288   0.335   3.337   1.087  0.8484  2.3568  1.2331
10291TIP3    H252289   0.368   3.269   1.219 -0.7849  0.9810  0.9732
10292TIP3   OH252290   5.116   5.165  10.051 -0.6798  0.4419  0.1271
10292TIP3    H152291   5.189   5.190   9.994 -1.2110  0.0443 -0.7564
10292TIP3    H252292   5.093   5.245  10.098 -0.9323  1.0689 -1.0279
10293TIP3   OH252293   7.136   6.152  10.691 -0.3477 -0.2393 -0.0613
10293TIP3    H152294   7.196   6.153  10.616  1.3157  0.3166  1.2253
10293TIP3    H252295   7.158   6.071  10.738  0.4622  0.6800  1.2074
10294TIP3   OH252296   5.621   3.598   2.952  0.1423 -0.8729 -0.1027
10294TIP3    H152297   5.647   3.519   2.904  1.7223 -0.8622  0.6595
10294TIP3    H252298   5.642   3.578   3.044 -1.0885 -0.2040  0.3462
10295TIP3   OH252299   4.105   6.970  14.892 -0.4006 -0.3175  0.3895
10295TIP3    H152300   4.135   7.036  14.955  0.2799  0.9557 -1.1938
10295TIP3    H252301   4.117   6.886  14.937  1.3621  0.4616  1.4525
10296TIP3   OH252302   2.425   6.903  14.642 -0.1642  0.0729 -0.0074
10296TIP3    H152303   2.361   6.971  14.622  0.8913  1.3098  0.6844
10296TIP3    H252304   2.510   6.944  14.627  0.5059 -1.0507  0.5505
10297TIP3   OH252305   0.716   6.078   0.606  0.6660 -0.3000 -0.1696
10297TIP3    H152306   0.713   6.110   0.516  0.8769 -1.1259 -0.4774
10297TIP3    H252307   0.627   6.047   0.624  0.1776  1.3594  0.4865
10298TIP3   OH252308   0.464   5.555   2.350 -0.2917 -0.5265  0.1630
10298TIP3    H152309   0.376   5.550   2.312  0.3591 -1.7454 -1.2656
10298TIP3    H252310   0.449   5.583   2.441 -2.0127  0.8821 -0.4946
10299TIP3   OH252311   3.237   4.809   0.394  0.0911 -0.0303  0.0052
10299TIP3    H152312   3.162   4.840   0.445  0.0201  0.2425 -0.2664
10299TIP3    H252313   3.292   4.765   0.459 -1.4954 -2.4697 -0.1886
10300TIP3   OH252314   1.402   6.150  12.089 -0.5811  0.0271  0.5485
10300TIP3    H152315   1.383   6.068  12.044  0.7261  0.9875 -1.9265
10300TIP3    H252316   1.318   6.177  12.127 -1.4853 -1.4045 -0.3698
10301TIP3   OH252317   2.088   5.144   0.533 -0.2805 -0.6138  0.4482
10301TIP3    H152318   2.105   5.163   0.626  0.5057 -1.9180  0.6021
10301TIP3    H252319   2.087   5.229   0.491 -0.0719 -0.0363  1.5740
10302TIP3   OH252320   0.221   0.664  12.454  0.0198  0.5708  0.6025
10302TIP3    H152321   0.201   0.591  12.512  0.2418  2.1493  2.7865
10302TIP3    H252322   0.139   0.681  12.408  0.3252 -1.8568 -0.9867
10303TIP3   OH252323   6.440   2.697  12.811 -0.9695 -0.1051  0.6596
10303TIP3    H152324   6.351   2.726  12.793 -0.3664  1.9004  0.6890
10303TIP3    H252325   6.460   2.734  12.897 -0.4475 -1.4078  1.1226
10304TIP3   OH252326   6.847   0.269   0.537 -0.6691  0.1507  0.1862
10304TIP3    H152327   6.917   0.256   0.473 -0.6830  0.4043  0.1165
10304TIP3    H252328   6.806   0.183   0.546 -0.4463  0.0360  0.1127
10305TIP3   OH252329   4.113   5.949  15.394  0.3943 -0.4787 -0.3171
10305TIP3    H152330   4.033   5.997  15.417  1.1987  0.8820 -0.2555
10305TIP3    H252331   4.169   5.957  15.471  0.6307 -1.3529 -0.3897
10306TIP3   OH252332   5.825   2.202  14.714 -0.2703 -0.0029  0.1623
10306TIP3    H152333   5.899   2.156  14.753 -0.9538 -0.3692  1.0579
10306TIP3    H252334   5.842   2.200  14.620  0.2707 -1.0990  0.2697
10307TIP3   OH252335   1.618   1.356   3.378  0.1647  0.3932  0.0142
10307TIP3    H152336   1.551   1.298   3.341  0.6082  0.3276 -0.7109
10307TIP3    H252337   1.584   1.444   3.362  1.4801  0.4965 -2.9655
10308TIP3   OH252338   0.105   3.378   1.681 -0.5047  0.3492  0.8820
10308TIP3    H152339   0.039   3.446   1.667 -0.5209 -0.0429 -1.2319
10308TIP3    H252340   0.110   3.331   1.598 -0.4491 -2.2503  2.2416
10309TIP3   OH252341   2.612   4.436   4.882 -0.2676  0.0985  0.4616
10309TIP3    H152342   2.582   4.527   4.882 -0.0627  0.2101 -1.6237
10309TIP3    H252343   2.548   4.390   4.936 -2.7091  0.8103 -1.6451
10310TIP3   OH252344   4.063   1.416   5.495 -0.9339  0.0543  0.2915
10310TIP3    H152345   3.988   1.476   5.488 -0.1101  1.0222 -0.5907
10310TIP3    H252346   4.133   1.470   5.531 -0.2638 -0.4560 -0.2301
10311TIP3   OH252347   3.707   6.122   1.254 -0.2463  0.0473 -0.3165
10311TIP3    H152348   3.717   6.028   1.240 -0.2595 -0.0334  0.2085
10311TIP3    H252349   3.772   6.144   1.321 -0.4676  0.3487 -0.1978
10312TIP3   OH252350   4.434   2.155  15.448 -0.0117 -0.2533  0.2966
10312TIP3    H152351   4.488   2.090  15.403 -1.2923 -0.2463 -1.3643
10312TIP3    H252352   4.472   2.162  15.536  1.9397 -1.0846 -0.4176
10313TIP3   OH252353   5.389   1.970  13.921 -0.0230  0.1446 -0.1948
10313TIP3    H152354   5.410   1.947  14.011 -0.1674 -1.8319 -0.6330
10313TIP3    H252355   5.299   1.942  13.909  0.3672 -0.7400 -1.2849
10314TIP3   OH252356   6.765   3.513  11.648  0.0957 -0.0463  0.4873
10314TIP3    H152357   6.843   3.553  11.686  0.4832 -1.3200  1.0786
10314TIP3    H252358   6.698   3.523  11.716  0.8257 -2.4517  1.6934
10315TIP3   OH252359   6.353   0.749   3.955  0.0859  0.6736  0.2380
10315TIP3    H152360   6.329   0.760   3.863 -2.1666 -0.2386  0.6479
10315TIP3    H252361   6.444   0.720   3.953 -0.7675 -2.3528 -1.9209
10316TIP3   OH252362   2.907   6.653  12.568  0.1060 -0.0323  0.2461
10316TIP3    H152363   2.919   6.578  12.626  2.6209 -0.4557 -0.6930
10316TIP3    H252364   2.985   6.654  12.513 -1.8919  0.6765 -2.8166
10317TIP3   OH252365   4.717   3.257   3.723  0.0925  0.5113  0.1076
10317TIP3    H152366   4.760   3.208   3.792  0.1421 -0.5952 -0.6868
10317TIP3    H252367   4.701   3.343   3.761  2.5603  0.8290  0.5812
10318TIP3   OH252368   5.991   3.701   9.586 -0.4245 -0.6121  0.2156
10318TIP3    H152369   5.962   3.611   9.567  0.3509 -0.8431  0.0910
10318TIP3    H252370   5.941   3.755   9.525 -0.9201 -0.9547  0.3100
10319TIP3   OH252371   5.978   3.125  15.137 -0.0213 -0.4930 -0.5412
10319TIP3    H152372   5.906   3.145  15.078 -0.3100 -0.1009 -0.0628
10319TIP3    H252373   6.044   3.192  15.119  0.0066 -0.5398 -0.6128
10320TIP3   OH252374   5.263   4.056   1.908 -0.0702  0.0507  0.0258
10320TIP3    H152375   5.184   4.076   1.858  0.0392  2.8667  0.8339
10320TIP3    H252376   5.332   4.045   1.842 -0.6962 -0.1967 -0.5889
10321TIP3   OH252377   0.626   1.938   5.026  0.5291 -0.4176 -0.1908
10321TIP3    H152378   0.683   1.868   5.059  0.5222 -0.5323 -0.4190
10321TIP3    H252379   0.537   1.906   5.044  0.5001 -0.8026 -0.9388
10322TIP3   OH252380   2.461   5.910   3.903  0.0467  0.7972  0.0375
10322TIP3    H152381   2.448   5.942   3.813 -0.5343  1.1190  0.2316
10322TIP3    H252382   2.527   5.968   3.940 -0.3852  1.2409  0.1152
10323TIP3   OH252383   6.953   3.901   5.016 -0.7486  0.1848 -0.2380
10323TIP3    H152384   6.916   3.962   5.079  0.9873  0.1075  0.9434
10323TIP3    H252385   6.918   3.928   4.932 -2.1338  1.0889  0.6054
10324TIP3   OH252386   0.038   7.089   1.653 -0.9913  0.7754 -0.0805
10324TIP3    H152387  -0.037   7.147   1.667 -0.6539  0.9329  1.2720
10324TIP3    H252388   0.073   7.075   1.741  1.7230  2.2723 -0.8265
10325TIP3   OH252389   5.099   2.668   3.366 -0.3280 -0.4500  0.0019
10325TIP3    H152390   5.146   2.716   3.297 -0.1694 -2.3659 -1.2918
10325TIP3    H252391   5.100   2.577   3.336  0.1547 -1.4418  2.7961
10326TIP3   OH252392   0.362   3.687  14.568  0.0541  0.0438 -0.2581
10326TIP3    H152393   0.357   3.707  14.474 -0.6775 -1.0084 -0.4677
10326TIP3    H252394   0.274   3.707  14.601  0.7747  2.0270  0.5756
10327TIP3   OH252395   2.480   5.965  14.728 -0.6698  0.0269 -0.3175
10327TIP3    H152396   2.503   6.001  14.642 -0.1836  0.2455 -0.1042
10327TIP3    H252397   2.564   5.962  14.775 -0.8182 -0.7420 -0.0905
10328TIP3   OH252398   2.187   1.835   3.956  0.7531 -0.5130 -0.0766
10328TIP3    H152399   2.123   1.904   3.971  2.0556  0.4295  1.4089
10328TIP3    H252400   2.140   1.771   3.902 -1.0249  0.7075 -0.0744
10329TIP3   OH252401   4.054   4.363  12.728 -0.2938  0.2229 -0.0352
10329TIP3    H152402   4.091   4.361  12.816  0.8091 -0.5385 -0.4991
10329TIP3    H252403   4.107   4.301  12.678 -1.5222 -0.0970 -0.9997
10330TIP3   OH252404   2.206   4.860  13.147 -0.2626 -0.1201  0.8806
10330TIP3    H152405   2.166   4.906  13.221  0.4678  0.6756  0.8024
10330TIP3    H252406   2.279   4.812  13.187  1.0286  1.4387  0.5244
10331TIP3   OH252407   2.740   4.804  14.665 -0.4249  0.4802  0.4722
10331TIP3    H152408   2.733   4.865  14.592  0.3837 -1.7386 -1.6062
10331TIP3    H252409   2.659   4.752  14.661 -0.2575  0.1620  1.0246
10332TIP3   OH252410   4.162   3.966  12.411 -0.3270 -0.5954 -0.1104
10332TIP3    H152411   4.084   3.957  12.356 -1.7126 -0.7842  1.8030
10332TIP3    H252412   4.204   3.879  12.407 -0.8134 -0.8265 -0.2676
10333TIP3   OH252413   0.787   6.241   1.382 -0.0529 -1.0902 -0.2457
10333TIP3    H152414   0.734   6.273   1.455  0.5884  0.1124 -0.2800
10333TIP3    H252415   0.875   6.276   1.399 -0.2029  0.4866 -2.3180
10334TIP3   OH252416   2.313   6.441   2.535 -0.1130 -0.2211  0.7502
10334TIP3    H152417   2.297   6.477   2.622 -0.8838 -0.1870  0.6042
10334TIP3    H252418   2.285   6.509   2.475  0.1882 -0.3398  0.4716
10335TIP3   OH252419   3.073   6.422  15.441 -0.3256  0.0427  0.0481
10335TIP3    H152420   3.073   6.513  15.472  2.7423  0.4031 -0.6946
10335TIP3    H252421   3.084   6.370  15.521 -1.7615  0.3035  0.4442
10336TIP3   OH252422   1.363   6.327  10.400 -0.4404 -0.1792 -0.0834
10336TIP3    H152423   1.367   6.352  10.308 -2.4415 -0.4040 -0.2694
10336TIP3    H252424   1.455   6.321  10.427  0.2238  2.9859 -1.1811
10337TIP3   OH252425   0.476   4.141   9.665 -0.2138  0.2213  0.0974
10337TIP3    H152426   0.416   4.111   9.597 -0.3795  0.1910  0.2580
10337TIP3    H252427   0.471   4.237   9.661 -1.0669  0.2173  0.8143
10338TIP3   OH252428   4.763   4.678   3.269 -0.9410  0.4303  0.4301
10338TIP3    H152429   4.673   4.683   3.239 -1.3505 -2.5291  0.8877
10338TIP3    H252430   4.762   4.716   3.357 -1.3335  1.9739 -0.2134
10339TIP3   OH252431   5.354   0.504  12.345 -0.1929  0.0159 -0.5641
10339TIP3    H152432   5.342   0.504  12.439 -1.3458 -1.7879 -0.6656
10339TIP3    H252433   5.434   0.555  12.331 -0.0400  0.3755  1.3552
10340TIP3   OH252434   1.615   3.880   2.730  0.6650 -0.2845  0.1546
10340TIP3    H152435   1.550   3.816   2.760 -0.0506  0.7523  0.9134
10340TIP3    H252436   1.564   3.960   2.717  1.5176  0.1004 -0.8964
10341TIP3   OH252437   6.902   3.231   5.521  0.7462 -0.3554  0.2829
10341TIP3    H152438   6.832   3.296   5.519  0.0759 -0.8033  3.7298
10341TIP3    H252439   6.861   3.150   5.489  0.7967  0.2182 -1.2995
10342TIP3   OH252440   1.043   2.747  13.386 -0.3819  0.2856 -0.0972
10342TIP3    H152441   0.949   2.762  13.376 -0.7192 -0.9250  1.0589
10342TIP3    H252442   1.051   2.655  13.412  1.1045  0.4379  0.0958
10343TIP3   OH252443   0.418   3.682   0.719 -0.2509 -0.1982 -0.0487
10343TIP3    H152444   0.511   3.690   0.744 -0.2107 -0.9167  0.0446
10343TIP3    H252445   0.418   3.625   0.643 -0.5304  0.6961 -0.7419
10344TIP3   OH252446   5.736   0.197   0.264  0.0009 -0.3660  0.4358
10344TIP3    H152447   5.677   0.134   0.306  0.8798 -1.0546  0.6656
10344TIP3    H252448   5.723   0.183   0.170 -0.2767 -0.4354  0.4834
10345TIP3   OH252449   6.239   6.875  11.031 -0.1805  0.5549 -0.3048
10345TIP3    H152450   6.146   6.894  11.024  0.0701  1.2887 -2.2222
10345TIP3    H252451   6.265   6.912  11.116 -1.6408  0.2198  0.3056
10346TIP3   OH252452   1.159   4.971  15.117 -0.2216 -0.6159 -0.7179
10346TIP3    H152453   1.084   5.019  15.152 -0.1150 -0.0449 -1.2610
10346TIP3    H252454   1.164   4.892  15.171  0.5510  0.6953  1.2615
10347TIP3   OH252455   1.919   0.243  10.524  0.3487  0.1736  0.6091
10347TIP3    H152456   1.975   0.169  10.500  0.1564  0.0250  0.6097
10347TIP3    H252457   1.862   0.208  10.592  1.5229  0.8623  1.9803
10348TIP3   OH252458   2.774   0.301   2.225  0.6481 -0.1018  0.1717
10348TIP3    H152459   2.851   0.277   2.174 -0.7187 -0.9290 -1.6147
10348TIP3    H252460   2.774   0.239   2.298  1.9547  0.2640  0.5037
10349TIP3   OH252461   2.905   0.778   2.925 -0.1382  0.0489 -0.4073
10349TIP3    H152462   2.831   0.726   2.892  0.7991 -0.5444 -1.6620
10349TIP3    H252463   2.949   0.721   2.987 -0.4657  0.2427  0.0107
10350TIP3   OH252464   3.162   2.342   4.944  0.2793 -0.4018 -0.3354
10350TIP3    H152465   3.084   2.378   4.902 -1.1512 -1.1225  1.5775
10350TIP3    H252466   3.136   2.255   4.973  1.7882 -0.6501  0.4106
10351TIP3   OH252467   4.574   5.791   3.575 -0.1095 -0.1613  0.8649
10351TIP3    H152468   4.552   5.772   3.483 -0.0629 -1.3963  1.0914
10351TIP3    H252469   4.621   5.874   3.571 -0.6037  0.0971 -0.1650
10352TIP3   OH252470   3.438   5.633   3.903 -0.1558 -0.0575 -0.1982
10352TIP3    H152471   3.368   5.600   3.959  0.5677 -1.2565  0.0328
10352TIP3    H252472   3.407   5.617   3.814 -0.4254 -0.0412 -0.1094
10353TIP3   OH252473   6.686   4.518   5.245 -0.2188 -0.3518  1.1023
10353TIP3    H152474   6.756   4.574   5.213 -0.1911 -0.1081  1.5782
10353TIP3    H252475   6.613   4.579   5.261 -0.9934 -0.7728 -0.6476
10354TIP3   OH252476   5.126   1.184   2.297  0.5539 -0.6862  0.3058
10354TIP3    H152477   5.045   1.205   2.344 -0.2151 -1.3337 -0.6870
10354TIP3    H252478   5.192   1.178   2.366  0.1405  1.5242  0.9851
10355TIP3   OH252479   2.610   2.689   1.709 -0.2234 -0.6316 -0.8937
10355TIP3    H152480   2.603   2.681   1.804 -1.3131  0.4551 -0.8560
10355TIP3    H252481   2.552   2.762   1.687  1.4467  0.3719 -2.1955
10356TIP3   OH252482   6.573   0.754   0.799 -0.1838  0.2038 -0.0603
10356TIP3    H152483   6.567   0.659   0.806 -0.0741  0.2649  0.9095
10356TIP3    H252484   6.572   0.771   0.704  0.8452 -0.8168 -0.2741
10357TIP3   OH252485   4.744   2.885   4.183  0.4508 -0.1611 -0.0220
10357TIP3    H152486   4.661   2.854   4.220 -0.5588 -0.1511 -2.1387
10357TIP3    H252487   4.771   2.815   4.124  1.0893  0.5404 -0.5750
10358TIP3   OH252488   5.083   2.923  12.386  0.5006  0.0931 -0.5738
10358TIP3    H152489   5.063   2.867  12.461  1.3391  1.4376  0.7034
10358TIP3    H252490   5.020   2.896  12.319 -0.1444 -1.2848  0.5327
10359TIP3   OH252491   5.342   4.359   1.526 -0.5521  0.1074 -0.3803
10359TIP3    H152492   5.395   4.431   1.559  1.1246 -1.9745  1.8535
10359TIP3    H252493   5.394   4.320   1.456  0.3493 -1.0958  0.8946
10360TIP3   OH252494   4.346   4.464  13.529  0.5372 -0.4867 -0.0343
10360TIP3    H152495   4.371   4.382  13.487  1.3540 -0.9049  1.2332
10360TIP3    H252496   4.392   4.532  13.479  0.5558 -0.8664 -0.5408
10361TIP3   OH252497   6.248   1.209  14.919  0.1497 -0.4480 -0.4306
10361TIP3    H152498   6.243   1.301  14.894 -0.3724 -0.4232 -0.2333
10361TIP3    H252499   6.235   1.209  15.014 -1.0714 -0.8317 -0.5913
10362TIP3   OH252500   5.939   6.737   1.128  0.1330 -0.1941 -0.1704
10362TIP3    H152501   6.031   6.757   1.116  0.1137 -0.2749 -0.4681
10362TIP3    H252502   5.932   6.710   1.220  0.3393  0.1494 -0.0512
10363TIP3   OH252503   0.808   5.447   4.085  0.5056  0.5900  0.1047
10363TIP3    H152504   0.761   5.403   4.014 -3.9625  0.5077  2.7611
10363TIP3    H252505   0.834   5.531   4.047 -0.3850 -0.0253 -2.0365
10364TIP3   OH252506   5.637   0.929   1.654  0.1783 -0.4450 -0.1902
10364TIP3    H152507   5.605   0.970   1.574 -1.0174 -1.6089 -0.3428
10364TIP3    H252508   5.564   0.936   1.715 -0.3858 -2.9709 -0.4691
10365TIP3   OH252509   6.413   5.664  13.227  0.3437  0.7094  0.4770
10365TIP3    H152510   6.333   5.680  13.177  1.1738  0.7931 -0.8689
10365TIP3    H252511   6.385   5.610  13.301 -0.8196  0.0693 -0.4074
10366TIP3   OH252512   0.048   6.636   2.249  0.6610 -1.0486  0.1074
10366TIP3    H152513   0.139   6.609   2.239  0.9065  0.4444 -2.8770
10366TIP3    H252514   0.044   6.673   2.337  2.1674 -3.5964  1.3657
10367TIP3   OH252515   3.589   5.292   1.667 -0.0866 -0.7066 -0.2053
10367TIP3    H152516   3.530   5.218   1.683 -2.4852  1.2572  0.6413
10367TIP3    H252517   3.553   5.363   1.719 -0.2314  2.2007 -3.8571
10368TIP3   OH252518   5.960   4.649   2.625  0.3984  0.1760 -0.1893
10368TIP3    H152519   5.991   4.584   2.562  0.2546 -1.2564  1.1874
10368TIP3    H252520   5.883   4.610   2.665 -0.8376  1.9943 -0.6356
10369TIP3   OH252521   2.271   6.581  11.035  0.2901 -0.0400 -0.0297
10369TIP3    H152522   2.190   6.586  11.087  0.4003 -1.1074  0.2608
10369TIP3    H252523   2.330   6.642  11.079 -1.3296  3.3724 -2.1477
10370TIP3   OH252524   0.878   2.955   4.494 -0.6502 -1.4860 -0.2216
10370TIP3    H152525   0.816   3.025   4.475  0.5127 -0.6840 -1.1718
10370TIP3    H252526   0.863   2.935   4.587 -1.1601 -0.1450  0.0046
10371TIP3   OH252527   3.830   3.259   3.900 -0.5857 -0.0480  0.2794
10371TIP3    H152528   3.812   3.286   3.810  0.0709  1.0831  0.4713
10371TIP3    H252529   3.745   3.264   3.944 -0.6908  0.5792  0.0153
10372TIP3   OH252530   3.842   4.292   5.004  0.3812 -0.6667 -0.0324
10372TIP3    H152531   3.837   4.387   4.999 -0.9854 -0.7398 -0.5392
10372TIP3    H252532   3.923   4.274   5.052  0.5296  0.7474  0.2747
10373TIP3   OH252533   6.185   3.375   2.469 -0.3124  0.0764  0.6630
10373TIP3    H152534   6.281   3.381   2.474 -0.4113  1.3299  1.5105
10373TIP3    H252535   6.154   3.406   2.554 -1.4980  0.7924  0.0045
10374TIP3   OH252536   1.158   3.548  13.600 -0.6065 -0.6772 -0.5607
10374TIP3    H152537   1.228   3.505  13.649 -1.2601 -2.3652 -1.0336
10374TIP3    H252538   1.202   3.597  13.531  0.2447  0.6584  0.8581
10375TIP3   OH252539   4.602   6.946  10.018 -0.5020  0.1853 -1.0042
10375TIP3    H152540   4.605   6.858   9.981  0.7180 -0.2113 -0.0048
10375TIP3    H252541   4.517   6.981   9.989 -0.5488 -0.9101 -2.2889
10376TIP3   OH252542   1.283   6.538   2.796  0.0394  0.3322  0.1200
10376TIP3    H152543   1.340   6.614   2.811 -0.0394  0.3721  0.2132
10376TIP3    H252544   1.334   6.464   2.828  0.7349  0.1527 -1.3068
10377TIP3   OH252545   0.909   3.239   4.187  0.4281  0.0709 -0.1350
10377TIP3    H152546   0.953   3.163   4.224  0.1349  0.1968  0.4819
10377TIP3    H252547   0.820   3.235   4.222  0.2970  0.4848 -0.4091
10378TIP3   OH252548   6.035   4.117  10.660  0.4142  0.1496  0.2144
10378TIP3    H152549   5.993   4.194  10.623  1.2895 -0.0565 -1.2835
10378TIP3    H252550   5.963   4.056  10.676 -0.0697  0.5518 -0.3787
10379TIP3   OH252551   4.582   0.675   4.644  0.7098  0.7028 -0.1916
10379TIP3    H152552   4.519   0.644   4.578 -0.5551 -0.7922  1.6045
10379TIP3    H252553   4.584   0.770   4.632 -0.0161  0.5414 -1.8992
10380TIP3   OH252554   5.432   0.236  14.861  0.2046 -0.4945 -0.4320
10380TIP3    H152555   5.341   0.249  14.886  0.0630 -1.1042 -0.6292
10380TIP3    H252556   5.462   0.323  14.833 -0.1077 -0.1438  0.2919
10381TIP3   OH252557   5.105   4.454  14.173 -0.7618 -0.2474 -0.0558
10381TIP3    H152558   5.109   4.531  14.116 -1.5484 -0.7065 -0.7579
10381TIP3    H252559   5.152   4.386  14.125 -1.1839 -0.5569 -0.0374
10382TIP3   OH252560   6.030   4.982  13.489  0.0343  0.0374 -0.7369
10382TIP3    H152561   6.042   5.011  13.398  0.0662  1.0204 -0.4338
10382TIP3    H252562   6.079   5.046  13.541 -0.7311  0.0095  0.0358
10383TIP3   OH252563   2.089   1.274  14.667 -0.0146 -0.1773  0.3264
10383TIP3    H152564   2.123   1.246  14.752 -0.1723 -1.6725 -0.0648
10383TIP3    H252565   2.168   1.290  14.614  0.0894 -0.7160  0.3129
10384TIP3   OH252566   6.041   3.239  14.854  0.2058  0.1769  0.7271
10384TIP3    H152567   6.057   3.327  14.890 -0.1465 -0.8757  3.7562
10384TIP3    H252568   5.947   3.226  14.865 -0.0772  0.0807 -1.4944
10385TIP3   OH252569   3.961   5.245   0.665  0.3383  0.0454 -0.6710
10385TIP3    H152570   3.971   5.215   0.574  0.3527  1.0949 -1.0280
10385TIP3    H252571   4.041   5.217   0.708  0.8510  0.5493 -1.2746
10386TIP3   OH252572   2.886   0.003  10.479 -0.4431  0.5060  0.2954
10386TIP3    H152573   2.873   0.067  10.410  0.4807  0.4717  0.0786
10386TIP3    H252574   2.937   0.048  10.546 -1.0433  0.4374  0.8145
10387TIP3   OH252575   5.460   6.973   4.413 -0.1971  0.8863  0.0395
10387TIP3    H152576   5.394   7.031   4.451 -1.3755 -0.0894 -0.4562
10387TIP3    H252577   5.442   6.975   4.319  0.0594  0.1152 -0.0323
10388TIP3   OH252578   3.791   4.330   3.370 -0.2065 -0.0302  0.5680
10388TIP3    H152579   3.869   4.332   3.426  0.5956  0.6682 -0.5228
10388TIP3    H252580   3.792   4.243   3.331 -0.1004 -0.1051  0.7379
10389TIP3   OH252581   4.100   5.472  12.400 -0.4694 -0.1176  0.5408
10389TIP3    H152582   4.175   5.418  12.377 -0.8411 -1.3398  2.0551
10389TIP3    H252583   4.027   5.432  12.352 -0.3195  0.6037 -0.3210
10390TIP3   OH252584   3.689   0.394  11.608  0.1650 -0.0733 -0.4140
10390TIP3    H152585   3.612   0.364  11.657 -1.0716  2.0049 -0.9850
10390TIP3    H252586   3.740   0.442  11.673  0.7573 -1.0153 -0.1608
10391TIP3   OH252587   0.332   3.726   2.225  0.6623 -0.3202  0.1645
10391TIP3    H152588   0.334   3.696   2.134  0.0990  0.7255 -0.2153
10391TIP3    H252589   0.424   3.735   2.249  0.8182 -0.1263 -0.4736
10392TIP3   OH252590   0.304   1.145   4.685 -0.0803  0.2558  0.3147
10392TIP3    H152591   0.377   1.161   4.626 -0.0526 -0.7966  0.0439
10392TIP3    H252592   0.327   1.064   4.731 -1.1826 -0.2312  0.0367
10393TIP3   OH252593   7.087   6.045   5.412  0.4932 -0.6937 -0.0949
10393TIP3    H152594   7.132   6.090   5.341  0.1483  1.2312  0.8366
10393TIP3    H252595   7.145   5.973   5.436  1.4253 -0.3248 -1.1814
10394TIP3   OH252596   4.458   2.809  14.244  0.2976 -0.4467  0.2122
10394TIP3    H152597   4.526   2.763  14.294 -0.1565 -1.9537 -0.5181
10394TIP3    H252598   4.482   2.795  14.152  0.4453  1.2631 -0.0521
10395TIP3   OH252599   1.062   5.013   1.392 -0.1595  0.1655  0.0789
10395TIP3    H152600   1.120   5.082   1.425 -0.6680  0.5626  0.1374
10395TIP3    H252601   0.974   5.044   1.410 -0.4307  0.0760 -1.0264
10396TIP3   OH252602   0.605   4.216   4.181 -0.0394 -0.0253  0.5544
10396TIP3    H152603   0.624   4.294   4.128  0.2943 -1.2036 -1.1192
10396TIP3    H252604   0.511   4.203   4.171  0.3802 -1.8005 -2.1118
10397TIP3   OH252605   4.013   0.280  10.023 -0.3407  0.5401  0.1550
10397TIP3    H152606   3.999   0.191   9.992 -3.0597  1.1158 -0.5333
10397TIP3    H252607   4.062   0.323   9.953  0.0265 -0.1254 -0.0015
10398TIP3   OH252608   3.306   4.195   1.581  0.1432 -0.3215 -0.1610
10398TIP3    H152609   3.389   4.219   1.623 -1.0352  0.7393  1.7486
10398TIP3    H252610   3.311   4.101   1.567  1.0264 -0.5545  1.5219
10399TIP3   OH252611   4.525   1.207   3.470 -0.1376  0.1859  0.0602
10399TIP3    H152612   4.515   1.255   3.552  2.6080  1.1492 -0.0351
10399TIP3    H252613   4.569   1.126   3.495 -0.3686 -0.0591 -0.3280
10400TIP3   OH252614   1.691   4.738  12.211 -0.0632 -0.1293 -0.2493
10400TIP3    H152615   1.609   4.783  12.192 -0.5669 -0.3965  1.1505
10400TIP3    H252616   1.685   4.655  12.164 -2.2692 -1.7897  2.6164
10401TIP3   OH252617   6.067   3.241   5.528  0.3521 -0.3178  0.2706
10401TIP3    H152618   6.145   3.202   5.568  0.1105 -1.5883 -0.4548
10401TIP3    H252619   6.096   3.268   5.441 -0.0954 -1.1499 -0.1478
10402TIP3   OH252620   6.542   4.827   6.162  1.0374  0.0997 -0.6103
10402TIP3    H152621   6.595   4.899   6.127  0.6045 -0.4373 -2.4732
10402TIP3    H252622   6.561   4.754   6.104 -2.1436  0.0486 -1.7371
10403TIP3   OH252623   1.410   1.359  12.622  0.0592  0.0764 -0.3962
10403TIP3    H152624   1.495   1.336  12.585  0.6499  2.1991 -0.4885
10403TIP3    H252625   1.353   1.373  12.546  0.4318  1.4569 -0.4311
10404TIP3   OH252626   0.503   4.760   4.581 -0.3361  0.2205 -0.1643
10404TIP3    H152627   0.591   4.759   4.618 -0.5562  0.5506  0.3787
10404TIP3    H252628   0.515   4.738   4.489  0.3549  0.6783 -0.1862
10405TIP3   OH252629   1.490   4.120   2.738 -0.3203  0.2487 -0.7914
10405TIP3    H152630   1.456   4.068   2.811  2.8535 -0.3595  0.4275
10405TIP3    H252631   1.504   4.207   2.775 -2.0349  0.9874 -1.7622
10406TIP3   OH252632   2.475   2.730   4.951 -0.1143 -0.1901  0.0411
10406TIP3    H152633   2.472   2.636   4.967 -1.2257 -0.3645 -1.0250
10406TIP3    H252634   2.475   2.770   5.038  1.6111 -1.1643  0.5378
10407TIP3   OH252635   5.469   0.670  14.304 -0.0201  0.0029 -0.4263
10407TIP3    H152636   5.500   0.653  14.393  0.0389  0.1475 -0.4185
10407TIP3    H252637   5.403   0.602  14.288  0.1511 -0.1779 -0.3663
10408TIP3   OH252638   1.944   3.606  13.197 -0.6367 -0.0157 -0.5231
10408TIP3    H152639   1.969   3.674  13.135  2.2077  0.1649  0.6826
10408TIP3    H252640   1.966   3.641  13.283 -1.6929 -1.4225  0.3803
10409TIP3   OH252641   7.023   5.644   0.460  0.3321  0.0352 -0.3221
10409TIP3    H152642   7.026   5.570   0.399 -0.1556 -0.9961  0.8682
10409TIP3    H252643   7.008   5.720   0.404 -0.9853 -0.9933 -1.4358
10410TIP3   OH252644   6.737   5.063   2.250  0.4315 -0.5587  0.7120
10410TIP3    H152645   6.714   4.975   2.279  0.2303 -1.2296 -1.3401
10410TIP3    H252646   6.825   5.077   2.284  2.1332 -3.1820 -2.1690
10411TIP3   OH252647   1.221   4.170  11.004 -0.4383  0.4612 -0.7090
10411TIP3    H152648   1.134   4.210  10.997 -0.6502  0.2852  0.6042
10411TIP3    H252649   1.204   4.077  11.014 -0.2276  0.5993  1.3569
10412TIP3   OH252650   3.403   3.983   0.315 -0.5276  0.4141 -0.0005
10412TIP3    H152651   3.484   3.979   0.263 -0.2855 -1.2514  0.4531
10412TIP3    H252652   3.386   4.076   0.325  1.0755  0.7968 -0.5206
10413TIP3   OH252653   3.365   1.132  13.846  0.1023 -0.2948 -0.0163
10413TIP3    H152654   3.428   1.139  13.774 -0.4527  0.6576 -0.4316
10413TIP3    H252655   3.352   1.038  13.859 -1.7223 -0.5601 -2.9159
10414TIP3   OH252656   4.352   0.057  12.896 -0.5794 -0.3897 -0.0973
10414TIP3    H152657   4.405  -0.014  12.862  2.4919  0.9058  1.5224
10414TIP3    H252658   4.394   0.137  12.863 -2.0751  0.7323  0.5600
10415TIP3   OH252659   3.709   1.420  13.677  0.3577 -0.1134  0.3897
10415TIP3    H152660   3.685   1.347  13.620  0.4405  0.9197 -1.0343
10415TIP3    H252661   3.785   1.388  13.726  0.7775 -0.7886 -0.6569
10416TIP3   OH252662   2.955   4.656   2.372  0.0391 -0.0519 -0.6439
10416TIP3    H152663   2.986   4.566   2.373 -1.2865 -0.5237 -0.1065
10416TIP3    H252664   3.027   4.706   2.410  0.6550 -0.9306 -0.6263
10417TIP3   OH252665   7.116   2.221   0.991 -0.0561 -0.7704 -0.3046
10417TIP3    H152666   7.139   2.197   1.081 -1.6324 -0.7857  0.1262
10417TIP3    H252667   7.194   2.266   0.958 -0.1261  1.0942  1.7611
10418TIP3   OH252668   5.733   1.529  15.381 -0.0772  0.3065 -0.7313
10418TIP3    H152669   5.712   1.443  15.345 -0.8864  0.0616  0.2800
10418TIP3    H252670   5.680   1.536  15.460  0.2532  1.5913 -0.5943
10419TIP3   OH252671   2.208   4.788   4.248 -0.1161 -0.1386  0.4440
10419TIP3    H152672   2.292   4.751   4.220  0.4204  0.0880  1.6714
10419TIP3    H252673   2.151   4.712   4.259 -0.3692 -0.2264 -1.2646
10420TIP3   OH252674   5.971   3.020  13.877 -0.1127 -0.6003  0.1320
10420TIP3    H152675   5.992   3.066  13.958 -0.1921  0.4018 -0.4060
10420TIP3    H252676   5.877   3.006  13.881 -0.1298 -0.4743  0.1723
10421TIP3   OH252677   0.851   1.087   0.045  0.3762  0.0449  0.3565
10421TIP3    H152678   0.868   1.167  -0.004  1.7362 -0.7644 -0.5500
10421TIP3    H252679   0.935   1.042   0.049 -0.5459 -1.8479 -0.0957
10422TIP3   OH252680   0.221   4.133   5.873  0.7622  0.5437 -0.3705
10422TIP3    H152681   0.193   4.091   5.954  1.2250 -0.4658 -0.7178
10422TIP3    H252682   0.277   4.206   5.901  0.4454  0.5621  0.2248
10423TIP3   OH252683   5.262   6.732   4.349  0.1694  0.4409 -0.4762
10423TIP3    H152684   5.346   6.687   4.345  0.1022  0.1045  1.0121
10423TIP3    H252685   5.250   6.750   4.442 -1.2467  0.7829 -0.7058
10424TIP3   OH252686   6.681   0.049   3.124  0.4033  0.4093  0.3147
10424TIP3    H152687   6.702  -0.037   3.159 -0.8815 -0.5815 -1.2045
10424TIP3    H252688   6.765   0.088   3.103  0.9738 -1.4967 -1.2483
10425TIP3   OH252689   5.045   1.939   2.367 -0.2985 -0.0738  1.1080
10425TIP3    H152690   4.967   1.981   2.329  0.2562  1.7073  1.8615
10425TIP3    H252691   5.024   1.846   2.366 -2.2458  0.3222  0.8422
10426TIP3   OH252692   6.896   1.712  13.724  0.2024 -0.3781  0.2422
10426TIP3    H152693   6.878   1.805  13.735 -0.8949 -0.4349 -0.8527
10426TIP3    H252694   6.984   1.708  13.688  0.4712  0.1894  0.8123
10427TIP3   OH252695   4.479   0.184   4.043 -1.2337  0.2164  0.6323
10427TIP3    H152696   4.495   0.149   3.955  2.0097  2.8300 -0.0042
10427TIP3    H252697   4.421   0.259   4.029 -1.3043  0.2037  0.8531
10428TIP3   OH252698   2.621   4.424  12.751 -0.2674  0.0855 -0.0026
10428TIP3    H152699   2.590   4.500  12.703  0.4899  1.5621  1.7044
10428TIP3    H252700   2.693   4.458  12.806  0.2707 -1.9132  0.6209
10429TIP3   OH252701   2.906   2.609   4.857  0.0279  0.2234  0.2160
10429TIP3    H152702   2.998   2.621   4.832  0.8788 -0.4463  2.6882
10429TIP3    H252703   2.885   2.520   4.829 -0.3730  0.8759 -1.6546
10430TIP3   OH252704   0.174   3.066   4.544 -0.4660 -0.4035 -0.6897
10430TIP3    H152705   0.102   3.012   4.511 -1.5131 -0.0768  0.9446
10430TIP3    H252706   0.173   3.143   4.487 -1.1123 -0.6038 -0.9702
10431TIP3   OH252707   4.053   3.611   5.123  0.2928  0.4210 -0.0766
10431TIP3    H152708   4.041   3.559   5.202 -0.9834  0.2344 -0.3698
10431TIP3    H252709   4.032   3.701   5.150 -1.8424  0.1074 -0.5694
10432TIP3   OH252710   3.410   6.441   3.409  0.4465  0.3069 -0.6483
10432TIP3    H152711   3.390   6.442   3.503 -0.3134  0.1343 -0.8057
10432TIP3    H252712   3.506   6.446   3.405  0.4304  1.6230  0.1090
10433TIP3   OH252713   0.795   5.091   1.393  0.8359  0.5139 -0.2988
10433TIP3    H152714   0.800   5.089   1.298  3.1834 -1.0950 -0.2340
10433TIP3    H252715   0.713   5.047   1.414  0.9844 -0.4412 -1.5867
10434TIP3   OH252716   5.943   6.622  14.363  0.2540 -0.8366  0.5116
10434TIP3    H152717   5.977   6.695  14.312  0.1553  1.4003  3.3798
10434TIP3    H252718   5.994   6.547  14.334  1.4364  0.6406 -1.4943
10435TIP3   OH252719   2.609   3.738   3.641 -0.4456  0.1802  0.2437
10435TIP3    H152720   2.578   3.751   3.552 -0.0818  0.1919  0.1156
10435TIP3    H252721   2.651   3.651   3.639  1.6157  1.1303 -0.1908
10436TIP3   OH252722   2.822   3.219  15.123 -0.7055  0.6126 -0.0837
10436TIP3    H152723   2.795   3.267  15.044 -0.7178 -0.1151 -0.5275
10436TIP3    H252724   2.892   3.271  15.160 -0.2515  0.6232 -0.9419
10437TIP3   OH252725   1.403   3.432   2.412 -0.2032  0.2771  0.6646
10437TIP3    H152726   1.343   3.506   2.423 -0.6937 -0.0471  0.1817
10437TIP3    H252727   1.431   3.411   2.501  1.1448  2.0234  0.7093
10438TIP3   OH252728   4.681   0.575  13.351  0.3451 -0.1475 -0.2497
10438TIP3    H152729   4.647   0.645  13.295 -1.3810 -0.0321  0.8850
10438TIP3    H252730   4.776   0.588  13.349  0.1129  1.9696 -0.4360
10439TIP3   OH252731   4.951   2.079   4.626 -0.3572 -0.0015  0.4384
10439TIP3    H152732   5.006   2.140   4.577 -3.0462  0.6804 -2.0276
10439TIP3    H252733   4.989   1.993   4.608  1.6684  0.6294  1.4084
10440TIP3   OH252734   2.241   0.533   1.646 -0.6421 -0.2247 -0.3853
10440TIP3    H152735   2.262   0.528   1.553  1.4675 -2.0942  0.1151
10440TIP3    H252736   2.202   0.448   1.667 -2.9978  0.8814  0.1018
10441TIP3   OH252737   6.472   2.922   2.809 -0.6419 -0.6461  0.1315
10441TIP3    H152738   6.558   2.895   2.840 -0.0691  1.0687  0.1461
10441TIP3    H252739   6.479   2.921   2.713 -0.7597 -0.9446  0.1243
10442TIP3   OH252740   2.461   4.669   4.160  0.0453 -0.1293 -0.2815
10442TIP3    H152741   2.472   4.706   4.248  0.8620 -0.5540 -0.1949
10442TIP3    H252742   2.537   4.699   4.111 -0.4206  0.1267 -0.8656
10443TIP3   OH252743   2.158   6.591  14.679  0.0373  0.0212 -0.7682
10443TIP3    H152744   2.234   6.627  14.725 -0.4600  0.9726 -0.6722
10443TIP3    H252745   2.123   6.525  14.739  0.0510  0.4676 -0.2614
10444TIP3   OH252746   6.863   5.103  14.900  0.0269  0.2929 -0.1942
10444TIP3    H152747   6.913   5.117  14.820  0.2525 -3.1670 -0.7977
10444TIP3    H252748   6.894   5.171  14.960  2.4750  0.7657 -1.8546
10445TIP3   OH252749   3.872   0.362  14.871  0.0047  0.8821  0.3663
10445TIP3    H152750   3.861   0.288  14.931  1.7574  0.3199  0.0636
10445TIP3    H252751   3.853   0.325  14.784  2.0272  0.4008  0.0700
10446TIP3   OH252752   4.155   2.421   4.694  0.0191 -0.4113 -0.6446
10446TIP3    H152753   4.148   2.488   4.762 -1.1334  0.1371 -1.2674
10446TIP3    H252754   4.249   2.410   4.680  0.2360  1.4194 -0.8587
10447TIP3   OH252755   3.069   4.778   3.729 -0.4338  0.1024  0.5024
10447TIP3    H152756   3.069   4.682   3.733  0.3542  0.0653 -0.1518
10447TIP3    H252757   3.159   4.803   3.748 -0.0954  0.5918 -1.5576
10448TIP3   OH252758   5.609   4.006   4.080  0.5952 -0.2261  0.4834
10448TIP3    H152759   5.639   4.084   4.036  1.5542 -1.3801 -1.0000
10448TIP3    H252760   5.514   4.014   4.083  0.6736  0.8710  0.1546
10449TIP3   OH252761   7.024   3.863  11.341 -0.0156 -0.0225 -0.1828
10449TIP3    H152762   6.951   3.866  11.403 -0.3165  0.6726 -0.5585
10449TIP3    H252763   7.067   3.779  11.358 -0.7375 -0.3173  0.2264
10450TIP3   OH252764   4.701   0.978   3.277 -0.6405  0.8113  0.1382
10450TIP3    H152765   4.719   0.946   3.189  0.6073  0.9334  0.3295
10450TIP3    H252766   4.785   0.972   3.323 -0.2489  4.3747  0.1824
10451TIP3   OH252767   3.468   4.497   0.378  0.4798 -0.1864 -0.0103
10451TIP3    H152768   3.530   4.570   0.371  0.3863 -0.0139  0.9278
10451TIP3    H252769   3.498   4.448   0.454 -0.3909 -0.2374  0.3057
10452TIP3   OH252770   6.074   1.504   3.736 -0.2426 -0.1461 -0.4536
10452TIP3    H152771   6.023   1.556   3.798 -0.0446  0.9370 -1.1587
10452TIP3    H252772   6.116   1.436   3.789  2.4321  2.5605  1.2123
10453TIP3   OH252773   1.221   4.350  14.921  0.3537  0.0417  0.7212
10453TIP3    H152774   1.163   4.416  14.883  0.1380 -0.6118 -0.1060
10453TIP3    H252775   1.297   4.401  14.952  0.5362  0.6174 -0.5881
10454TIP3   OH252776   1.894   4.107  12.531 -0.4116 -0.2577 -0.6892
10454TIP3    H152777   1.974   4.148  12.563 -0.2754 -2.0796  1.5680
10454TIP3    H252778   1.823   4.158  12.568 -0.2479 -0.7240  0.3029
10455TIP3   OH252779   4.571   5.993   1.153  0.2077  0.3336 -0.7066
10455TIP3    H152780   4.605   5.905   1.167 -0.6685  0.0827 -0.0588
10455TIP3    H252781   4.476   5.982   1.153 -0.0622  1.7035  2.5649
10456TIP3   OH252782   2.038   0.940  14.336  0.4609 -0.3004 -0.3463
10456TIP3    H152783   2.054   0.875  14.404 -2.2795 -1.1676 -0.3951
10456TIP3    H252784   2.123   0.982  14.322  1.2278 -0.1991  3.4700
10457TIP3   OH252785   6.979   1.955   4.724  0.3854  0.3900 -0.0722
10457TIP3    H152786   6.900   1.973   4.673 -0.3524 -1.4416  0.3465
10457TIP3    H252787   6.947   1.909   4.802  1.9317 -1.0965 -0.2595
10458TIP3   OH252788   6.361   6.123   0.560  0.2061 -0.3645  0.3984
10458TIP3    H152789   6.320   6.073   0.490  0.6766  1.2801 -1.1171
10458TIP3    H252790   6.449   6.085   0.568  0.5342  0.1403 -0.6778
10459TIP3   OH252791   2.338   3.335  12.734 -0.0222  0.1391  0.5788
10459TIP3    H152792   2.406   3.342  12.667 -2.6082 -3.5856 -2.9160
10459TIP3    H252793   2.386   3.319  12.816  3.3879 -2.4602 -1.6611
10460TIP3   OH252794   4.271   0.704   1.559 -0.3500  0.3033 -0.0104
10460TIP3    H152795   4.188   0.697   1.607 -0.7297  0.5218 -0.6213
10460TIP3    H252796   4.298   0.795   1.570 -0.2443  0.2575  0.1061
10461TIP3   OH252797   0.822   6.166  12.673  0.1343 -0.0268  0.3980
10461TIP3    H152798   0.735   6.167  12.713  0.3328 -0.2888  0.8541
10461TIP3    H252799   0.855   6.256  12.684 -1.1266  0.8435 -2.2013
10462TIP3   OH252800   5.212   5.330   1.579  0.4350  0.7300  0.1409
10462TIP3    H152801   5.283   5.304   1.637  0.0329  0.6611  0.6114
10462TIP3    H252802   5.217   5.425   1.574 -1.0781  0.9912  2.3551
10463TIP3   OH252803   4.008   4.424   4.495  0.2672  0.1497  0.2798
10463TIP3    H152804   3.938   4.468   4.543  1.3511  0.0021  2.1040
10463TIP3    H252805   4.078   4.412   4.560  2.1099  0.5620 -1.5310
10464TIP3   OH252806   6.294   3.257   0.179  0.5415  0.1538 -0.1151
10464TIP3    H152807   6.232   3.325   0.152  0.8839  1.5507  2.2986
10464TIP3    H252808   6.378   3.286   0.142  0.6941  1.1173  0.9314
10465TIP3   OH252809   1.783   0.345   1.786 -0.2429  0.2130 -0.4183
10465TIP3    H152810   1.762   0.279   1.720 -0.2733 -0.2977  0.0938
10465TIP3    H252811   1.701   0.393   1.799 -0.5259 -0.3716  0.0066
10466TIP3   OH252812   0.341   2.563  10.698  0.3286 -0.0910 -0.2147
10466TIP3    H152813   0.254   2.597  10.721 -0.2473  0.0794 -2.4011
10466TIP3    H252814   0.374   2.623  10.632  1.5817 -0.8651 -0.3324
10467TIP3   OH252815   6.798   5.698   3.784  0.1563 -0.4526  0.0563
10467TIP3    H152816   6.759   5.766   3.838  0.8284 -0.8066  1.0056
10467TIP3    H252817   6.852   5.746   3.721 -0.6819 -0.0368 -0.3707
10468TIP3   OH252818   4.647   3.309   4.827  0.0068 -0.5195  0.3484
10468TIP3    H152819   4.625   3.281   4.916  1.9011 -2.6656  0.2389
10468TIP3    H252820   4.707   3.242   4.795  0.7726  1.1224 -1.9307
10469TIP3   OH252821   7.007   3.481  13.539 -0.3242 -0.9432 -0.7834
10469TIP3    H152822   7.027   3.573  13.523  0.3699 -1.2714 -1.9274
10469TIP3    H252823   6.919   3.481  13.576  0.2098  0.2692  0.5840
10470TIP3   OH252824   0.179   4.601   4.422 -0.3770  0.3945 -0.3459
10470TIP3    H152825   0.208   4.594   4.513 -1.1102  1.5569 -0.0042
10470TIP3    H252826   0.114   4.532   4.412  0.7670 -0.7252 -0.4538
10471TIP3   OH252827   0.034   0.891   4.094 -0.1729  0.0110  0.3070
10471TIP3    H152828  -0.046   0.901   4.041  1.4120  0.9087 -2.1225
10471TIP3    H252829   0.104   0.881   4.029  1.5724 -2.3297  2.3400
10472TIP3   OH252830   3.653   1.878   0.620 -0.7676  0.0282 -0.1531
10472TIP3    H152831   3.655   1.876   0.715  0.5672 -1.4955 -0.1600
10472TIP3    H252832   3.729   1.825   0.593 -0.6017  1.1467 -2.0639
10473TIP3   OH252833   6.203   5.568   3.410 -0.2056  0.3645  0.2073
10473TIP3    H152834   6.137   5.579   3.478 -0.4005  0.2075  0.0448
10473TIP3    H252835   6.182   5.634   3.345 -0.7772 -0.3009 -0.2961
10474TIP3   OH252836   2.025   3.971   1.578  0.3404  0.1545  0.3975
10474TIP3    H152837   2.096   3.921   1.618  0.7046  1.0243  0.8446
10474TIP3    H252838   2.024   4.054   1.625  0.0249  0.7460 -0.6286
10475TIP3   OH252839   3.664   7.035  13.006  0.1393 -0.2468 -0.2100
10475TIP3    H152840   3.738   7.091  12.983 -0.2299  1.2983  2.0105
10475TIP3    H252841   3.586   7.085  12.981 -0.2156 -1.3004 -1.3341
10476TIP3   OH252842   7.071   5.643   3.852 -0.1012 -0.1154 -0.5753
10476TIP3    H152843   7.108   5.604   3.772 -1.4371 -1.1442 -0.7413
10476TIP3    H252844   6.983   5.604   3.858 -1.1395  2.1266 -0.1674
10477TIP3   OH252845   0.485   1.525  12.202 -0.4134 -0.0645  0.6137
10477TIP3    H152846   0.580   1.535  12.192 -0.8177  2.3097 -2.3407
10477TIP3    H252847   0.464   1.445  12.155  0.0499 -0.2421  0.7031
10478TIP3   OH252848   1.424   4.986   4.446 -0.0260 -0.3709 -0.0392
10478TIP3    H152849   1.482   4.941   4.508 -0.4606  0.3736  0.9283
10478TIP3    H252850   1.398   4.918   4.384  2.9005 -0.4611 -1.3120
10479TIP3   OH252851   1.675   6.955  12.732 -0.0509  0.1032 -0.1206
10479TIP3    H152852   1.666   6.867  12.697  0.3016 -1.0700  2.5190
10479TIP3    H252853   1.593   6.999  12.708 -0.4992 -1.1139 -0.9218
10480TIP3   OH252854   6.611   0.439   0.566  0.1136  0.6863  0.5803
10480TIP3    H152855   6.562   0.413   0.488 -1.6489  0.5356  1.6766
10480TIP3    H252856   6.692   0.389   0.561 -0.1180  0.4192 -0.9655
10481TIP3   OH252857   3.546   2.640  10.680 -0.0024  0.2474  0.1006
10481TIP3    H152858   3.521   2.732  10.686 -3.1837 -0.4561 -0.4671
10481TIP3    H252859   3.502   2.598  10.754  0.1823 -1.0346 -0.4728
10482TIP3   OH252860   0.965   2.262  12.690  0.0087  0.1244 -0.3388
10482TIP3    H152861   0.901   2.265  12.761  1.9285  3.5767  1.5037
10482TIP3    H252862   1.019   2.185  12.710 -2.2329 -1.7028 -0.8559
10483TIP3   OH252863   1.121   3.239  10.174 -0.5302  0.0564  0.0926
10483TIP3    H152864   1.095   3.242  10.082  3.3270  1.7793 -1.1573
10483TIP3    H252865   1.072   3.310  10.215 -0.7372  0.6572 -1.1454
10484TIP3   OH252866   0.837   6.539  14.804 -0.1942  0.3374  0.3179
10484TIP3    H152867   0.764   6.498  14.757 -0.3116  0.7480  0.1370
10484TIP3    H252868   0.876   6.598  14.740  1.3477 -1.1022 -0.1309
10485TIP3   OH252869   3.988   7.057  12.843  1.0543 -0.3015  0.2861
10485TIP3    H152870   4.049   7.042  12.915 -0.5312  1.4051  2.1359
10485TIP3    H252871   3.958   7.148  12.856 -0.4549 -0.4636 -1.6189
10486TIP3   OH252872   6.758   5.372   2.938 -0.3044  0.3290  0.5204
10486TIP3    H152873   6.783   5.424   3.014 -0.9802  0.7970  0.4287
10486TIP3    H252874   6.742   5.436   2.869 -3.1194  0.2239  0.9463
10487TIP3   OH252875   4.071   7.124  13.597 -0.0391 -0.3695 -0.0512
10487TIP3    H152876   4.152   7.087  13.563 -0.3578  0.6754 -2.0785
10487TIP3    H252877   4.048   7.194  13.536 -0.4917  1.9495  2.5664
10488TIP3   OH252878   5.787   6.963   2.552 -0.5695 -0.6241  0.1845
10488TIP3    H152879   5.793   6.982   2.458 -0.1488 -0.5734  0.2220
10488TIP3    H252880   5.701   6.921   2.562  0.4247 -3.0279 -0.6348
10489TIP3   OH252881   2.273   0.842   3.182  0.3771  0.9649 -0.5890
10489TIP3    H152882   2.200   0.780   3.182 -1.4118  2.9136 -2.1699
10489TIP3    H252883   2.310   0.835   3.270 -1.4359 -0.4006  0.1416
10490TIP3   OH252884   1.112   2.232   4.164 -0.0165  0.0311 -0.1139
10490TIP3    H152885   1.133   2.306   4.220  1.5011 -0.1779 -0.3606
10490TIP3    H252886   1.030   2.257   4.120 -0.4743  0.7851  1.1170
10491TIP3   OH252887   6.681   1.931   3.716 -0.1427 -0.3022 -0.3181
10491TIP3    H152888   6.679   1.988   3.639  0.1847  2.4044  1.5135
10491TIP3    H252889   6.774   1.926   3.740 -0.2951 -0.5655  0.2353
10492TIP3   OH252890   1.263   6.613  15.059 -0.1924 -0.0742 -0.0200
10492TIP3    H152891   1.313   6.564  15.125  0.3573  1.1263  0.4824
10492TIP3    H252892   1.236   6.693  15.104 -1.8112 -0.2733 -0.5601
10493TIP3   OH252893   0.791   6.853   1.098  0.7004 -0.1617 -0.2506
10493TIP3    H152894   0.725   6.806   1.046 -2.2736  1.9294  1.3554
10493TIP3    H252895   0.804   6.798   1.175 -2.1666  1.0482  1.2397
10494TIP3   OH252896   4.657   0.313   5.919 -0.1374  0.3741 -0.3681
10494TIP3    H152897   4.640   0.408   5.916  1.9233  0.9894  2.6613
10494TIP3    H252898   4.752   0.307   5.932 -0.1014 -2.1863 -1.4230
10495TIP3   OH252899   6.863   1.346   0.928 -0.6872 -0.3106  0.0041
10495TIP3    H152900   6.813   1.405   0.872  0.9746  0.3795 -0.8139
10495TIP3    H252901   6.797   1.300   0.980 -2.2027 -0.0569 -1.6294
10496TIP3   OH252902   3.920   4.153   5.379 -0.3911 -0.3074 -0.1854
10496TIP3    H152903   3.918   4.058   5.371 -0.3126 -0.4067  0.9484
10496TIP3    H252904   3.864   4.172   5.454 -0.4849  0.5477 -0.4649
10497TIP3   OH252905   6.094   4.439   3.862  0.3888  0.3331 -0.3125
10497TIP3    H152906   6.136   4.401   3.939  1.5305 -0.2776 -1.1835
10497TIP3    H252907   6.016   4.484   3.895  0.7665 -0.0508  1.1534
10498TIP3   OH252908   2.372   4.984  14.562  0.3131  0.4041  0.2851
10498TIP3    H152909   2.359   4.941  14.647 -0.9253  0.8267  0.3303
10498TIP3    H252910   2.305   4.946  14.506 -2.0172  3.3857  0.7816
10499TIP3   OH252911   2.856   3.807   0.686  0.0192  0.2650  0.2559
10499TIP3    H152912   2.777   3.861   0.691 -0.8864 -0.8150 -1.4653
10499TIP3    H252913   2.826   3.722   0.654  1.7595 -0.4856  0.4736
10500TIP3   OH252914   1.759   5.194   4.065 -0.2819  0.1173 -0.1313
10500TIP3    H152915   1.695   5.174   4.134  1.0549  0.1138  1.1522
10500TIP3    H252916   1.830   5.131   4.079  0.5187  0.8522 -0.8038
10501TIP3   OH252917   2.014   0.561  14.928  0.2288 -0.0409 -0.6877
10501TIP3    H152918   2.033   0.492  14.991 -0.5666  1.5779  1.4571
10501TIP3    H252919   1.930   0.597  14.957  1.4303  2.9484 -0.5749
10502TIP3   OH252920   5.328   5.323  13.757 -0.2920  0.1413  0.1852
10502TIP3    H152921   5.345   5.414  13.781 -0.5983  0.1865  0.2423
10502TIP3    H252922   5.232   5.315  13.760 -0.3398  0.1378 -0.9806
10503TIP3   OH252923   1.228   1.230   3.773  0.0332  0.2154  0.4537
10503TIP3    H152924   1.307   1.210   3.723 -0.3590  0.5509 -0.3333
10503TIP3    H252925   1.235   1.178   3.852  0.5649 -0.5271 -0.0682
10504TIP3   OH252926   6.195   3.837  15.351 -0.0106  0.1974  0.5978
10504TIP3    H152927   6.219   3.826  15.443 -1.0033 -3.3178  0.5974
10504TIP3    H252928   6.268   3.799  15.303 -0.2692  0.3990  0.0407
10505TIP3   OH252929   4.004   5.605   2.519 -0.3851 -0.4597  0.1454
10505TIP3    H152930   4.033   5.638   2.434 -0.5909 -0.1862  0.1789
10505TIP3    H252931   4.085   5.596   2.570 -0.4882  3.2423  1.2984
10506TIP3   OH252932   3.235   2.987   5.002 -0.3989 -0.0306 -0.2242
10506TIP3    H152933   3.152   2.993   4.955 -0.6807  1.8505  0.4130
10506TIP3    H252934   3.215   2.937   5.081 -1.7708  2.8004  1.4158
10507TIP3   OH252935   4.226   0.468  10.544 -1.0335 -0.3325 -0.6883
10507TIP3    H152936   4.167   0.539  10.570  0.3528  1.5390 -2.3683
10507TIP3    H252937   4.173   0.412  10.487 -1.7308  0.2109 -0.5842
10508TIP3   OH252938   3.075   4.190   4.852  0.3701 -0.0384  0.3544
10508TIP3    H152939   3.021   4.184   4.773 -1.8716 -1.4274  1.8552
10508TIP3    H252940   3.064   4.280   4.882  0.6283  0.2852 -0.4990
10509TIP3   OH252941   3.037   2.476   5.525  0.5595 -0.0638 -0.4392
10509TIP3    H152942   2.979   2.410   5.564  0.8559 -0.3962 -0.5495
10509TIP3    H252943   3.026   2.553   5.580 -0.4562  0.0774 -0.8264
10510TIP3   OH252944   0.882   3.044   3.341  0.5850  0.4967  0.2078
10510TIP3    H152945   0.788   3.057   3.334  0.2263 -2.0961 -0.8647
10510TIP3    H252946   0.911   3.111   3.402 -1.9715  1.2554  0.6939
10511TIP3   OH252947   4.492   1.485   4.241 -0.2388 -0.5158 -0.3543
10511TIP3    H152948   4.550   1.532   4.182 -0.9187  1.8069  0.7165
10511TIP3    H252949   4.437   1.432   4.183  0.2681  0.3574 -1.6734
10512TIP3   OH252950   0.287   1.674   2.949  0.0466 -0.1384 -1.0304
10512TIP3    H152951   0.347   1.705   3.017  1.3490 -3.9337 -0.1760
10512TIP3    H252952   0.223   1.620   2.996 -1.7206  0.6377 -2.4002
10513TIP3   OH252953   6.030   1.825   2.987 -0.1996 -0.0112 -0.1961
10513TIP3    H152954   6.102   1.875   2.948  0.5293  0.1474  1.2632
10513TIP3    H252955   6.072   1.776   3.058 -1.4992 -0.1046  0.5284
10514TIP3   OH252956   2.715   4.253  13.262 -0.3076  0.2064  0.0262
10514TIP3    H152957   2.620   4.255  13.258 -0.4029  0.2328  1.4787
10514TIP3    H252958   2.743   4.340  13.233 -0.8028  0.5923  0.6768
10515TIP3   OH252959   6.263   0.372  14.979  0.4529 -0.2324 -0.3320
10515TIP3    H152960   6.177   0.342  15.007  0.5553  0.2706  0.5368
10515TIP3    H252961   6.285   0.315  14.905 -0.7563 -0.1546 -0.7726
10516TIP3   OH252962   4.795   3.067   3.914  0.0069 -0.1194 -0.8636
10516TIP3    H152963   4.708   3.041   3.885  0.3544  0.1308 -2.2010
10516TIP3    H252964   4.838   2.986   3.939 -0.8384 -0.1731  0.5278
10517TIP3   OH252965   6.320   5.599  14.580  0.1283 -0.3237  0.7691
10517TIP3    H152966   6.251   5.665  14.575 -0.2120 -0.7487 -1.4603
10517TIP3    H252967   6.397   5.646  14.612 -0.5858  0.7218  0.9823
10518TIP3   OH252968   3.392   5.072  13.618  0.2453  0.6912  0.3350
10518TIP3    H152969   3.317   5.124  13.646 -1.1111 -0.5441 -0.8727
10518TIP3    H252970   3.441   5.056  13.698  0.8218  3.8673  0.7787
10519TIP3   OH252971   0.788   3.914   0.853  0.4173  0.3119  0.1149
10519TIP3    H152972   0.767   3.845   0.791 -1.0339  1.2160 -0.4317
10519TIP3    H252973   0.884   3.917   0.853  0.4959 -1.2737 -0.2973
10520TIP3   OH252974   2.799   4.183   3.058 -0.1218 -0.2595  0.3569
10520TIP3    H152975   2.730   4.235   3.100  0.1351 -0.9165  1.6161
10520TIP3    H252976   2.873   4.243   3.051 -0.9969  0.7022 -1.7076
10521TIP3   OH252977   6.986   1.314   4.519 -0.3134  0.2741 -0.0975
10521TIP3    H152978   7.078   1.340   4.517 -0.1332 -0.3690 -0.6220
10521TIP3    H252979   6.978   1.247   4.451 -0.6463 -1.3221  1.4162
10522TIP3   OH252980   5.348   5.519   0.180 -0.1810 -0.0572 -0.6728
10522TIP3    H152981   5.341   5.437   0.132 -0.4196  0.1253 -0.9541
10522TIP3    H252982   5.439   5.546   0.167  0.5394 -1.3758  1.2492
10523TIP3   OH252983   6.803   5.187  15.244 -0.0938  0.1921  0.3872
10523TIP3    H152984   6.839   5.129  15.311 -0.3639 -1.0519 -0.5145
10523TIP3    H252985   6.879   5.233  15.209  0.0579  0.8170  1.4848
10524TIP3   OH252986   2.518   0.881  13.659  0.2050 -0.4564  0.0786
10524TIP3    H152987   2.426   0.877  13.631  0.0075  0.1282  0.5996
10524TIP3    H252988   2.528   0.971  13.690  0.3318 -1.1437  2.1351
10525TIP3   OH252989   4.036   5.851  14.783  0.4616 -0.7980 -0.1317
10525TIP3    H152990   4.007   5.833  14.694  1.3629 -2.8519 -0.0747
10525TIP3    H252991   4.078   5.769  14.811  0.0725 -0.2631  2.2228
10526TIP3   OH252992   3.638   3.259  15.493  0.0825 -0.5224  0.2597
10526TIP3    H152993   3.618   3.338  15.443 -1.4479 -1.2427 -0.3546
10526TIP3    H252994   3.727   3.272  15.525 -0.0134  1.2851 -0.1163
10527TIP3   OH252995   4.525   2.977   5.856  0.4885 -0.8293 -0.5332
10527TIP3    H152996   4.440   3.002   5.822  0.0682 -0.1597  0.9363
10527TIP3    H252997   4.587   3.036   5.812 -0.3049  1.7992  1.5875
10528TIP3   OH252998   5.154   6.185   2.112 -0.2600 -0.2848 -0.0350
10528TIP3    H152999   5.134   6.109   2.057  0.2711  0.5439 -1.4107
10528TIP3    H253000   5.175   6.255   2.050  1.5131  0.3749  1.2342
10529TIP3   OH253001   6.160   5.974   3.817  0.3289  0.3512  0.4740
10529TIP3    H153002   6.109   5.954   3.896  0.0910 -0.2342  0.1775
10529TIP3    H253003   6.117   5.925   3.747  2.6783 -2.1987  0.6206
10530TIP3   OH253004   4.578   0.781  12.780 -0.0891 -0.5488 -0.3112
10530TIP3    H153005   4.566   0.784  12.685 -0.0782  0.1265 -0.2944
10530TIP3    H253006   4.616   0.866  12.802  0.6819 -1.0134  0.1979
10531TIP3   OH253007   6.971   3.830   3.203 -0.2829  0.0644 -0.0530
10531TIP3    H153008   6.925   3.749   3.224  0.2185 -0.1272  0.3136
10531TIP3    H253009   6.976   3.830   3.107  0.0927 -0.5561 -0.0410
10532TIP3   OH253010   3.806   0.399  14.344 -0.1238  0.1863  0.0034
10532TIP3    H153011   3.878   0.455  14.375 -0.1952 -0.1202  0.7354
10532TIP3    H253012   3.727   0.450  14.362 -0.0755  0.8215 -1.4299
10533TIP3   OH253013   1.973   4.410   0.659  0.0119  0.4792 -0.8950
10533TIP3    H153014   2.031   4.481   0.632  1.3062 -0.6138 -1.0890
10533TIP3    H253015   2.018   4.331   0.631 -0.4418 -0.5342  1.1076
10534TIP3   OH253016   1.289   4.221   5.449  0.1676 -0.2434  0.0889
10534TIP3    H153017   1.331   4.303   5.474 -1.1973  0.1629  1.1546
10534TIP3    H253018   1.196   4.234   5.467 -0.6413 -0.7673 -3.0758
10535TIP3   OH253019   2.432   2.994  10.502 -0.4894  0.3635  0.4583
10535TIP3    H153020   2.448   2.945  10.583 -0.7339 -1.1705 -0.3711
10535TIP3    H253021   2.481   3.075  10.513  0.1229 -0.1524  1.8206
10536TIP3   OH253022   0.901   3.813   5.359  0.3065 -0.1646  0.0627
10536TIP3    H153023   0.868   3.825   5.270  0.4935  1.2016  0.1559
10536TIP3    H253024   0.949   3.894   5.378  1.0555 -0.8245  1.0693
10537TIP3   OH253025   2.863   0.130   2.440 -0.3799  0.4489  0.6015
10537TIP3    H153026   2.935   0.072   2.416  0.9419  2.4985 -0.7775
10537TIP3    H253027   2.889   0.166   2.525  0.5926  1.6136 -0.1475
10538TIP3   OH253028   0.161   0.561   0.462 -0.2283 -0.2123 -0.4910
10538TIP3    H153029   0.137   0.645   0.423 -0.1128 -1.1457 -2.6833
10538TIP3    H253030   0.201   0.585   0.546 -2.6145  1.7486  0.2091
10539TIP3   OH253031   4.104   0.008   9.894  0.7095 -0.2092  0.5646
10539TIP3    H153032   4.009   0.005   9.882  0.4037 -1.0632  2.6494
10539TIP3    H253033   4.139  -0.036   9.817 -0.6772 -0.9951  0.3357
10540TIP3   OH253034   1.629   6.600   1.778 -0.2252  0.5169 -0.1189
10540TIP3    H153035   1.662   6.618   1.690 -0.3249 -0.8516 -0.4571
10540TIP3    H253036   1.640   6.505   1.789 -1.4678  0.4612  0.8231
10541TIP3   OH253037   2.379   5.567  11.825 -0.3547 -0.1761 -0.4486
10541TIP3    H153038   2.332   5.634  11.874 -1.0415  0.9462 -2.5236
10541TIP3    H253039   2.470   5.594  11.828 -0.4521  0.1268 -0.1797
10542TIP3   OH253040   1.930   1.577   3.203 -0.1488 -0.0681 -0.0422
10542TIP3    H153041   1.847   1.549   3.164 -0.1020 -0.6545  0.2710
10542TIP3    H253042   1.966   1.498   3.243 -0.6057  0.6809  1.9746
10543TIP3   OH253043   2.528   4.116   2.607 -1.1839 -0.2763 -0.1484
10543TIP3    H153044   2.511   4.166   2.688 -3.5296  0.4123 -0.9738
10543TIP3    H253045   2.513   4.025   2.632  2.3498 -0.6549  1.1737
10544TIP3   OH253046   1.492   1.061   1.191  0.0239  0.1992  0.0708
10544TIP3    H153047   1.536   0.986   1.152 -2.2009 -1.1283 -0.0746
10544TIP3    H253048   1.493   1.042   1.285 -0.6907 -0.1422  0.0196
10545TIP3   OH253049   2.073   5.563   0.883  0.5562 -0.2898  0.1722
10545TIP3    H153050   2.153   5.514   0.903  0.1064 -0.6973  1.0447
10545TIP3    H253051   2.068   5.628   0.953 -0.5112 -1.0685  0.8537
10546TIP3   OH253052   2.211   1.208   4.872  0.6755  0.3983  0.0538
10546TIP3    H153053   2.188   1.252   4.954  0.8479  1.4166 -0.4368
10546TIP3    H253054   2.262   1.272   4.824  0.1273 -0.0056 -1.0931
10547TIP3   OH253055   1.103   0.386   0.307  0.1538 -0.2686 -0.3610
10547TIP3    H153056   1.110   0.434   0.224  1.1885 -2.0374 -1.3593
10547TIP3    H253057   1.194   0.371   0.333 -0.1319  1.1404  1.6787
10548TIP3   OH253058   4.684   0.088   1.427 -0.5882  0.2049  0.0056
10548TIP3    H153059   4.611   0.048   1.475  0.1957 -1.7217 -0.3341
10548TIP3    H253060   4.663   0.072   1.335 -0.5856  1.2249 -0.1861
10549TIP3   OH253061   3.998   5.971  13.409 -0.5615 -0.2605  0.2042
10549TIP3    H153062   4.048   5.948  13.330 -0.7572 -0.3913  0.1181
10549TIP3    H253063   3.946   6.047  13.382  2.2054  2.2087  1.2855
10550TIP3   OH253064   4.631   3.156   1.302 -0.3762 -0.3611 -1.0278
10550TIP3    H153065   4.550   3.145   1.252  0.0701  1.8507 -2.4027
10550TIP3    H253066   4.609   3.220   1.369 -0.3736 -1.6514  0.2595
10551TIP3   OH253067   3.869   5.528   5.436 -0.1882 -0.2430 -0.3219
10551TIP3    H153068   3.903   5.570   5.515  0.5453  0.5122 -1.0170
10551TIP3    H253069   3.809   5.592   5.398  0.6919  0.0847 -1.2184
10552TIP3   OH253070   6.998   1.954   5.642 -0.0429 -0.2475 -0.1432
10552TIP3    H153071   6.938   1.995   5.704 -0.8784 -2.3545  0.5287
10552TIP3    H253072   7.058   1.903   5.696 -0.5399 -1.8200 -1.0052
10553TIP3   OH253073   5.295   2.629   5.725 -0.3939  0.0244 -0.5690
10553TIP3    H153074   5.356   2.661   5.791 -0.7958  3.6487 -1.6975
10553TIP3    H253075   5.349   2.575   5.667  0.6147 -0.7265  0.9838
10554TIP3   OH253076   6.028   5.547   2.751  0.0006  0.4852  0.2641
10554TIP3    H153077   6.059   5.465   2.712  2.2903  2.6392 -3.0420
10554TIP3    H253078   5.947   5.567   2.703  0.1161  0.7299  0.1699
10555TIP3   OH253079   1.964   6.831  12.675 -0.3695 -0.2272  0.5361
10555TIP3    H153080   1.988   6.812  12.766  0.6754  1.0370  0.5485
10555TIP3    H253081   1.940   6.924  12.676 -0.0209 -0.1168 -0.5442
10556TIP3   OH253082   6.798   6.204   1.864 -0.0513  0.5244  0.2183
10556TIP3    H153083   6.752   6.233   1.943  1.0870  1.9414  0.3920
10556TIP3    H253084   6.728   6.184   1.802 -0.9541 -0.3141  1.4484
10557TIP3   OH253085   6.499   6.392  15.191 -0.0821  0.7834  0.1447
10557TIP3    H153086   6.432   6.442  15.143 -0.8041  0.7565  1.0962
10557TIP3    H253087   6.451   6.349  15.262  0.8404  0.2119  0.4408
10558TIP3   OH253088   7.091   4.584   5.927 -0.3392 -0.1817  0.6463
10558TIP3    H153089   7.158   4.644   5.959  1.3291 -1.6905  0.2130
10558TIP3    H253090   7.133   4.498   5.931 -2.4410 -1.2586  0.7646
10559TIP3   OH253091   4.643   3.436  15.028 -0.3938 -0.6001 -0.1704
10559TIP3    H153092   4.677   3.384  14.955  0.1306  0.9412 -1.0764
10559TIP3    H253093   4.710   3.502  15.044 -1.1783  0.0090  0.7144
10560TIP3   OH253094   6.263   3.858   4.872 -0.3934 -0.3981 -0.5035
10560TIP3    H153095   6.194   3.822   4.928 -2.5140  1.5200 -1.7724
10560TIP3    H253096   6.291   3.784   4.818 -1.4366 -1.1989  0.0222
10561TIP3   OH253097   1.443   5.641  10.191 -0.4781 -0.3473 -0.1107
10561TIP3    H153098   1.521   5.588  10.204 -0.0235  0.4538  0.5477
10561TIP3    H253099   1.435   5.650  10.096 -1.1123 -2.3515 -0.2917
10562TIP3   OH253100   4.893   5.007   4.366 -0.6360  0.3385 -0.0075
10562TIP3    H153101   4.818   4.949   4.382  0.0786 -0.8845 -0.9184
10562TIP3    H253102   4.962   4.948   4.336  0.3316  1.5980 -0.3053
10563TIP3   OH253103   5.051   0.578   4.511 -0.5465  0.3086  0.0306
10563TIP3    H153104   5.084   0.609   4.596  0.9528 -3.3022  0.9876
10563TIP3    H253105   4.960   0.556   4.528 -0.0556 -1.1235  1.0292
10564TIP3   OH253106   4.805   2.425   4.430 -0.9775 -0.4096 -0.1884
10564TIP3    H153107   4.887   2.386   4.399 -0.8499 -0.4545  0.2019
10564TIP3    H253108   4.832   2.481   4.503 -1.4128 -1.1759  0.5697
10565TIP3   OH253109   2.214   2.493   5.262  0.1759 -0.2396 -0.1314
10565TIP3    H153110   2.140   2.534   5.307 -0.7461 -2.1699  0.2359
10565TIP3    H253111   2.286   2.501   5.324 -1.0878 -2.9163  1.8937
10566TIP3   OH253112   5.687   6.007   1.851 -0.4043  0.1010 -0.0309
10566TIP3    H153113   5.633   5.934   1.821  0.4021 -0.3542 -0.4038
10566TIP3    H253114   5.746   6.025   1.779 -0.3462  0.8911  0.2006
10567TIP3   OH253115   2.499   6.416   3.439  0.2637  0.2411  0.1119
10567TIP3    H153116   2.497   6.386   3.530  1.2862 -0.6114 -0.1208
10567TIP3    H253117   2.448   6.351   3.391  0.4003  0.2447 -0.0390
10568TIP3   OH253118   2.868   2.028  13.652  0.2762  0.4716 -0.0130
10568TIP3    H153119   2.839   2.102  13.706  0.2767  0.9473 -0.6549
10568TIP3    H253120   2.935   1.985  13.704  0.3351  0.9743  0.3373
10569TIP3   OH253121   3.897   2.545  12.119 -0.3939 -0.0077  0.0481
10569TIP3    H153122   3.839   2.619  12.139 -1.3688 -0.6431 -0.3548
10569TIP3    H253123   3.888   2.486  12.194  1.8783  1.1275  1.3046
10570TIP3   OH253124   3.991   3.536   2.612  0.0111  0.0924 -0.0616
10570TIP3    H153125   3.973   3.570   2.524  0.3678  1.9705  0.5620
10570TIP3    H253126   4.085   3.518   2.612  0.5598  2.5360  0.6630
10571TIP3   OH253127   1.245   2.953   3.337  0.2397  0.0987  0.2694
10571TIP3    H153128   1.215   2.865   3.360  1.5185 -0.2619  0.6364
10571TIP3    H253129   1.195   2.976   3.259 -1.7884  0.0016  1.4527
10572TIP3   OH253130   2.396   6.399   1.852  0.3466 -0.3795 -0.8437
10572TIP3    H153131   2.478   6.410   1.803  0.8840 -2.2476 -0.4682
10572TIP3    H253132   2.371   6.308   1.835 -0.2216 -0.6433  1.1631
10573TIP3   OH253133   0.972   5.502   2.598 -0.2472  0.1919  0.0290
10573TIP3    H153134   0.887   5.509   2.555  0.5391 -0.1535 -1.6755
10573TIP3    H253135   0.990   5.591   2.629 -0.3582  0.7355 -1.3731
10574TIP3   OH253136   3.242   0.993  10.828 -0.0722  0.0997 -0.7685
10574TIP3    H153137   3.149   0.985  10.850  0.4786 -0.0216  1.8129
10574TIP3    H253138   3.244   1.061  10.761 -1.8499  2.0386  0.9824
10575TIP3   OH253139   4.963   2.978   4.772 -0.4900  0.1684  0.3147
10575TIP3    H153140   5.054   3.001   4.754 -0.1426 -0.8822  0.6734
10575TIP3    H253141   4.924   3.060   4.803 -0.1051  1.0285 -1.3908
10576TIP3   OH253142   7.064   4.026   3.714  0.1884 -0.2513  0.7103
10576TIP3    H153143   6.994   3.997   3.656  0.2008 -2.3316  1.6347
10576TIP3    H253144   7.025   4.095   3.768 -0.1313  0.9343 -0.9624
10577TIP3   OH253145   3.338   1.883  11.257 -0.7512  0.2665  0.4453
10577TIP3    H153146   3.331   1.881  11.161 -1.5015 -3.4818  0.4237
10577TIP3    H253147   3.258   1.840  11.287 -1.2570  2.6872  2.9076
10578TIP3   OH253148   6.592   6.239   3.674 -0.1108 -0.0714  0.0237
10578TIP3    H153149   6.599   6.143   3.673 -1.5318 -0.2017 -0.1824
10578TIP3    H253150   6.531   6.257   3.746 -1.5356  0.5039 -1.2691
10579TIP3   OH253151   0.608   1.856   2.727  0.5822 -0.2881 -0.3633
10579TIP3    H153152   0.675   1.858   2.659 -0.0251 -1.7894 -1.0504
10579TIP3    H253153   0.536   1.806   2.688 -0.3506  0.0387  0.8822
10580TIP3   OH253154   4.985   3.493   1.296 -0.1097  0.3775 -0.3391
10580TIP3    H153155   4.925   3.518   1.366  0.5972 -1.5929  1.0716
10580TIP3    H253156   4.947   3.531   1.217 -1.5015  1.8012  0.9481
10581TIP3   OH253157   5.133   3.701  14.728  0.3005  0.8374  0.2209
10581TIP3    H153158   5.038   3.702  14.724  0.3290  1.1331 -0.5485
10581TIP3    H253159   5.154   3.746  14.810 -0.2304  0.2084  0.7108
10582TIP3   OH253160   6.045   1.770   1.650  0.7006 -0.3349  0.2651
10582TIP3    H153161   5.991   1.713   1.595 -0.1373 -0.2127  0.9420
10582TIP3    H253162   5.983   1.814   1.708  1.3621  1.0693 -0.0566
10583TIP3   OH253163   6.289   0.763  15.284  0.0471  0.4847  0.4768
10583TIP3    H153164   6.311   0.702  15.355  0.3272 -0.1210 -0.1174
10583TIP3    H253165   6.344   0.735  15.210 -0.5222  0.8628 -0.1010
10584TIP3   OH253166   2.338   5.446  15.109  0.3831 -0.5287  0.3885
10584TIP3    H153167   2.414   5.412  15.157  0.4678  0.4302  0.9627
10584TIP3    H253168   2.374   5.475  15.025  0.1577 -2.6321 -0.4865
10585TIP3   OH253169   2.314   2.294  14.911 -0.5186 -0.0397 -0.0367
10585TIP3    H153170   2.307   2.199  14.925  0.5614 -0.5201 -2.3241
10585TIP3    H253171   2.395   2.305  14.862 -0.0629  2.2238  1.1324
10586TIP3   OH253172   0.569   6.416   2.813  0.5453  0.4653 -0.1359
10586TIP3    H153173   0.530   6.499   2.784 -1.2684 -1.1088 -2.6772
10586TIP3    H253174   0.505   6.381   2.875  0.2185  0.0350 -0.7029
10587TIP3   OH253175   0.528   5.332  14.875 -0.3989 -0.0191  0.2557
10587TIP3    H153176   0.622   5.323  14.891 -0.2799 -3.7790 -1.5454
10587TIP3    H253177   0.516   5.297  14.787 -3.3742  1.6316 -0.0967
10588TIP3   OH253178   3.822   5.079   4.306 -1.2521 -0.6854  0.3362
10588TIP3    H153179   3.901   5.132   4.293 -0.4102 -2.0759 -0.4249
10588TIP3    H253180   3.771   5.128   4.371 -0.6155  1.1471 -0.4687
10589TIP3   OH253181   2.955   5.699   3.142  0.6254  0.2461  0.0214
10589TIP3    H153182   2.990   5.613   3.167 -0.3794 -0.3824 -0.6444
10589TIP3    H253183   2.971   5.705   3.048 -4.0558 -1.6820 -1.1774
10590TIP3   OH253184   1.977   1.849   2.263 -0.0835 -0.5199  0.7593
10590TIP3    H153185   2.010   1.795   2.191 -0.1188  1.3057 -0.7326
10590TIP3    H253186   1.889   1.815   2.279  1.4777 -3.9294  3.2061
10591TIP3   OH253187   1.395   6.628   4.065  0.3613 -0.8790 -0.3152
10591TIP3    H153188   1.489   6.609   4.061  0.4031 -0.4682 -2.1680
10591TIP3    H253189   1.371   6.607   4.155  2.3554 -0.3858  0.3966
10592TIP3   OH253190   3.088   0.584  15.205  0.1740  0.0566 -0.2002
10592TIP3    H153191   3.015   0.569  15.266 -0.7830 -0.6257 -1.4640
10592TIP3    H253192   3.047   0.624  15.128  1.4531  1.4703 -0.1944
10593TIP3   OH253193   2.483   3.803   4.518  0.7005 -0.5537  0.1748
10593TIP3    H153194   2.458   3.838   4.432  0.1914 -1.8140 -0.2190
10593TIP3    H253195   2.520   3.717   4.498  1.5005 -0.4472  1.1484
10594TIP3   OH253196   4.322   4.499   5.566 -0.0250 -0.1562  0.4567
10594TIP3    H153197   4.334   4.409   5.594  2.3627  0.5966  2.2135
10594TIP3    H253198   4.352   4.552   5.641  0.4419  2.0612 -1.1881
10595TIP3   OH253199   4.096   2.712  15.314 -0.1705 -0.1233 -0.1147
10595TIP3    H153200   4.054   2.798  15.306  0.9640  0.3960 -0.6342
10595TIP3    H253201   4.155   2.720  15.388 -0.9409 -0.8511  0.6004
10596TIP3   OH253202   5.137   0.002   0.104 -0.1062 -0.3014 -0.2056
10596TIP3    H153203   5.188  -0.043   0.171 -0.4578 -0.0988  0.2052
10596TIP3    H253204   5.187  -0.010   0.023  1.2317  0.9546  0.4046
10597TIP3   OH253205   3.736   5.500   3.129  0.1049 -0.1720 -0.5308
10597TIP3    H153206   3.725   5.434   3.061 -1.3440 -0.1376 -0.3616
10597TIP3    H253207   3.731   5.450   3.211  2.3265 -0.2872 -0.4013
10598TIP3   OH253208   4.744   7.150   2.127  0.5316 -0.2267  0.0863
10598TIP3    H153209   4.758   7.057   2.145 -0.5656 -0.8329 -1.8413
10598TIP3    H253210   4.752   7.157   2.032 -0.1386  1.5210  0.1194
10599TIP3   OH253211   6.671   3.221  13.300 -0.1140  0.1189  0.2852
10599TIP3    H153212   6.725   3.285  13.254 -1.4329  0.0031 -1.5508
10599TIP3    H253213   6.733   3.152  13.325  0.8273  0.6687 -0.4405
10600TIP3   OH253214   4.270   0.585  14.123  0.2364 -0.3226 -0.5341
10600TIP3    H153215   4.218   0.660  14.096  2.2481  0.3467 -2.8577
10600TIP3    H253216   4.329   0.619  14.190 -0.9862 -0.6558  0.7618
10601TIP3   OH253217   1.163   6.381   5.059  0.0392  0.2518 -0.3282
10601TIP3    H153218   1.112   6.300   5.067 -1.9484  1.5610  1.1080
10601TIP3    H253219   1.190   6.402   5.148  0.7997  1.0376 -0.7277
10602TIP3   OH253220   2.574   1.779   5.162  0.0941  0.2594 -0.1999
10602TIP3    H153221   2.659   1.734   5.170 -0.7159 -1.2817  0.0568
10602TIP3    H253222   2.552   1.804   5.252  0.9873  2.1339 -0.4376
10603TIP3   OH253223   4.227   4.845  14.338 -0.2085  0.1706 -0.1895
10603TIP3    H153224   4.316   4.861  14.305 -0.0004 -0.0716  0.2477
10603TIP3    H253225   4.187   4.932  14.342  0.4285  0.4335  0.7855
10604TIP3   OH253226   2.736   1.731   0.123 -0.7474 -0.0444 -0.0679
10604TIP3    H153227   2.781   1.754   0.204  0.1261  1.4553 -0.9299
10604TIP3    H253228   2.693   1.648   0.142  2.2137 -1.5035  0.8814
10605TIP3   OH253229   2.445   0.869  14.416  0.3702 -0.0251  0.1564
10605TIP3    H153230   2.488   0.832  14.339  1.9042  0.3716  0.7824
10605TIP3    H253231   2.470   0.961  14.416 -0.5281  0.2344  0.5373
10606TIP3   OH253232   3.254   0.077   2.360  0.1870 -1.0133  0.3591
10606TIP3    H153233   3.335   0.028   2.376  0.8864 -0.4024 -1.1395
10606TIP3    H253234   3.260   0.153   2.418  0.5976 -1.0616  0.3800
10607TIP3   OH253235   2.289   2.775  10.420  0.3397  0.1556 -0.3890
10607TIP3    H153236   2.300   2.779  10.325 -1.5573  3.0613 -0.6234
10607TIP3    H253237   2.308   2.863  10.450 -2.5234  0.3117  1.3954
10608TIP3   OH253238   1.800   6.779   0.279  0.4654 -0.0601 -0.5017
10608TIP3    H153239   1.746   6.817   0.349  0.2942 -0.2680 -0.5208
10608TIP3    H253240   1.877   6.836   0.274  2.1517 -1.9210  2.1286
10609TIP3   OH253241   2.874   3.415   2.398  0.4640  0.1825  0.3612
10609TIP3    H153242   2.808   3.411   2.467  0.2195 -1.5182  0.0517
10609TIP3    H253243   2.823   3.417   2.317  0.7090 -2.6118  0.0440
10610TIP3   OH253244   5.227   3.559  15.036  0.3750 -0.0968 -0.7292
10610TIP3    H153245   5.299   3.500  15.014 -0.5514 -1.1894 -0.9121
10610TIP3    H253246   5.192   3.525  15.118  0.0107  0.3813 -0.6845
10611TIP3   OH253247   1.164   5.962   5.364  0.0228 -0.0508 -0.2942
10611TIP3    H153248   1.249   5.930   5.334 -0.8499 -2.4350 -0.4965
10611TIP3    H253249   1.143   5.906   5.439 -2.5168 -1.4682 -1.8932
10612TIP3   OH253250   2.326   3.556  10.269  0.4809  0.5288 -0.2061
10612TIP3    H153251   2.356   3.468  10.248 -0.6168 -0.4682  2.0477
10612TIP3    H253252   2.360   3.573  10.357 -0.7740  1.6166  0.1104
10613TIP3   OH253253   5.145   1.997   5.626  0.2330  0.7521 -0.3034
10613TIP3    H153254   5.223   1.984   5.571 -1.2164 -1.1070 -2.0586
10613TIP3    H253255   5.139   1.916   5.677 -0.3260  1.0649  0.1308
10614TIP3   OH253256   1.130   3.624   4.336  0.3430  0.0550 -0.1396
10614TIP3    H153257   1.152   3.584   4.421 -0.8544 -3.2405 -1.2117
10614TIP3    H253258   1.058   3.683   4.355  0.2832 -0.4080  1.1972
10615TIP3   OH253259   5.953   0.998   2.449 -0.3062 -0.0374  0.2665
10615TIP3    H153260   5.892   0.928   2.426  0.9893 -0.9889 -0.3638
10615TIP3    H253261   5.956   1.053   2.370 -0.9806  0.5084  0.6044
10616TIP3   OH253262   3.695   1.164  14.011  0.1660 -0.1103 -0.0675
10616TIP3    H153263   3.670   1.234  13.950  1.4705  0.9819  0.5965
10616TIP3    H253264   3.738   1.099  13.956  1.1836  0.7908 -0.3888
10617TIP3   OH253265   4.519   5.771   0.486  0.9731  0.0098  0.7778
10617TIP3    H153266   4.513   5.866   0.497  2.5039  0.2702 -0.2762
10617TIP3    H253267   4.603   5.748   0.527 -0.0659 -1.1423  2.3757
10618TIP3   OH253268   1.693   5.129   2.396  0.3232 -0.1515  0.2224
10618TIP3    H153269   1.702   5.040   2.360 -0.2365  0.5047 -1.6531
10618TIP3    H253270   1.600   5.138   2.413  0.5355 -0.3111  1.5319
10619TIP3   OH253271   4.859   3.844  12.864  0.1390 -0.0916  0.4061
10619TIP3    H153272   4.908   3.805  12.936 -1.2285 -1.7988  0.4796
10619TIP3    H253273   4.767   3.829  12.886 -0.4184  1.8142 -0.3811
10620TIP3   OH253274   0.088   2.437  15.096  0.0920  0.4014 -0.2628
10620TIP3    H153275   0.161   2.416  15.037  1.3629 -1.8828  1.9039
10620TIP3    H253276   0.100   2.530  15.117  1.4832  0.4459 -1.1288
10621TIP3   OH253277   3.696   0.836  15.274  0.3087  0.4857  0.3270
10621TIP3    H153278   3.610   0.811  15.240  0.3376  0.0281  0.5819
10621TIP3    H253279   3.749   0.852  15.196 -0.6767  3.1930  0.1264
10622TIP3   OH253280   1.712   6.273   1.503  0.0584  0.0701 -0.2696
10622TIP3    H153281   1.722   6.219   1.581 -0.9397  0.2811  0.0115
10622TIP3    H253282   1.782   6.338   1.509 -0.1536  0.2216  0.5505
10623TIP3   OH253283   5.498   3.135  14.742 -0.2669 -0.4341  0.3089
10623TIP3    H153284   5.475   3.052  14.700 -1.8120  0.2985 -0.3843
10623TIP3    H253285   5.499   3.199  14.671  3.1784 -0.1876  0.4487
10624TIP3   OH253286   4.294   3.394   1.782  0.0020 -0.0676 -0.2073
10624TIP3    H153287   4.341   3.457   1.836  0.3145 -0.7388  0.3138
10624TIP3    H253288   4.241   3.447   1.723  0.6232  0.6854 -0.0941
10625TIP3   OH253289   0.452   5.340  13.586 -0.2829  0.3206  0.3134
10625TIP3    H153290   0.495   5.256  13.603  0.5375  0.6556 -0.0717
10625TIP3    H253291   0.358   5.319  13.587 -0.0809 -0.7514 -0.4907
10626TIP3   OH253292   1.463   1.002  12.769  0.5123 -0.3260 -0.6190
10626TIP3    H153293   1.502   1.074  12.818 -2.8997  0.4031  1.3402
10626TIP3    H253294   1.485   0.924  12.819 -0.1031  0.0187  0.2098
10627TIP3   OH253295   6.011   2.402  10.282 -0.5029 -0.3830 -0.4992
10627TIP3    H153296   5.939   2.452  10.320  2.4924  3.6840  0.5243
10627TIP3    H253297   6.037   2.341  10.351 -0.8622  0.5309  0.4705
10628TIP3   OH253298   3.370   2.720  11.476  0.2723 -0.3186  0.1711
10628TIP3    H153299   3.290   2.699  11.428  0.4504  1.3708 -0.9541
10628TIP3    H253300   3.369   2.816  11.482  1.8845 -0.3174  0.7209
10629TIP3   OH253301   3.345   3.265   5.748  0.4074  0.6758  0.2528
10629TIP3    H153302   3.381   3.341   5.794 -1.4041  1.1681  0.9337
10629TIP3    H253303   3.377   3.190   5.798 -0.7387  1.1662  1.7951
10630TIP3   OH253304   2.941   1.688   3.274  0.0153 -0.1413  0.1538
10630TIP3    H153305   2.987   1.613   3.236 -0.0049  0.8953 -2.0326
10630TIP3    H253306   2.859   1.694   3.225 -0.4160  0.7564  0.9402
10631TIP3   OH253307   4.126   1.267  14.839  0.1358 -0.1648 -0.2495
10631TIP3    H153308   4.145   1.350  14.883  1.4602  0.6007 -2.1430
10631TIP3    H253309   4.034   1.274  14.816  0.9879  2.5688 -3.6922
10632TIP3   OH253310   5.147   3.938   2.135 -0.2475  0.0940 -0.1493
10632TIP3    H153311   5.083   4.009   2.138 -0.9451 -0.4660 -1.1752
10632TIP3    H253312   5.197   3.955   2.055 -0.1702 -0.3602 -0.1974
10633TIP3   OH253313   0.702   4.409   0.752  0.0114 -0.5218  0.1516
10633TIP3    H153314   0.659   4.450   0.827  2.0099 -0.2418  1.2143
10633TIP3    H253315   0.666   4.321   0.748  0.1097 -0.6537  1.6715
10634TIP3   OH253316   0.201   4.831  11.899  0.4342 -0.0803 -0.0765
10634TIP3    H153317   0.196   4.922  11.927  2.7337 -0.4395  1.7177
10634TIP3    H253318   0.294   4.816  11.881 -0.0295 -1.8366 -1.2389
10635TIP3   OH253319   2.078   1.641   4.750 -0.2036  0.4279  0.5531
10635TIP3    H153320   2.000   1.603   4.711 -0.9369  1.9477  0.4623
10635TIP3    H253321   2.065   1.634   4.844  0.2393 -0.6412  0.5427
10636TIP3   OH253322   4.332   4.153  13.091  0.6339  0.5429 -0.2240
10636TIP3    H153323   4.365   4.222  13.148  0.8267  0.8966 -0.7603
10636TIP3    H253324   4.410   4.104  13.065  0.3484 -0.9225  1.4740
10637TIP3   OH253325   3.158   5.078   3.321 -0.1068  0.1421  0.5386
10637TIP3    H153326   3.243   5.038   3.335 -0.5430 -0.7266  0.7923
10637TIP3    H253327   3.166   5.166   3.359  0.0076 -0.7140  2.6610
10638TIP3   OH253328   3.872   0.724   0.800 -0.0031 -0.7864 -0.7996
10638TIP3    H153329   3.941   0.741   0.865  0.3663  1.8907 -1.7603
10638TIP3    H253330   3.914   0.739   0.716 -0.7049 -3.3674 -1.7018
10639TIP3   OH253331   1.691   5.832   1.555 -0.1561 -0.0685 -0.5288
10639TIP3    H153332   1.718   5.867   1.640 -1.3165  1.0807 -0.6151
10639TIP3    H253333   1.618   5.773   1.575  0.5584 -1.0052 -0.5906
10640TIP3   OH253334   6.707   1.529  13.728 -0.1572 -0.6518  0.0739
10640TIP3    H153335   6.788   1.578  13.741  0.0699 -0.7373 -0.9206
10640TIP3    H253336   6.690   1.534  13.634 -1.1770 -0.8464  0.2291
10641TIP3   OH253337   5.753   6.558  13.916 -0.4524  0.1475  0.1527
10641TIP3    H153338   5.677   6.564  13.973 -0.8223  0.1573 -0.3321
10641TIP3    H253339   5.787   6.470  13.929 -0.2026  0.3371  0.7995
10642TIP3   OH253340   0.030   2.584   3.447  0.2903  0.4742 -0.2531
10642TIP3    H153341  -0.024   2.662   3.447  0.9295  1.0351  2.6116
10642TIP3    H253342   0.105   2.607   3.392  0.2156  1.6714  0.1212
10643TIP3   OH253343   3.268   6.293   2.364  0.7858 -0.4263 -0.4447
10643TIP3    H153344   3.239   6.379   2.392  0.0657 -1.5141  2.5356
10643TIP3    H253345   3.361   6.290   2.388  0.7878 -0.5155 -0.4620
10644TIP3   OH253346   1.320   2.154  12.040 -0.6395 -0.4348 -0.7604
10644TIP3    H153347   1.402   2.136  11.994 -0.1055  0.3425 -0.1546
10644TIP3    H253348   1.254   2.161  11.971 -0.2556 -1.3795 -1.2281
10645TIP3   OH253349   1.966   5.378  13.740  0.0749 -0.7812 -0.1156
10645TIP3    H153350   1.985   5.418  13.825  1.3527 -3.6743  1.0968
10645TIP3    H253351   2.033   5.310  13.730  1.7283  1.1346 -4.7953
10646TIP3   OH253352   1.162   6.437   1.953  0.3322 -0.6158 -0.4242
10646TIP3    H153353   1.170   6.347   1.922 -1.8659 -1.0232 -0.0192
10646TIP3    H253354   1.146   6.489   1.875 -0.9336 -0.9956 -0.4413
10647TIP3   OH253355   3.799   2.767  14.576 -0.4334  0.5217 -0.0826
10647TIP3    H153356   3.743   2.700  14.537 -0.2106 -0.1431  0.7254
10647TIP3    H253357   3.798   2.749  14.670 -0.2399  1.5569  0.1346
10648TIP3   OH253358   3.792   0.618  11.915 -0.1435 -0.1679 -0.1778
10648TIP3    H153359   3.774   0.710  11.938  1.4549  0.2030 -0.3073
10648TIP3    H253360   3.856   0.590  11.979  1.5091 -0.3069 -1.8159
10649TIP3   OH253361   1.784   6.708  13.380  0.0927 -0.3653  0.2292
10649TIP3    H153362   1.830   6.754  13.310  0.6511 -0.1492  0.7238
10649TIP3    H253363   1.789   6.767  13.455 -1.6679 -0.0048  0.1057
10650TIP3   OH253364   3.684   2.386   2.454  0.2265 -0.3563 -0.4315
10650TIP3    H153365   3.677   2.476   2.422  1.4715 -0.2807 -0.5620
10650TIP3    H253366   3.682   2.332   2.375 -1.7126 -0.5619 -0.2875
10651TIP3   OH253367   4.898   6.019   5.522  0.1509 -0.1174  0.0912
10651TIP3    H153368   4.908   6.111   5.498  0.4765 -0.9651 -3.6312
10651TIP3    H253369   4.927   6.015   5.613  0.8570  3.2975  0.1636
10652TIP3   OH253370   7.015   3.272   0.314  0.4901  0.6143 -0.3493
10652TIP3    H153371   6.977   3.187   0.336  0.1820  0.9485  0.4685
10652TIP3    H253372   6.974   3.333   0.376  2.1671  1.0422  0.3899
10653TIP3   OH253373   5.794   2.271  13.905 -0.0402  0.1319 -0.6347
10653TIP3    H153374   5.727   2.205  13.922  0.2987 -0.6244 -2.0972
10653TIP3    H253375   5.764   2.349  13.952 -0.7095 -0.8938  0.6936
10654TIP3   OH253376   4.533   0.780   1.002 -0.6373  0.5391  0.1527
10654TIP3    H153377   4.624   0.808   1.001 -1.1389  2.3058  0.6677
10654TIP3    H253378   4.490   0.832   0.935 -1.4456  0.3750  0.5268
10655TIP3   OH253379   4.011   1.557   0.355 -0.4854 -0.0422  1.1349
10655TIP3    H153380   4.022   1.525   0.266  0.6455 -0.5707  1.4495
10655TIP3    H253381   4.100   1.563   0.390 -0.8892  0.4680  2.1217
10656TIP3   OH253382   1.166   1.245  12.104  0.4167  0.2155 -0.0176
10656TIP3    H153383   1.162   1.297  12.185 -2.1441 -1.6717  1.2166
10656TIP3    H253384   1.257   1.253  12.075  0.6042  3.8131  1.0497
10657TIP3   OH253385   3.357   6.438   1.629 -0.2736  0.1672  0.3895
10657TIP3    H153386   3.312   6.382   1.692 -1.9908 -0.0740 -0.9548
10657TIP3    H253387   3.431   6.475   1.677 -0.4896 -1.3780  1.9949
10658TIP3   OH253388   2.138   5.894   4.827 -0.0940 -0.0091  0.1865
10658TIP3    H153389   2.052   5.873   4.864 -0.5139  0.0051 -0.7574
10658TIP3    H253390   2.195   5.825   4.859 -0.4482 -0.0110  0.8362
10659TIP3   OH253391   2.885   1.044  13.746 -0.4241  0.2892 -0.2687
10659TIP3    H153392   2.928   1.116  13.793 -1.3318  1.2799 -0.8813
10659TIP3    H253393   2.865   1.082  13.659 -1.2101 -0.5984 -0.4890
10660TIP3   OH253394   4.230   5.899   0.147 -0.1262  0.1590 -0.4278
10660TIP3    H153395   4.163   5.861   0.203 -1.6492  0.8107 -1.7354
10660TIP3    H253396   4.255   5.981   0.192  0.5551 -0.5572  0.5541
10661TIP3   OH253397   4.664   1.470   4.458  0.0107  0.1188 -0.4196
10661TIP3    H153398   4.739   1.410   4.453  1.0179  1.3951 -1.2094
10661TIP3    H253399   4.593   1.423   4.414  1.6100  0.6467 -3.9388
10662TIP3   OH253400   0.905   6.309   2.990  0.0267 -0.6155 -0.2869
10662TIP3    H153401   0.942   6.385   2.946 -0.1044 -0.1788  0.3499
10662TIP3    H253402   0.977   6.275   3.044 -0.2920 -0.1503  0.4497
10663TIP3   OH253403   0.026   5.101  14.772  0.0015  0.0454  0.1875
10663TIP3    H153404  -0.033   5.082  14.699 -1.9801  2.2453  1.0873
10663TIP3    H253405   0.080   5.174  14.741 -0.6502  0.7947  0.7451
10664TIP3   OH253406   4.422   1.859  12.036  0.6981  0.5233  0.3586
10664TIP3    H153407   4.463   1.886  12.119  2.8125  0.0984 -0.4815
10664TIP3    H253408   4.446   1.767  12.026 -0.9528  0.0937  0.0352
10665TIP3   OH253409   5.524   5.373  13.331  0.0747 -0.4113 -0.5678
10665TIP3    H153410   5.554   5.462  13.351  0.6368 -1.1596  2.2125
10665TIP3    H253411   5.599   5.332  13.287 -0.1446  0.3939 -1.7557
10666TIP3   OH253412   0.930   3.387  10.830  0.1732  0.5418  0.1242
10666TIP3    H153413   0.854   3.382  10.772  0.3291  0.0251 -0.0458
10666TIP3    H253414   0.968   3.299  10.827 -0.4475  0.1771  1.8689
10667TIP3   OH253415   2.567   3.903   0.147  0.1010  0.3706  0.4048
10667TIP3    H153416   2.483   3.907   0.194  0.5315  1.9811  1.1385
10667TIP3    H253417   2.578   3.991   0.111  1.0941 -0.0574 -0.3916
10668TIP3   OH253418   3.162   4.690   2.035 -0.1893  0.1905  0.5628
10668TIP3    H153419   3.200   4.628   2.097  1.6203  0.0334 -0.6174
10668TIP3    H253420   3.151   4.639   1.954 -0.4146  0.9348  0.1168
10669TIP3   OH253421   1.695   6.546  14.857 -0.1052 -0.5604  0.2619
10669TIP3    H153422   1.634   6.489  14.811 -1.1400  0.5124  0.2468
10669TIP3    H253423   1.639   6.603  14.909  0.9426 -0.1493  0.9551
10670TIP3   OH253424   0.409   0.630   3.292 -0.0961 -0.0651 -0.0267
10670TIP3    H153425   0.504   0.632   3.294 -0.1116  0.1390  0.6695
10670TIP3    H253426   0.387   0.629   3.199  0.5483  2.1813 -0.2554
10671TIP3   OH253427   2.588   3.132   4.393  0.2557  0.0743  0.4487
10671TIP3    H153428   2.519   3.195   4.415  1.4263  1.8548 -0.6659
10671TIP3    H253429   2.565   3.104   4.304  0.4095 -0.1071  0.4682
10672TIP3   OH253430   4.054   5.390  15.432 -0.3863 -0.5346  0.2566
10672TIP3    H153431   4.090   5.479  15.433  0.2231 -0.7306  2.8595
10672TIP3    H253432   4.092   5.350  15.354 -0.1028  1.2457 -0.5732
10673TIP3   OH253433   6.938   1.624  13.304  0.1825  0.6851  0.1664
10673TIP3    H153434   6.857   1.615  13.254  0.4417 -0.6542 -0.0455
10673TIP3    H253435   7.007   1.603  13.241  0.5007 -1.3993  1.1427
10674TIP3   OH253436   0.571   0.663   2.822  0.0963  0.4831  0.1128
10674TIP3    H153437   0.493   0.711   2.795  0.1949  0.2334 -0.6472
10674TIP3    H253438   0.603   0.711   2.899 -0.9930  0.3747  0.6494
10675TIP3   OH253439   0.841   3.415   0.229  0.8576  0.1974 -0.3331
10675TIP3    H153440   0.882   3.369   0.155 -0.3571  0.5738 -1.2714
10675TIP3    H253441   0.907   3.411   0.298  1.6252 -1.0892 -1.0801
10676TIP3   OH253442   5.809   6.921  14.299  0.1127  0.3880 -0.1720
10676TIP3    H153443   5.842   6.856  14.237 -1.5472  0.5289 -1.2524
10676TIP3    H253444   5.787   6.997  14.245  0.5943  1.3134  0.8870
10677TIP3   OH253445   0.217   1.254   1.303  0.4886 -0.0032  0.2583
10677TIP3    H153446   0.203   1.202   1.381 -0.0222 -0.8742 -0.3980
10677TIP3    H253447   0.139   1.310   1.296  0.6645  0.2771  0.5192
10678TIP3   OH253448   5.625   0.619   4.500 -0.0521  0.1553 -0.1910
10678TIP3    H153449   5.692   0.595   4.564 -0.6890 -0.0601  0.4102
10678TIP3    H253450   5.551   0.649   4.553 -0.6638 -0.2129 -0.8267
10679TIP3   OH253451   5.947   0.679  11.198  0.5444  1.0488 -0.6804
10679TIP3    H153452   5.891   0.723  11.261  0.0953  0.3489 -0.5755
10679TIP3    H253453   6.034   0.679  11.239  0.1198 -0.0452  0.3031
10680TIP3   OH253454   1.656   5.098   2.686 -0.8224  0.2441 -0.3599
10680TIP3    H153455   1.597   5.049   2.628 -0.4962  0.6279 -1.0338
10680TIP3    H253456   1.733   5.116   2.631  0.5518 -1.4335  0.8826
10681TIP3   OH253457   5.819   6.887   0.631 -0.2276  0.2902 -0.0843
10681TIP3    H153458   5.803   6.903   0.725  0.9093  0.9277  0.0211
10681TIP3    H253459   5.833   6.974   0.594 -0.4805  0.0247 -0.8239
10682TIP3   OH253460   0.232   1.339   0.531 -0.3275 -0.6546 -0.2359
10682TIP3    H153461   0.168   1.401   0.566  1.7554  0.1158  2.5113
10682TIP3    H253462   0.262   1.379   0.449  1.9922  2.9001  2.0957
10683TIP3   OH253463   0.738   7.138  14.486  0.6887 -0.2916  0.3174
10683TIP3    H153464   0.764   7.084  14.412  1.4295  0.0021  0.3487
10683TIP3    H253465   0.796   7.214  14.481  0.1225  0.1707  0.6657
10684TIP3   OH253466   6.572   3.510  13.837 -0.2677 -0.0884 -0.0311
10684TIP3    H153467   6.594   3.468  13.920 -0.7749  1.3265  0.8590
10684TIP3    H253468   6.648   3.565  13.817 -0.1650 -0.3925 -0.5004
10685TIP3   OH253469   4.697   3.658   4.048 -0.3020  0.3911 -0.8982
10685TIP3    H153470   4.660   3.746   4.046  0.5416  0.7653 -0.5886
10685TIP3    H253471   4.780   3.666   4.001 -0.2272 -0.2441 -0.8795
10686TIP3   OH253472   3.764   4.736  14.687 -0.4576  0.1717  0.2467
10686TIP3    H153473   3.827   4.778  14.629 -0.3205  2.2559  1.8132
10686TIP3    H253474   3.686   4.792  14.684 -1.9016 -1.7480 -0.7708
10687TIP3   OH253475   6.722   3.599   2.228 -0.3319  0.3300 -0.1042
10687TIP3    H153476   6.766   3.551   2.157 -2.1710 -0.6516 -0.6330
10687TIP3    H253477   6.758   3.562   2.308  0.8529  0.5798 -0.4994
10688TIP3   OH253478   1.188   1.629  15.173  0.0920  0.1290  0.3526
10688TIP3    H153479   1.273   1.645  15.133  0.3525  0.0210  0.8508
10688TIP3    H253480   1.188   1.535  15.195 -0.3739  0.0066 -0.1423
10689TIP3   OH253481   5.468   0.654   5.103  1.2951  0.0700  0.1226
10689TIP3    H153482   5.448   0.584   5.040  1.4288 -0.9396  1.1669
10689TIP3    H253483   5.461   0.612   5.189  2.5336  1.0605  0.7434
10690TIP3   OH253484   6.942   4.409  15.306 -0.2016 -0.2745  0.3143
10690TIP3    H153485   7.004   4.438  15.373  0.7927  0.5401 -0.9118
10690TIP3    H253486   6.919   4.488  15.259 -1.0327 -0.8079 -0.2026
10691TIP3   OH253487   0.076   6.948   4.794 -0.3054  0.7325 -0.3127
10691TIP3    H153488   0.067   6.895   4.873  0.4575  2.2158  0.8183
10691TIP3    H253489  -0.014   6.968   4.768 -0.5602  0.7349  0.5557
10692TIP3   OH253490   4.826   1.700   0.754 -0.8157  0.5688 -0.2312
10692TIP3    H153491   4.767   1.648   0.700  0.6728 -0.5295 -0.8835
10692TIP3    H253492   4.824   1.787   0.716 -1.2989  0.2961 -0.8311
10693TIP3   OH253493   1.554   4.553   5.479 -0.2580  0.5976 -0.8646
10693TIP3    H153494   1.592   4.640   5.464  0.7694  0.1557 -0.9113
10693TIP3    H253495   1.618   4.492   5.443 -0.6802 -0.2142 -0.2828
10694TIP3   OH253496   5.074   1.641   3.396  0.4195 -0.2253  0.6915
10694TIP3    H153497   5.044   1.681   3.477 -1.1020  0.6346 -0.2466
10694TIP3    H253498   5.083   1.714   3.335 -2.1738 -1.1514 -0.9883
10695TIP3   OH253499   0.167   2.348  14.357  0.6488 -0.0672 -0.3036
10695TIP3    H153500   0.159   2.253  14.363 -1.1011 -0.0808 -1.9580
10695TIP3    H253501   0.245   2.363  14.304  1.0941 -0.5497  0.2038
10696TIP3   OH253502   5.931   5.585   4.407  0.4599  0.5415 -0.4165
10696TIP3    H153503   5.912   5.537   4.326  0.1617  2.8347 -1.8099
10696TIP3    H253504   6.025   5.601   4.404  1.4278 -3.4017  2.1795
10697TIP3   OH253505   3.859   2.913   1.994 -0.2240 -0.3744 -0.3929
10697TIP3    H153506   3.883   2.901   2.086 -1.0744  2.3696  0.2641
10697TIP3    H253507   3.940   2.893   1.946  0.9633  0.5027  1.1504
10698TIP3   OH253508   4.653   7.025   0.427  0.3599 -0.0497  0.1226
10698TIP3    H153509   4.701   6.943   0.412 -0.0630 -0.3452  0.3699
10698TIP3    H253510   4.608   7.042   0.344  0.7438  0.1362 -0.0529
10699TIP3   OH253511   1.406   4.143   4.266  0.2491 -0.5263  0.0474
10699TIP3    H153512   1.436   4.104   4.184 -0.6323 -0.8981 -0.1149
10699TIP3    H253513   1.312   4.155   4.253  0.4420  1.4569  0.1707
10700TIP3   OH253514   1.458   1.106   1.865  0.3287  0.2683  0.6028
10700TIP3    H153515   1.498   1.059   1.939 -1.0938  0.2982  1.4196
10700TIP3    H253516   1.421   1.037   1.810 -0.1000  0.3192  0.8194
10701TIP3   OH253517   4.878   5.049  11.646  0.5484 -0.3184  0.1766
10701TIP3    H153518   4.858   5.042  11.739  2.5608  0.7760  0.7529
10701TIP3    H253519   4.812   4.995  11.603 -1.9629  1.0996  2.0109
10702TIP3   OH253520   6.814   5.471   4.474  0.3452 -0.2361 -0.1191
10702TIP3    H153521   6.863   5.505   4.400 -0.1144  0.9171  0.0824
10702TIP3    H253522   6.739   5.530   4.483 -0.9344 -1.7601 -0.2318
10703TIP3   OH253523   3.121   0.517  11.681  0.0393  0.6490  0.7505
10703TIP3    H153524   3.108   0.441  11.624 -0.6995  0.0763  1.6381
10703TIP3    H253525   3.040   0.567  11.673  0.2452  0.9806  0.7100
10704TIP3   OH253526   0.419   7.085   2.517  0.3253  0.1384  0.2126
10704TIP3    H153527   0.337   7.053   2.554  0.6181  2.1338  2.9085
10704TIP3    H253528   0.486   7.031   2.556  0.4058 -1.1048 -1.5369
10705TIP3   OH253529   6.178   2.311  13.877  0.3590 -0.1057 -0.3687
10705TIP3    H153530   6.174   2.248  13.949  1.2448 -0.8198 -0.9096
10705TIP3    H253531   6.091   2.306  13.836 -0.5289  1.1086  1.2694
10706TIP3   OH253532   4.789   6.246  14.821 -0.5204 -0.3948 -0.3854
10706TIP3    H153533   4.716   6.308  14.829 -0.9618 -0.7908 -1.1749
10706TIP3    H253534   4.819   6.256  14.731  3.1645  2.7524  0.9099
10707TIP3   OH253535   5.993   2.619  13.277 -0.2546  0.1870 -0.7348
10707TIP3    H153536   6.046   2.606  13.355 -0.7028 -0.2672 -0.4917
10707TIP3    H253537   6.020   2.548  13.218  0.3956  0.7925 -1.1730
10708TIP3   OH253538   6.853   2.271  14.096  0.0697  0.1800 -0.0736
10708TIP3    H153539   6.861   2.282  14.002 -0.0755 -1.4983 -0.3026
10708TIP3    H253540   6.905   2.343  14.133  1.0052  0.2274 -1.4310
10709TIP3   OH253541   3.061   2.867   2.513  0.3945  0.0649 -0.1225
10709TIP3    H153542   3.040   2.960   2.517 -0.4484 -0.1642  1.2638
10709TIP3    H253543   3.073   2.849   2.420 -2.4280  0.9180 -0.7488
10710TIP3   OH253544   0.385   0.214   5.765  0.3146  0.3850 -0.1016
10710TIP3    H153545   0.360   0.212   5.857  0.9383 -2.3107  0.1056
10710TIP3    H253546   0.464   0.267   5.763  1.0795 -0.6181  1.2099
10711TIP3   OH253547   0.675   1.693   4.689  0.7023 -0.5292 -0.1896
10711TIP3    H153548   0.700   1.781   4.719  0.4159 -0.8396  1.0271
10711TIP3    H253549   0.629   1.708   4.607 -1.8697  0.7961  1.3381
10712TIP3   OH253550   5.957   6.479   3.385  0.4832 -0.2128  0.1400
10712TIP3    H153551   6.025   6.482   3.452 -0.2959 -0.0555  0.9346
10712TIP3    H253552   5.970   6.558   3.334  0.2230  0.3808  0.9746
10713TIP3   OH253553   2.863   0.434   3.282  0.0042  0.0707 -0.3193
10713TIP3    H153554   2.903   0.348   3.272 -0.9724 -0.5317  0.6589
10713TIP3    H253555   2.881   0.458   3.373  1.0114  1.3066 -0.8240
10714TIP3   OH253556   5.363   2.073   2.649 -0.2331 -1.0572 -0.1675
10714TIP3    H153557   5.324   2.140   2.704 -1.0077  0.3743 -2.3330
10714TIP3    H253558   5.295   2.005   2.642 -0.1616 -1.2063  0.5218
10715TIP3   OH253559   4.400   1.918   3.501 -0.3226 -0.1911  0.8862
10715TIP3    H153560   4.440   1.873   3.575 -0.7026  0.0700  1.2498
10715TIP3    H253561   4.464   1.985   3.476 -0.4424  0.0945  1.3408
10716TIP3   OH253562   3.058   3.483   5.015  0.0248  0.3383 -0.5499
10716TIP3    H153563   2.996   3.469   4.943 -1.2308 -2.1902  0.8869
10716TIP3    H253564   3.144   3.463   4.978 -0.7513 -2.4572 -1.0921
10717TIP3   OH253565   0.187   7.120   2.154  0.5661 -0.4596 -0.2390
10717TIP3    H153566   0.175   7.214   2.169  1.8155 -0.6031  2.2941
10717TIP3    H253567   0.277   7.112   2.122 -0.4171 -0.6508 -3.2415
10718TIP3   OH253568   1.048   6.394   3.876  0.7157 -0.4320  0.3934
10718TIP3    H153569   1.025   6.401   3.969  0.7051 -0.0575  0.3652
10718TIP3    H253570   1.017   6.308   3.850 -1.0440  0.1964  0.2445
10719TIP3   OH253571   0.779   6.159   0.048  0.0981  0.3026 -0.0255
10719TIP3    H153572   0.874   6.170   0.046  0.3284 -1.3901 -0.2002
10719TIP3    H253573   0.766   6.067   0.025 -1.5966  0.5382 -0.1037
10720TIP3   OH253574   6.675   1.857   3.991  0.5632  0.1534  0.3522
10720TIP3    H153575   6.654   1.764   3.992  0.8720  0.0780  0.0851
10720TIP3    H253576   6.667   1.883   3.899  0.2764  0.4388  0.4539
10721TIP3   OH253577   7.141   6.177   1.139 -0.4584 -0.3438  0.7914
10721TIP3    H153578   7.063   6.141   1.097 -0.6342 -1.4116  1.9672
10721TIP3    H253579   7.204   6.187   1.068 -0.6799 -2.2670  0.2535
10722TIP3   OH253580   4.408   6.440   1.714  0.5696 -0.0618  0.2671
10722TIP3    H153581   4.394   6.494   1.791 -0.4971 -0.4301  0.3562
10722TIP3    H253582   4.442   6.500   1.648  1.4860  0.2599  1.0106
10723TIP3   OH253583   6.654   4.019   1.907  0.1875 -0.0961  0.1364
10723TIP3    H153584   6.650   3.956   1.979  1.1110  0.2586  0.5049
10723TIP3    H253585   6.563   4.027   1.878 -0.6001  1.3693  2.6908
10724TIP3   OH253586   4.566   0.302  15.448  0.0635 -0.1817  0.0988
10724TIP3    H153587   4.509   0.232  15.416  2.9414 -2.2824 -0.8840
10724TIP3    H253588   4.618   0.260  15.516  2.7932  0.4998 -1.4150
10725TIP3   OH253589   5.045   5.772   3.167  0.1055  0.4996 -0.3539
10725TIP3    H153590   5.035   5.725   3.084  0.5767  0.7950 -0.5821
10725TIP3    H253591   4.986   5.846   3.161 -1.5627 -0.7008  0.4995
10726TIP3   OH253592   1.031   4.891  13.121 -0.5547 -0.0072 -0.8312
10726TIP3    H153593   0.971   4.868  13.192  0.8870  0.5659  0.6084
10726TIP3    H253594   1.032   4.813  13.065  0.1376 -1.4533  1.1018
10727TIP3   OH253595   5.546   5.526   1.660 -0.0309 -0.4301  0.2511
10727TIP3    H153596   5.592   5.449   1.625  0.3707  0.4901 -1.3437
10727TIP3    H253597   5.464   5.529   1.611 -0.2232 -0.0685  0.5950
10728TIP3   OH253598   0.034   4.743   2.815 -0.2157  0.2039  0.4137
10728TIP3    H153599   0.071   4.810   2.759  0.3028 -1.2236 -1.0156
10728TIP3    H253600   0.079   4.754   2.899  1.7786  0.0192 -0.5745
10729TIP3   OH253601   1.073   0.473  10.596  0.1321  0.1653 -0.2491
10729TIP3    H153602   1.012   0.409  10.558 -0.2413  0.9654 -1.0404
10729TIP3    H253603   1.021   0.553  10.604  0.8048  0.5806  0.0145
10730TIP3   OH253604   4.672   6.860   3.818 -0.3684  0.3964 -0.2080
10730TIP3    H153605   4.721   6.799   3.873 -1.3479  0.8340  1.2208
10730TIP3    H253606   4.600   6.807   3.783  1.2182 -0.3462 -2.6172
10731TIP3   OH253607   5.843   5.215  14.685 -0.5450 -0.1888  0.1446
10731TIP3    H153608   5.775   5.239  14.749 -0.5089  1.1419 -0.2799
10731TIP3    H253609   5.812   5.254  14.603  1.0109  0.9691  0.0664
10732TIP3   OH253610   4.899   2.132  11.416  0.0930 -0.4077  0.0008
10732TIP3    H153611   4.991   2.157  11.416 -0.2281  1.0966 -2.2987
10732TIP3    H253612   4.853   2.210  11.449 -0.3888 -1.1057  1.0339
10733TIP3   OH253613   1.446   1.143   3.649  0.2303  0.0558  0.1593
10733TIP3    H153614   1.427   1.193   3.569 -0.7955 -0.2561  0.1859
10733TIP3    H253615   1.494   1.067   3.619 -1.3667 -0.7916 -0.3827
10734TIP3   OH253616   5.182   5.555   5.007 -0.1212 -0.4570  0.3298
10734TIP3    H153617   5.122   5.482   5.022  0.3771 -0.4402  2.7119
10734TIP3    H253618   5.127   5.633   5.014 -0.7903 -0.4956 -2.8790
10735TIP3   OH253619   5.572   3.515  15.243 -0.4616 -0.3594 -0.1701
10735TIP3    H153620   5.600   3.449  15.307  1.4668 -0.6090 -1.2006
10735TIP3    H253621   5.534   3.585  15.296 -1.6361 -1.8163  1.0180
10736TIP3   OH253622   1.330   0.844   1.743 -0.2592 -0.1165 -0.0819
10736TIP3    H153623   1.238   0.827   1.767 -0.3567 -0.0778 -0.4287
10736TIP3    H253624   1.347   0.784   1.671  0.9732 -2.4880  2.0125
10737TIP3   OH253625   4.695   2.812  12.908  0.3261  0.3633  0.1376
10737TIP3    H153626   4.643   2.777  12.835 -2.5232  0.3163  2.0598
10737TIP3    H253627   4.680   2.907  12.904 -0.8959  0.2536  1.3282
10738TIP3   OH253628   3.726   3.445  14.627  0.2553 -0.8016  0.0480
10738TIP3    H153629   3.804   3.397  14.598  0.9320  0.2025  0.1542
10738TIP3    H253630   3.653   3.386  14.609  0.8291 -0.9763 -1.9625
10739TIP3   OH253631   2.010   3.368   1.035 -0.3299  0.2698 -0.5330
10739TIP3    H153632   1.935   3.425   1.047  0.5694  1.4359 -0.2736
10739TIP3    H253633   2.056   3.404   0.959 -1.2054 -1.7585 -2.0973
10740TIP3   OH253634   2.651   0.384   2.747  0.2382  0.6805  0.1023
10740TIP3    H153635   2.721   0.442   2.718 -1.9938  3.4349 -0.2201
10740TIP3    H253636   2.585   0.390   2.678 -0.5508 -1.4612  0.5962
10741TIP3   OH253637   3.867   1.427   1.612 -0.2968 -0.4819  0.2409
10741TIP3    H153638   3.960   1.433   1.589 -0.0795  1.2172  1.3878
10741TIP3    H253639   3.834   1.516   1.600 -1.4961 -0.8099  0.9588
10742TIP3   OH253640   5.423   5.960   1.329  0.1440  0.7059  0.1454
10742TIP3    H153641   5.405   6.053   1.317 -2.4418  0.0642 -2.0113
10742TIP3    H253642   5.384   5.918   1.252  2.5820 -2.0636  0.2606
10743TIP3   OH253643   7.103   0.023  12.042  0.5377  0.1505  0.3113
10743TIP3    H153644   7.120  -0.071  12.037 -0.8610 -0.1455  0.7239
10743TIP3    H253645   7.029   0.031  12.101  0.7006  1.5356  0.3636
10744TIP3   OH253646   6.521   5.971  13.980  0.1915  0.0378  0.2286
10744TIP3    H153647   6.480   6.053  14.009  0.1510 -0.3369  1.2461
10744TIP3    H253648   6.448   5.917  13.949  0.0697 -0.1245  0.8025
10745TIP3   OH253649   0.199   0.160   0.514  0.5109 -0.3349 -0.4675
10745TIP3    H153650   0.215   0.074   0.474 -0.5706 -0.3257 -0.9573
10745TIP3    H253651   0.212   0.145   0.608 -1.0063 -1.3919 -0.3882
10746TIP3   OH253652   0.985   0.939   1.290 -0.9074 -0.3642 -0.5888
10746TIP3    H153653   0.991   0.846   1.273 -1.5006 -0.4120 -0.5404
10746TIP3    H253654   0.891   0.957   1.297 -0.7762  0.0788  0.2381
10747TIP3   OH253655   4.395   3.695   4.740  0.7094  0.0825 -0.6428
10747TIP3    H153656   4.414   3.603   4.721  0.4109 -0.6710  2.1261
10747TIP3    H253657   4.367   3.694   4.832 -0.3949  2.8161 -0.8732
10748TIP3   OH253658   1.421   0.966   2.540  0.2056 -0.2905 -0.0247
10748TIP3    H153659   1.344   0.937   2.493  0.5485  0.5131 -1.1129
10748TIP3    H253660   1.446   1.049   2.498  1.3249 -0.2553  0.6605
10749TIP3   OH253661   1.524   0.672   9.474 -0.4608 -0.6353 -0.3064
10749TIP3    H153662   1.501   0.762   9.497 -1.6012 -1.2648  1.1693
10749TIP3    H253663   1.603   0.680   9.420  1.1267  1.0786  2.0960
10750TIP3   OH253664   5.361   3.691   1.909 -0.3232 -0.2115  0.1700
10750TIP3    H153665   5.282   3.734   1.875 -0.6797  0.3971  1.7022
10750TIP3    H253666   5.336   3.660   1.996  0.7767 -1.1037  0.1866
10751TIP3   OH253667   2.152   5.891   3.505 -0.0963  0.7415  0.8129
10751TIP3    H153668   2.123   5.837   3.578  1.9558 -2.5252 -0.5480
10751TIP3    H253669   2.085   5.878   3.438  0.7599 -0.8619  0.2212
10752TIP3   OH253670   1.165   2.706   3.634  0.4190  0.2995  0.0546
10752TIP3    H153671   1.161   2.717   3.539 -0.0019  2.2069  0.2510
10752TIP3    H253672   1.164   2.611   3.647 -1.1543 -0.0167 -1.7826
10753TIP3   OH253673   0.769   4.694  10.235 -0.1944  0.4213  0.0289
10753TIP3    H153674   0.720   4.770  10.205  1.0823  0.7152 -1.3974
10753TIP3    H253675   0.775   4.637  10.159  0.2681 -0.3609  0.6305
10754TIP3   OH253676   4.432   4.285   1.338  0.1175 -0.0194  0.4809
10754TIP3    H153677   4.438   4.360   1.397 -1.8548 -0.4501  1.3156
10754TIP3    H253678   4.443   4.209   1.394 -0.0072 -0.4163 -0.0211
10755TIP3   OH253679   6.767   0.326  12.517 -0.6439 -0.5534 -0.3432
10755TIP3    H153680   6.733   0.362  12.600  2.8132  0.1117  0.9344
10755TIP3    H253681   6.781   0.403  12.462  1.8973 -0.3646  0.4621
10756TIP3   OH253682   4.100   5.829   3.770 -0.0086 -0.2009  0.0830
10756TIP3    H153683   4.091   5.743   3.730 -1.0495 -1.2227  2.3069
10756TIP3    H253684   4.069   5.816   3.860  2.2028  1.8838  1.2584
10757TIP3   OH253685   3.367   3.861   5.033  0.0655 -0.0521  0.2317
10757TIP3    H153686   3.367   3.916   4.955  3.3601 -2.3817 -1.6670
10757TIP3    H253687   3.285   3.811   5.027 -1.6177  2.4650  0.5317
10758TIP3   OH253688   2.766   4.853  14.345 -0.5744 -0.2167 -0.0317
10758TIP3    H153689   2.720   4.848  14.262 -1.1726  1.3028  0.1637
10758TIP3    H253690   2.734   4.934  14.385  0.3380 -0.4703  1.2902
10759TIP3   OH253691   1.251   1.291   1.608  0.0891 -0.1016 -1.0042
10759TIP3    H153692   1.203   1.227   1.555  0.4420 -1.3370  0.1228
10759TIP3    H253693   1.342   1.278   1.584  0.2150 -0.4217 -0.3716
10760TIP3   OH253694   2.537   0.425   5.395 -0.6627 -0.6333  0.8769
10760TIP3    H153695   2.483   0.413   5.473 -1.5239  0.0856  0.4154
10760TIP3    H253696   2.597   0.495   5.417 -1.9430  0.6640  0.4006
10761TIP3   OH253697   5.059   3.746   1.562  0.5451 -0.8530  0.3260
10761TIP3    H153698   4.976   3.708   1.534  1.4817 -1.3729 -1.9279
10761TIP3    H253699   5.034   3.825   1.610 -1.2667 -1.5434  0.5961
10762TIP3   OH253700   1.190   4.974   2.867  0.2022  0.4934 -0.9062
10762TIP3    H153701   1.225   4.887   2.848 -2.3304 -0.6468 -0.8236
10762TIP3    H253702   1.223   5.030   2.796  0.0710 -1.0655 -2.2580
10763TIP3   OH253703   6.664   1.392   3.854  0.0123  0.1265 -0.4135
10763TIP3    H153704   6.739   1.423   3.905  0.4670 -0.6227 -0.6064
10763TIP3    H253705   6.614   1.339   3.916 -0.2555  0.4574 -0.3417
10764TIP3   OH253706   3.079   4.581  13.842 -0.1058 -0.0708 -0.1753
10764TIP3    H153707   3.014   4.522  13.880  0.2345  0.1496  0.7899
10764TIP3    H253708   3.163   4.538  13.859 -0.0089 -0.8307 -2.2664
10765TIP3   OH253709   4.148   2.399   0.005  0.2421 -0.4342 -0.2550
10765TIP3    H153710   4.170   2.358  -0.079 -0.7541 -0.5639 -0.4581
10765TIP3    H253711   4.223   2.456   0.023  0.3098 -0.1212 -1.4096
10766TIP3   OH253712   6.387   6.536  12.648 -0.1727 -0.5341  0.2036
10766TIP3    H153713   6.366   6.575  12.732  1.5041  0.3323  0.2740
10766TIP3    H253714   6.342   6.590  12.583  0.8589  0.6067  0.4002
10767TIP3   OH253715   3.902   5.733   3.985 -0.2561  0.3485 -0.4319
10767TIP3    H153716   3.835   5.664   3.992 -1.0269  1.1144 -0.0752
10767TIP3    H253717   3.875   5.799   4.048  1.1055  0.4803  0.0449
10768TIP3   OH253718   5.369   2.642   4.075  0.1564 -0.3607 -0.3215
10768TIP3    H153719   5.363   2.645   3.979  2.2356 -2.3842 -0.5981
10768TIP3    H253720   5.317   2.565   4.099 -0.7130  0.3858  0.2591
10769TIP3   OH253721   3.381   3.689   0.001 -0.3571  0.1286  0.1467
10769TIP3    H153722   3.336   3.774   0.000 -2.0638 -0.7059 -2.1026
10769TIP3    H253723   3.383   3.662  -0.090  3.2342 -0.7678  0.3541
10770TIP3   OH253724   0.238   1.699   4.291  0.0544  0.0732 -0.5776
10770TIP3    H153725   0.214   1.791   4.276  0.9751  0.7456  1.6358
10770TIP3    H253726   0.307   1.683   4.227  0.7718  1.3462 -0.1677
10771TIP3   OH253727   6.239   1.655   0.056 -0.0742 -0.1980  0.6834
10771TIP3    H153728   6.291   1.731   0.081  0.3620 -0.0822 -0.5288
10771TIP3    H253729   6.280   1.582   0.100 -0.2635  0.2070  1.5503
10772TIP3   OH253730   6.533   5.903  10.972 -0.0255  0.3344  0.5943
10772TIP3    H153731   6.468   5.971  10.956  1.1665  1.8503  1.9151
10772TIP3    H253732   6.518   5.876  11.063 -0.6964 -1.4467 -0.0064
10773TIP3   OH253733   1.909   2.979  11.640 -0.0637  0.3814  0.5446
10773TIP3    H153734   1.986   2.985  11.584 -0.5505  0.5926 -0.1165
10773TIP3    H253735   1.939   3.009  11.726  0.9457 -0.9104  0.6724
10774TIP3   OH253736   6.914   3.416   2.163 -0.0351 -0.3252 -0.1472
10774TIP3    H153737   6.889   3.345   2.104 -1.0176 -1.5561  1.6452
10774TIP3    H253738   6.946   3.371   2.242 -0.3628  1.2247  0.9164
10775TIP3   OH253739   0.243   5.460  11.815 -0.0215 -0.2534 -0.0146
10775TIP3    H153740   0.254   5.478  11.908  2.3578 -1.2561 -0.0091
10775TIP3    H253741   0.149   5.446  11.803 -0.7280  2.4845  1.6835
10776TIP3   OH253742   3.160   0.949   4.689  0.0172 -0.6946 -0.1768
10776TIP3    H153743   3.110   0.897   4.626  0.4935 -0.2963 -0.8972
10776TIP3    H253744   3.122   1.037   4.683 -0.2146 -0.7502  0.4076
10777TIP3   OH253745   2.099   4.552  12.620 -0.2199  0.6814  0.5378
10777TIP3    H153746   2.162   4.580  12.686 -0.6746  0.0266  1.2664
10777TIP3    H253747   2.019   4.536  12.669 -0.1579 -1.2691  0.0608
10778TIP3   OH253748   0.249   0.122   5.454  0.1955 -0.8969  0.1237
10778TIP3    H153749   0.313   0.154   5.390  0.6491 -0.3957  0.8118
10778TIP3    H253750   0.175   0.093   5.402  0.4000 -0.1366 -0.6100
10779TIP3   OH253751   5.464   3.734  11.406 -0.3278 -0.2774 -0.0226
10779TIP3    H153752   5.453   3.826  11.383 -0.4664 -0.0823  0.7981
10779TIP3    H253753   5.558   3.724  11.421 -0.3847 -0.1342  0.4371
10780TIP3   OH253754   4.780   3.557   4.517 -0.3046 -0.5357 -0.2855
10780TIP3    H153755   4.703   3.535   4.569 -0.3378 -0.1084 -0.1528
10780TIP3    H253756   4.755   3.533   4.427  0.1795 -2.3701  0.0284
10781TIP3   OH253757   6.180   1.251   2.964 -0.4452  0.1249  0.5527
10781TIP3    H153758   6.213   1.238   2.875 -1.0509 -1.7232  0.5471
10781TIP3    H253759   6.107   1.312   2.955  0.0200  0.5918 -0.0866
10782TIP3   OH253760   6.631   5.717  14.777  0.3493  0.0356  0.6462
10782TIP3    H153761   6.712   5.763  14.795  0.3635  0.4655 -0.4617
10782TIP3    H253762   6.637   5.691  14.685 -0.0897 -1.3171  0.9611
10783TIP3   OH253763   2.008   4.232   2.851 -0.1485  0.0542  0.1653
10783TIP3    H153764   1.981   4.300   2.912  1.2276 -1.6562  2.8957
10783TIP3    H253765   1.939   4.166   2.856 -0.2772  0.1353 -0.5296
10784TIP3   OH253766   4.406   5.185  11.768 -0.0033 -0.0406 -0.2671
10784TIP3    H153767   4.328   5.141  11.735 -0.6347  0.2916  0.7270
10784TIP3    H253768   4.387   5.278  11.758  0.5863  0.0373 -0.7195
10785TIP3   OH253769   4.017   2.466   3.343  0.5317  0.5885 -0.2481
10785TIP3    H153770   4.032   2.551   3.300 -0.2929  1.4904  1.1576
10785TIP3    H253771   4.057   2.402   3.284  2.7342  2.1000 -0.5308
10786TIP3   OH253772   4.589   4.183   3.388  0.5378  0.2015 -0.0021
10786TIP3    H153773   4.576   4.226   3.304 -0.7735 -0.0080  0.0865
10786TIP3    H253774   4.676   4.213   3.417  0.5582  1.0773 -0.9400
10787TIP3   OH253775   6.945   5.981   0.712  0.0786  0.0439 -0.3249
10787TIP3    H153776   7.034   5.987   0.748 -0.7120 -2.6795  2.4437
10787TIP3    H253777   6.915   5.893   0.736 -3.7442  1.1891 -0.2818
10788TIP3   OH253778   5.755   5.755  15.237 -0.1478  0.1297  0.3307
10788TIP3    H153779   5.710   5.838  15.218  1.4155  0.4324 -2.6654
10788TIP3    H253780   5.684   5.691  15.244 -1.2520  1.1870 -0.6539
10789TIP3   OH253781   3.513   1.597  12.118 -0.0668 -0.1564 -0.3596
10789TIP3    H153782   3.576   1.613  12.048 -0.7505 -0.9270 -1.1812
10789TIP3    H253783   3.446   1.665  12.106  0.4468  0.4815  0.3310
10790TIP3   OH253784   1.598   0.939   4.809  0.1269  1.1137 -0.3201
10790TIP3    H153785   1.657   0.905   4.742 -0.5450 -2.3460  0.6220
10790TIP3    H253786   1.512   0.941   4.767  0.0995  1.3247 -0.2560
10791TIP3   OH253787   6.368   6.562   2.842 -0.4934 -0.1515  0.2631
10791TIP3    H153788   6.331   6.567   2.754 -0.6437 -1.0368  0.2663
10791TIP3    H253789   6.293   6.576   2.900 -1.1242 -3.0718  0.2917
10792TIP3   OH253790   5.711   1.670   2.408  0.2415 -0.1968 -0.0184
10792TIP3    H153791   5.769   1.742   2.433  0.5520 -1.0202  1.7517
10792TIP3    H253792   5.771   1.600   2.382 -0.0597  0.1237 -1.7178
10793TIP3   OH253793   4.515   1.015  11.678 -0.2029  0.2280  1.1352
10793TIP3    H153794   4.476   0.941  11.632 -0.4426  0.4483  0.9750
10793TIP3    H253795   4.462   1.025  11.757 -1.0585  1.0862  0.4810
10794TIP3   OH253796   2.359   6.701   3.430 -0.8319 -0.0825 -0.2088
10794TIP3    H153797   2.328   6.745   3.351  0.9595 -1.3314 -1.7064
10794TIP3    H253798   2.375   6.611   3.401  1.4224 -0.1758  1.1473
10795TIP3   OH253799   6.170   3.631  11.790  0.3046 -0.3541 -0.5305
10795TIP3    H153800   6.237   3.602  11.852 -0.9358 -1.2413  0.4338
10795TIP3    H253801   6.208   3.709  11.749  1.5481 -0.3013  0.6375
10796TIP3   OH253802   5.051   6.912   2.570  0.2174 -0.2936  0.2464
10796TIP3    H153803   4.980   6.976   2.578  0.1785 -0.1875 -0.7719
10796TIP3    H253804   5.111   6.933   2.641 -0.5699 -0.1227  0.8748
10797TIP3   OH253805   3.032   2.912  12.072 -0.5373  0.7429  0.0882
10797TIP3    H153806   3.012   2.992  12.121  0.7111  0.4530  1.1334
10797TIP3    H253807   3.049   2.846  12.140  2.2018  0.5618 -0.6289
10798TIP3   OH253808   0.719   4.102  14.741  0.4442 -0.5675 -0.3414
10798TIP3    H153809   0.757   4.180  14.783  0.3824 -0.7218  0.0036
10798TIP3    H253810   0.625   4.114  14.750  0.4386 -1.6154  1.4656
10799TIP3   OH253811   3.320   7.035  11.998  0.7320 -0.3642  0.2548
10799TIP3    H153812   3.413   7.031  12.021  1.1892 -0.6713 -1.4840
10799TIP3    H253813   3.314   7.105  11.933 -0.3970  0.1266  0.8430
10800TIP3   OH253814   0.336   6.125   1.709  0.4091  0.2631 -0.2885
10800TIP3    H153815   0.288   6.064   1.766 -0.9834  1.4923 -0.0984
10800TIP3    H253816   0.358   6.199   1.766 -0.9546  1.4923 -1.2824
10801TIP3   OH253817   5.683   0.085   1.661  0.1409 -0.2946  0.4026
10801TIP3    H153818   5.646   0.085   1.573 -0.5563  3.3418  0.5152
10801TIP3    H253819   5.776   0.068   1.649  0.0560  0.1631 -1.0742
10802TIP3   OH253820   7.114   4.757   5.653  0.1132 -0.1031  0.3468
10802TIP3    H153821   7.141   4.841   5.690 -0.3825  0.6085 -0.8302
10802TIP3    H253822   7.194   4.704   5.652  0.9795  1.1510 -0.9476
10803TIP3   OH253823   0.321   5.490   2.782 -0.0847  0.1566 -0.0547
10803TIP3    H153824   0.373   5.418   2.747 -0.1250  0.5776 -1.0082
10803TIP3    H253825   0.359   5.568   2.744 -0.8863  0.5364 -0.0961
10804TIP3   OH253826   2.115   2.649   0.136  0.8372  0.3237  0.3165
10804TIP3    H153827   2.191   2.615   0.184 -0.2117  0.3928  2.1380
10804TIP3    H253828   2.040   2.609   0.179 -0.1780 -1.1451 -2.5569
10805TIP3   OH253829   6.110   1.758   5.194 -0.8288 -0.6537  0.4813
10805TIP3    H153830   6.121   1.731   5.285 -1.8239 -0.0313  0.8021
10805TIP3    H253831   6.133   1.681   5.143  1.3690 -0.5101  1.1789
10806TIP3   OH253832   1.320   2.080   4.144 -0.6249  0.4626  0.1492
10806TIP3    H153833   1.249   2.140   4.164  0.3399  1.7173 -0.0756
10806TIP3    H253834   1.324   2.022   4.221 -1.4777  0.7642  0.4353
10807TIP3   OH253835   0.448   1.583  14.311  0.1933  0.1021 -0.5834
10807TIP3    H153836   0.359   1.618  14.306 -0.4530 -1.4030 -0.1526
10807TIP3    H253837   0.498   1.635  14.248 -0.9145  1.1716 -0.6087
10808TIP3   OH253838   4.455   4.819   1.529  0.5612  0.5059  0.1491
10808TIP3    H153839   4.490   4.805   1.441 -0.6227  2.1630 -0.6298
10808TIP3    H253840   4.374   4.867   1.516 -1.3988 -2.0404  1.9772
10809TIP3   OH253841   6.448   3.756  14.486 -0.2337  0.4868  0.6413
10809TIP3    H153842   6.471   3.768  14.578  1.3400  0.8637  0.2216
10809TIP3    H253843   6.528   3.775  14.438 -1.1550  0.7649 -0.8532
10810TIP3   OH253844   6.652   0.385  11.974  0.5414 -0.6467 -0.3478
10810TIP3    H153845   6.622   0.358  11.887  0.8744  2.1323 -1.4082
10810TIP3    H253846   6.579   0.364  12.032 -0.3746 -0.9941 -1.5819
10811TIP3   OH253847   6.435   6.744   3.408 -0.0062 -0.2588  0.4097
10811TIP3    H153848   6.527   6.723   3.395  0.0489  0.4434 -0.4543
10811TIP3    H253849   6.435   6.831   3.448 -0.2720 -0.8066  1.6186
10812TIP3   OH253850   7.135   6.433  14.234 -0.2564  0.1295  0.1856
10812TIP3    H153851   7.181   6.426  14.317  1.9020  1.3448 -0.8034
10812TIP3    H253852   7.086   6.515  14.240  0.1617  0.3844  0.1502
10813TIP3   OH253853   6.927   1.840   0.593 -0.7320  0.9594 -0.8807
10813TIP3    H153854   6.961   1.773   0.533 -1.0790 -0.4937  0.4614
10813TIP3    H253855   6.996   1.851   0.658 -0.3510  2.5281 -1.5016
10814TIP3   OH253856   3.922   6.486   2.313 -0.8548 -0.8996 -0.3566
10814TIP3    H153857   3.962   6.525   2.390 -0.9674  2.4808 -1.8628
10814TIP3    H253858   3.831   6.470   2.338 -1.5040  2.2501 -0.3236
10815TIP3   OH253859   1.289   6.970   5.224 -0.3831  0.3326  0.2482
10815TIP3    H153860   1.365   6.999   5.175 -0.0081 -0.3689  0.4034
10815TIP3    H253861   1.269   7.042   5.284 -0.1571  0.7231 -0.1465
10816TIP3   OH253862   6.522   4.095  14.385  0.3171 -0.0556  0.0563
10816TIP3    H153863   6.598   4.066  14.435 -0.1110 -0.3428  0.5574
10816TIP3    H253864   6.474   4.153  14.444  0.0592 -0.0149 -0.1869
10817TIP3   OH253865   1.056   6.468   4.673 -0.0804 -0.3892 -0.1581
10817TIP3    H153866   1.125   6.405   4.656  1.1097  0.8495 -0.1221
10817TIP3    H253867   1.081   6.510   4.755 -0.6182  0.4116 -0.3862
10818TIP3   OH253868   5.433   1.518   2.900 -0.5270  0.2323 -0.5530
10818TIP3    H153869   5.468   1.517   2.811  2.3874 -1.9880  0.4643
10818TIP3    H253870   5.424   1.611   2.921  2.1930  0.8990 -1.9606
10819TIP3   OH253871   4.142   3.893  10.759 -0.3211  0.0408 -0.0398
10819TIP3    H153872   4.126   3.949  10.684 -1.1597 -0.4459 -0.2365
10819TIP3    H253873   4.233   3.863  10.748  0.3648  1.7948  0.3854
10820TIP3   OH253874   7.107   6.425   5.245  0.4015  0.0916 -0.5288
10820TIP3    H153875   7.115   6.511   5.205  0.0553  0.1411 -0.4918
10820TIP3    H253876   7.197   6.400   5.267  0.7969 -0.5054 -2.5546
10821TIP3   OH253877   0.718   2.202   3.796 -0.0706  0.0450 -0.3286
10821TIP3    H153878   0.648   2.263   3.819  1.0609  1.1913  0.2131
10821TIP3    H253879   0.716   2.136   3.865 -0.1649  0.4669  0.0774
10822TIP3   OH253880   3.071   5.580  15.302 -0.1522 -0.4425  0.4788
10822TIP3    H153881   3.104   5.568  15.391 -1.0804  0.1257  0.9145
10822TIP3    H253882   3.056   5.674  15.294 -3.3691 -0.8045  0.9633
10823TIP3   OH253883   6.713   6.807   5.008 -0.2954 -0.2606  0.4282
10823TIP3    H153884   6.691   6.772   4.921  0.7676 -0.5111  0.2451
10823TIP3    H253885   6.709   6.902   4.997  0.7930 -0.2687 -0.1771
10824TIP3   OH253886   2.106   5.712   3.711 -0.0541 -0.0702  0.7371
10824TIP3    H153887   2.162   5.741   3.783  0.8476 -0.0426  0.0538
10824TIP3    H253888   2.018   5.738   3.736  0.2901  0.2286  1.6739
10825TIP3   OH253889   4.441   3.311   0.136 -0.1912 -0.3892 -0.5636
10825TIP3    H153890   4.467   3.389   0.087  2.3416 -0.9816 -0.3279
10825TIP3    H253891   4.416   3.344   0.222  0.5952  0.2248 -0.5585
10826TIP3   OH253892   1.359   5.214  13.631 -0.7189  0.2944 -0.3803
10826TIP3    H153893   1.336   5.161  13.555  1.5283 -2.0238  0.4237
10826TIP3    H253894   1.372   5.302  13.596  0.8243 -0.8098 -2.8363
10827TIP3   OH253895   1.393   4.588   4.682 -0.1767 -0.3476 -0.5173
10827TIP3    H153896   1.477   4.584   4.728 -0.6710  1.6027  0.6980
10827TIP3    H253897   1.415   4.572   4.591  1.0427 -3.0376  0.1343
10828TIP3   OH253898   4.038   0.209   5.261  0.0828 -0.1609 -0.1345
10828TIP3    H153899   4.040   0.187   5.355  3.2434  0.2486  0.0230
10828TIP3    H253900   4.069   0.129   5.218 -1.1060 -0.2580 -0.8388
10829TIP3   OH253901   0.162   3.602   1.053 -0.5350 -0.4462 -0.4892
10829TIP3    H153902   0.133   3.568   1.138 -1.5633 -1.1311 -1.0909
10829TIP3    H253903   0.257   3.595   1.055 -0.5678 -0.7226  0.4905
10830TIP3   OH253904   3.285   0.158  13.869  0.0143  0.6854 -0.0314
10830TIP3    H153905   3.301   0.245  13.834 -2.1252  1.2272  0.2272
10830TIP3    H253906   3.346   0.102  13.822  0.1618  2.0380 -1.5230
10831TIP3   OH253907   4.182   6.983   5.725 -0.3096  0.6104  0.3964
10831TIP3    H153908   4.226   6.998   5.809 -0.0083  0.3484  0.2892
10831TIP3    H253909   4.246   7.013   5.660 -1.3655  2.8495  0.2992
10832TIP3   OH253910   6.412   4.104   4.957 -0.0880 -0.0362  0.1759
10832TIP3    H153911   6.399   4.011   4.941  0.9093 -0.2677  0.6350
10832TIP3    H253912   6.327   4.144   4.939 -0.7445 -1.1377  0.7694
10833TIP3   OH253913   6.432   6.149   1.126  0.0423 -0.1086 -0.1912
10833TIP3    H153914   6.400   6.129   1.038 -2.1946  0.0176  0.5265
10833TIP3    H253915   6.497   6.218   1.113 -0.0380 -0.2844 -1.7392
10834TIP3   OH253916   6.000   3.183   3.204  0.0201 -0.4352  0.0714
10834TIP3    H153917   5.924   3.169   3.147  0.4861  0.8443 -0.9176
10834TIP3    H253918   5.966   3.171   3.293 -0.7196 -2.5340 -0.4384
10835TIP3   OH253919   2.539   6.879   1.666  0.6306  0.7905 -0.1457
10835TIP3    H153920   2.464   6.932   1.692  0.4530  1.0161 -1.0900
10835TIP3    H253921   2.579   6.927   1.593  0.9348  0.0308 -0.4954
10836TIP3   OH253922   5.826   5.903   5.143 -0.3108 -0.1692  0.2989
10836TIP3    H153923   5.819   5.834   5.077 -1.0102  0.2332 -0.0535
10836TIP3    H253924   5.748   5.892   5.197  0.2067 -0.4324  1.0082
10837TIP3   OH253925   3.599   7.154   5.827 -0.0680 -0.0377 -0.2369
10837TIP3    H153926   3.639   7.221   5.883  0.0837  0.1740 -0.6006
10837TIP3    H253927   3.615   7.072   5.874 -1.2450  0.2811  0.7953
10838TIP3   OH253928   4.003   4.843   5.486 -0.1919 -0.5890  0.5312
10838TIP3    H153929   3.989   4.886   5.570  0.1589  0.4608  0.0766
10838TIP3    H253930   4.039   4.912   5.430  0.3803 -1.4880 -0.2354
10839TIP3   OH253931   3.457   5.176   4.017 -0.5968  0.2818  0.4841
10839TIP3    H153932   3.470   5.081   4.018  2.7918  0.5926 -0.6381
10839TIP3    H253933   3.499   5.207   4.097 -0.7553  0.9097  0.3258
10840TIP3   OH253934   4.185   2.043   2.694 -0.3040  0.3224  0.4443
10840TIP3    H153935   4.101   2.076   2.660 -0.2429 -1.8566 -2.1350
10840TIP3    H253936   4.225   2.119   2.736 -1.2368  2.9223 -2.9016
10841TIP3   OH253937   4.916   3.723   5.753  0.4645  0.1123  0.2814
10841TIP3    H153938   5.000   3.694   5.789  1.2724  2.5817  0.5651
10841TIP3    H253939   4.919   3.699   5.661  0.7819 -1.2423  0.6326
10842TIP3   OH253940   6.851   4.245   1.191  0.2834  0.6459 -0.2560
10842TIP3    H153941   6.849   4.203   1.105 -1.2675  1.1529 -0.4870
10842TIP3    H253942   6.768   4.219   1.232  0.3033  1.6845  0.4644
10843TIP3   OH253943   3.403   5.822  15.354 -0.4570  0.0600 -0.0946
10843TIP3    H153944   3.493   5.855  15.346  0.0504 -1.4687 -1.3023
10843TIP3    H253945   3.387   5.820  15.448  0.8402  0.2223  0.1604
10844TIP3   OH253946   1.222   5.174   1.847 -0.3531 -0.5202  0.5424
10844TIP3    H153947   1.146   5.154   1.902 -0.7477  0.0616  0.2179
10844TIP3    H253948   1.264   5.089   1.832 -2.4290 -1.2915 -1.4659
10845TIP3   OH253949   0.102   1.469   3.823  0.4108 -0.4523 -0.1038
10845TIP3    H153950   0.190   1.466   3.787 -0.2850 -1.0380 -1.8354
10845TIP3    H253951   0.089   1.382   3.861  0.5439 -0.3875  0.0937
10846TIP3   OH253952   4.449   4.061   5.030 -0.0470 -0.4110 -0.4244
10846TIP3    H153953   4.517   3.998   5.054 -0.3522 -1.4980 -2.2650
10846TIP3    H253954   4.370   4.008   5.020 -0.7714  0.5739 -0.0914
10847TIP3   OH253955   2.175   4.194  13.596  0.4737 -0.1754 -0.5678
10847TIP3    H153956   2.197   4.219  13.685 -0.0419 -1.2491 -0.1181
10847TIP3    H253957   2.246   4.231  13.542  0.8965  0.3060  0.2969
10848TIP3   OH253958   2.810   5.325   3.984 -0.3824 -0.4432 -0.1745
10848TIP3    H153959   2.810   5.354   4.075 -3.3847 -1.5882  0.2969
10848TIP3    H253960   2.809   5.230   3.989 -3.6396 -0.5620 -1.2008
10849TIP3   OH253961   0.534   4.851  10.388  0.6982 -0.1810 -0.2788
10849TIP3    H153962   0.521   4.915  10.318 -0.1670 -0.0062  0.0276
10849TIP3    H253963   0.450   4.849  10.434 -0.0001 -2.9793 -1.4658
10850TIP3   OH253964   3.188   2.660   0.092  0.6681 -0.2500 -0.2914
10850TIP3    H153965   3.203   2.570   0.065 -2.2138 -0.3254 -2.0954
10850TIP3    H253966   3.152   2.654   0.180  2.6335 -0.6206  0.5354
10851TIP3   OH253967   4.265   3.359  12.022  0.2674  0.6008 -0.8607
10851TIP3    H153968   4.329   3.371  11.953 -1.4773  2.9890 -2.2126
10851TIP3    H253969   4.207   3.434  12.014 -1.8846 -0.7087  1.1880
10852TIP3   OH253970   2.036   4.611   4.019  0.1628  0.7737 -0.0315
10852TIP3    H153971   2.029   4.707   4.015 -0.7661  0.6784 -1.2570
10852TIP3    H253972   2.012   4.589   4.109 -2.1090  1.5371 -0.3856
10853TIP3   OH253973   1.121   0.243   2.281 -0.2149  0.3182  0.8691
10853TIP3    H153974   1.175   0.166   2.266 -0.7664 -0.2982  1.8996
10853TIP3    H253975   1.180   0.307   2.321  0.5286  0.8925 -1.0222
10854TIP3   OH253976   5.426   4.072   3.428  0.8703  1.0450  0.1947
10854TIP3    H153977   5.520   4.059   3.445  0.8587  2.4557  1.5877
10854TIP3    H253978   5.412   4.165   3.443 -1.2456  0.4467  2.7106
10855TIP3   OH253979   6.804   7.009  12.696  0.1051 -0.5019  0.2013
10855TIP3    H153980   6.826   7.102  12.689 -0.6127 -0.3125  0.4458
10855TIP3    H253981   6.832   6.972  12.612 -1.4264  0.3159 -0.7006
10856TIP3   OH253982   2.551   4.111   5.541  0.5264  0.2954 -0.0592
10856TIP3    H153983   2.491   4.123   5.615  1.6092  0.8988  0.7528
10856TIP3    H253984   2.517   4.034   5.496 -1.8553  1.5628 -0.6393
10857TIP3   OH253985   1.548   6.497   3.717 -0.0965 -0.2735  0.3782
10857TIP3    H153986   1.619   6.470   3.775  0.4352  1.7226  0.7232
10857TIP3    H253987   1.468   6.468   3.762  0.4367 -1.9424  0.3129
10858TIP3   OH253988   1.117   6.459   2.558  0.2549  0.8633  0.0699
10858TIP3    H153989   1.148   6.481   2.646 -0.5436  0.4787  0.4536
10858TIP3    H253990   1.197   6.438   2.510  0.6714  0.7076  0.8087
10859TIP3   OH253991   6.070   3.445   4.297  0.4279 -0.2476 -0.2791
10859TIP3    H153992   6.071   3.540   4.297 -1.6168 -0.1407 -2.3930
10859TIP3    H253993   6.158   3.420   4.326  0.8295  2.2422  0.8579
10860TIP3   OH253994   6.909   3.724  15.096 -0.0652  0.1394  0.2993
10860TIP3    H153995   6.964   3.746  15.170 -0.3465  1.3712  0.1688
10860TIP3    H253996   6.832   3.682  15.135  1.0692 -1.9437  0.4533
10861TIP3   OH253997   3.127   0.143   1.393 -0.0629 -0.6263 -0.0843
10861TIP3    H153998   3.152   0.096   1.472  1.5937 -0.5882 -0.5508
10861TIP3    H253999   3.155   0.085   1.322  2.3808  1.1629 -0.6898
10862TIP3   OH254000   6.172   4.023   1.617  0.1583 -0.3607  0.6274
10862TIP3    H154001   6.222   4.010   1.536 -2.1636  0.5033 -1.0610
10862TIP3    H254002   6.099   3.962   1.610  0.3382 -0.8398  2.5001
10863TIP3   OH254003   0.744   5.846   5.513 -0.1211 -0.4018 -0.9496
10863TIP3    H154004   0.722   5.903   5.439 -0.5070 -1.4073 -1.6387
10863TIP3    H254005   0.794   5.902   5.572  0.1709  0.4419 -1.9566
10864TIP3   OH254006   6.034   0.165   0.189  0.8799  0.2508  0.0282
10864TIP3    H154007   6.000   0.077   0.206 -0.0835  0.9442  1.9715
10864TIP3    H254008   6.011   0.183   0.098  1.0265 -1.4486 -0.3828
10865TIP3   OH254009   5.334   3.801  10.996 -0.6530  0.0201  0.3772
10865TIP3    H154010   5.366   3.767  10.912 -0.3203 -0.2610  0.6140
10865TIP3    H254011   5.263   3.861  10.972 -1.2631 -0.8507 -0.0614
10866TIP3   OH254012   3.117   2.012   5.964  0.0057  0.2446 -0.5091
10866TIP3    H154013   3.091   1.977   5.879  1.7137  0.5231 -1.1731
10866TIP3    H254014   3.057   1.969   6.026  1.9745 -4.0445 -1.1940
10867TIP3   OH254015   7.058   4.506   1.550  0.0535 -0.0595 -0.0884
10867TIP3    H154016   7.062   4.600   1.571 -0.7636 -0.0389  0.0305
10867TIP3    H254017   7.044   4.504   1.456 -2.3210  0.0340  0.1973
10868TIP3   OH254018   6.279   2.942  10.819  0.2163  0.1095 -0.1846
10868TIP3    H154019   6.338   3.016  10.808 -0.0121  0.1563 -1.1637
10868TIP3    H254020   6.333   2.865  10.803  0.6177 -0.0043  1.4870
10869TIP3   OH254021   3.382   0.181  12.130 -0.0659 -0.2175 -0.2180
10869TIP3    H154022   3.397   0.157  12.038  0.1926 -0.8186 -0.0290
10869TIP3    H254023   3.314   0.248  12.127 -1.2448 -1.3769 -0.7557
10870TIP3   OH254024   1.477   2.882   2.622  0.7366 -0.4278 -0.0814
10870TIP3    H154025   1.514   2.943   2.559 -1.8083 -0.1702 -1.4675
10870TIP3    H254026   1.402   2.929   2.659  1.3888 -1.0663  2.2549
10871TIP3   OH254027   6.368   2.972  14.998 -0.4416  0.1773 -0.0546
10871TIP3    H154028   6.460   2.946  15.006 -0.3027  0.4859 -0.6532
10871TIP3    H254029   6.329   2.947  15.082  0.3981  0.8997  0.5688
10872TIP3   OH254030   4.904   0.251   3.553 -0.2651  0.5258  0.7565
10872TIP3    H154031   4.907   0.268   3.647  1.9538 -1.0488  1.0553
10872TIP3    H254032   4.926   0.158   3.545 -1.2966  0.4073 -1.2823
10873TIP3   OH254033   3.069   4.538  14.762 -0.3801 -0.0744  0.4998
10873TIP3    H154034   3.112   4.621  14.785 -0.9488  0.3047  0.2241
10873TIP3    H254035   3.116   4.472  14.812 -0.5326  0.5285  1.4729
10874TIP3   OH254036   4.704   6.292  10.457 -0.3174 -0.3308  0.1750
10874TIP3    H154037   4.761   6.366  10.480  0.3469 -0.1241 -1.9554
10874TIP3    H254038   4.690   6.301  10.363 -1.7075 -1.9189  0.1961
10875TIP3   OH254039   2.796   3.178   0.341  0.7404 -0.9166 -0.3423
10875TIP3    H154040   2.707   3.155   0.369  1.1412 -1.3129  0.6159
10875TIP3    H254041   2.782   3.244   0.272 -0.2542  1.4982  1.9951
10876TIP3   OH254042   3.055   1.867   0.180  0.1262 -0.0178  0.9821
10876TIP3    H154043   3.087   1.951   0.214 -0.5385  0.2521  0.9599
10876TIP3    H254044   2.996   1.835   0.248 -0.7145  0.2163  0.3721
10877TIP3   OH254045   3.995   0.256   4.977  0.5525  0.2468 -0.0734
10877TIP3    H154046   3.910   0.251   5.020  0.0431 -0.0913 -1.0763
10877TIP3    H254047   3.978   0.304   4.896  1.4289  0.6308 -0.0396
10878TIP3   OH254048   6.016   6.012   4.429  0.0755  0.2322 -0.1259
10878TIP3    H154049   5.969   6.066   4.493  0.1321  2.1546 -1.6044
10878TIP3    H254050   6.066   6.075   4.377 -0.7495 -1.0901 -2.7052
10879TIP3   OH254051   5.581   2.149  14.477 -0.3749  0.5222  0.2326
10879TIP3    H154052   5.651   2.088  14.501 -1.0931 -0.4180  0.0086
10879TIP3    H254053   5.601   2.175  14.387 -2.7171 -3.4882 -1.7839
10880TIP3   OH254054   2.738   6.544   3.477 -0.0016 -0.1008  0.3129
10880TIP3    H154055   2.693   6.624   3.502 -2.5697 -1.4233  0.2027
10880TIP3    H254056   2.678   6.474   3.502  1.4548 -1.9259 -1.0466
10881TIP3   OH254057   0.227   0.331   9.923  0.1426  0.0416 -0.2816
10881TIP3    H154058   0.169   0.330   9.999  1.3666  1.2154  0.7169
10881TIP3    H254059   0.171   0.308   9.849 -0.6059 -3.8008  1.2589
10882TIP3   OH254060   5.610   7.108  11.808 -0.3978 -0.0296 -0.4737
10882TIP3    H154061   5.637   7.163  11.734  0.9518 -0.0141 -0.0037
10882TIP3    H254062   5.528   7.068  11.779  0.2250 -0.2217 -2.0916
10883TIP3   OH254063   5.729   5.377  14.913  0.3539 -0.6904  0.5930
10883TIP3    H154064   5.735   5.351  15.005 -1.4150  1.0860  1.2747
10883TIP3    H254065   5.665   5.448  14.912  1.9976  0.8830 -1.7093
10884TIP3   OH254066   5.205   5.044   1.731  0.3453  0.3493  0.3226
10884TIP3    H154067   5.243   4.959   1.714  0.2359 -0.3993  3.2865
10884TIP3    H254068   5.115   5.037   1.699  0.3889 -0.5789  0.3959
10885TIP3   OH254069   4.707   6.223   3.154 -0.3295  0.2232 -0.7619
10885TIP3    H154070   4.693   6.313   3.124  3.4882  0.5294 -2.1211
10885TIP3    H254071   4.670   6.168   3.084  0.2888  0.8131 -1.5636
10886TIP3   OH254072   6.466   3.969   1.183  0.0342 -0.2166  0.5429
10886TIP3    H154073   6.400   3.956   1.114  0.3371  1.1797 -0.0498
10886TIP3    H254074   6.538   3.911   1.158  0.0518  0.1181 -0.2196
10887TIP3   OH254075   2.372   2.527  10.511 -0.6374 -0.0108 -0.2279
10887TIP3    H154076   2.287   2.493  10.482 -1.3592  0.6145  1.0373
10887TIP3    H254077   2.372   2.618  10.482 -0.7056  0.1788  0.3394
10888TIP3   OH254078   1.104   4.421   5.499  0.2482  0.0349 -0.0204
10888TIP3    H154079   1.118   4.514   5.481  0.6760 -0.3043 -1.5944
10888TIP3    H254080   1.045   4.392   5.430  0.3554 -0.9291  0.2776
10889TIP3   OH254081   0.157   5.348   5.487  0.1687 -0.3558  0.1749
10889TIP3    H154082   0.236   5.358   5.540  0.0104 -0.3369  0.4079
10889TIP3    H254083   0.086   5.341   5.551 -0.1134  0.4419 -0.0396
10890TIP3   OH254084   6.683   2.025  12.941 -0.7927 -0.0172  0.2723
10890TIP3    H154085   6.598   1.994  12.912 -1.3587  0.8067  0.9870
10890TIP3    H254086   6.678   2.121  12.933  0.7939 -0.0135 -1.6233
10891TIP3   OH254087   5.808   0.557   3.847 -0.7953 -0.4568  0.3047
10891TIP3    H154088   5.901   0.538   3.863 -0.8723 -1.7176 -0.5841
10891TIP3    H254089   5.801   0.652   3.855  0.7886 -0.2278 -0.5822
10892TIP3   OH254090   0.675   5.970  10.774  0.0193  0.5629  0.5658
10892TIP3    H154091   0.643   5.913  10.703  0.0959  1.6583 -0.3758
10892TIP3    H254092   0.719   5.910  10.834  2.0709 -0.1796 -1.5169
10893TIP3   OH254093   2.969   6.582   0.610 -0.3205 -0.0763 -0.6543
10893TIP3    H154094   3.026   6.506   0.594  0.6902  0.4978  0.0795
10893TIP3    H254095   3.027   6.658   0.603 -1.1487  0.5827 -0.6009
10894TIP3   OH254096   0.046   5.321   1.313 -0.6070 -0.1284 -0.8719
10894TIP3    H154097   0.121   5.344   1.258  0.5241  0.7897  0.9714
10894TIP3    H254098  -0.022   5.384   1.288 -0.4583 -0.3593 -1.8910
10895TIP3   OH254099   7.086   3.167   2.760  0.3901 -0.1963 -0.8791
10895TIP3    H154100   7.143   3.133   2.829  1.0782  1.0905 -0.7748
10895TIP3    H254101   7.005   3.190   2.805  0.7821  0.4906 -0.5033
10896TIP3   OH254102   5.062   3.640   3.104  0.0254  0.6561 -0.7819
10896TIP3    H154103   5.031   3.729   3.089  0.2565  0.8005 -0.4301
10896TIP3    H254104   5.121   3.623   3.031  0.7230  1.1478 -0.3446
10897TIP3   OH254105   6.690   4.451   2.232  0.2689  0.1739  0.6565
10897TIP3    H154106   6.689   4.355   2.240 -0.3575  0.1945  0.9062
10897TIP3    H254107   6.713   4.482   2.319  1.2672  0.2430  0.3819
10898TIP3   OH254108   4.235   1.318  15.239  0.3435 -0.7552 -0.0322
10898TIP3    H154109   4.263   1.268  15.163 -4.0236 -0.0246 -2.3896
10898TIP3    H254110   4.258   1.409  15.217 -1.2331 -0.4993 -0.7331
10899TIP3   OH254111   2.627   5.021  11.673 -0.7960  0.3876 -0.0541
10899TIP3    H154112   2.710   5.000  11.715 -0.3106 -1.4905 -1.8143
10899TIP3    H254113   2.646   5.098  11.619  0.1598 -0.7122 -1.3464
10900TIP3   OH254114   5.827   6.352   4.994  0.1126 -0.4743 -0.5259
10900TIP3    H154115   5.837   6.434   5.041  2.1356 -0.4514 -0.9039
10900TIP3    H254116   5.873   6.287   5.047 -1.3309 -1.3686 -0.3062
10901TIP3   OH254117   5.497   5.507   1.993  0.2296 -0.1418 -0.7258
10901TIP3    H154118   5.415   5.555   2.005  0.4793  0.0703  0.2522
10901TIP3    H254119   5.501   5.488   1.899 -1.3226 -0.8692 -0.6609
10902TIP3   OH254120   4.788   5.272  10.895 -0.0868  0.0220 -0.7268
10902TIP3    H154121   4.865   5.265  10.837 -0.1846  1.1049 -1.0012
10902TIP3    H254122   4.716   5.292  10.835 -0.9240 -2.5318 -0.6810
10903TIP3   OH254123   6.434   5.809  10.538 -0.0055  0.3917 -0.3442
10903TIP3    H154124   6.357   5.754  10.527  0.9336 -1.2252  0.6974
10903TIP3    H254125   6.404   5.897  10.517 -2.3487 -0.0541  0.7906
10904TIP3   OH254126   2.575   2.859  11.460 -0.2475  0.0601 -0.3256
10904TIP3    H154127   2.488   2.834  11.491 -0.7151  1.6226 -0.2806
10904TIP3    H254128   2.606   2.924  11.522  0.3906  0.4972 -1.0737
10905TIP3   OH254129   3.779   3.533  14.125 -0.1873 -0.2525  0.2822
10905TIP3    H154130   3.702   3.588  14.143  0.1145  0.9905 -1.7668
10905TIP3    H254131   3.851   3.579  14.167 -0.2484 -0.1847  0.3140
10906TIP3   OH254132   0.654   1.340   4.900 -0.0037 -0.1774  0.4029
10906TIP3    H154133   0.743   1.362   4.872 -0.1875 -0.5550 -0.5081
10906TIP3    H254134   0.602   1.418   4.878 -0.0319 -0.2406  0.2398
10907TIP3   OH254135   3.405   6.981  11.425 -0.3671  0.0739  0.0032
10907TIP3    H154136   3.401   6.891  11.393 -0.7110  0.4786 -1.1581
10907TIP3    H254137   3.319   7.017  11.405 -0.4561  0.4857  1.0505
10908TIP3   OH254138   3.835   0.294  10.570  0.0087  0.0671  0.5944
10908TIP3    H154139   3.841   0.305  10.476  3.1145  0.4228  0.7288
10908TIP3    H254140   3.760   0.347  10.596  0.2587  1.5245 -1.4564
10909TIP3   OH254141   2.616   1.122  12.386  0.2208 -0.2987 -0.5477
10909TIP3    H154142   2.664   1.044  12.415 -0.8535 -0.8667 -0.2589
10909TIP3    H254143   2.561   1.145  12.460  1.3998  1.4973 -0.1603
10910TIP3   OH254144   5.068   2.237  10.699 -0.0984 -0.0340  0.4658
10910TIP3    H154145   5.078   2.170  10.631 -0.5916 -2.0981  2.3197
10910TIP3    H254146   4.981   2.273  10.684  0.1253  0.1459 -0.4828
10911TIP3   OH254147   5.811   2.739   1.506 -0.3978 -0.3446 -0.1192
10911TIP3    H154148   5.866   2.666   1.479 -0.2884  0.2547 -1.6443
10911TIP3    H254149   5.721   2.708   1.493 -0.3804 -0.6022  0.3593
10912TIP3   OH254150   6.304   6.259   1.336 -0.4109  0.4288 -0.2926
10912TIP3    H154151   6.342   6.211   1.263  0.5933  3.3329 -1.8100
10912TIP3    H254152   6.228   6.304   1.299 -2.4764 -1.3029  1.5323
10913TIP3   OH254153   0.100   3.907  11.534  0.0263 -0.4461 -0.4960
10913TIP3    H154154   0.187   3.894  11.496 -0.1006  0.8026 -1.2391
10913TIP3    H254155   0.052   3.828  11.509  0.1935 -0.0356 -2.2811
10914TIP3   OH254156   6.977   5.248  13.340  0.4014 -0.0616  0.3430
10914TIP3    H154157   7.065   5.239  13.378  0.8826  2.1658 -0.0951
10914TIP3    H254158   6.944   5.330  13.378 -1.2801 -0.5949  0.0705
10915TIP3   OH254159   1.398   3.826  13.684  0.0408  0.2831  0.3296
10915TIP3    H154160   1.339   3.817  13.609 -0.8054  0.9902  0.8944
10915TIP3    H254161   1.485   3.814  13.647 -0.2877  1.4859 -0.9432
10916TIP3   OH254162   4.424   0.566   3.197 -0.1821 -0.1866  0.3216
10916TIP3    H154163   4.431   0.473   3.177 -2.2542 -0.2648 -0.3024
10916TIP3    H254164   4.382   0.604   3.120 -0.4707  1.0394  1.0629
10917TIP3   OH254165   3.770   1.333  14.835  0.3500 -0.3597  0.0877
10917TIP3    H154166   3.807   1.286  14.760 -0.4389 -0.7789 -0.0611
10917TIP3    H254167   3.685   1.364  14.803  1.1812  1.9412 -0.0987
10918TIP3   OH254168   7.112   5.137  11.798  0.0935  0.0456 -0.1634
10918TIP3    H154169   7.160   5.137  11.881  0.5679 -1.3830 -0.4113
10918TIP3    H254170   7.146   5.061  11.750 -1.6945 -0.4184 -0.7793
10919TIP3   OH254171   0.311   2.342   4.938 -0.2505 -0.8398  0.2380
10919TIP3    H154172   0.230   2.391   4.923 -0.3515 -0.6527  1.3270
10919TIP3    H254173   0.369   2.370   4.868 -0.5342  0.3571  0.4646
10920TIP3   OH254174   1.783   6.082   0.236 -0.4590  0.2406  0.0430
10920TIP3    H154175   1.829   6.164   0.222 -1.3360  0.4229 -2.0987
10920TIP3    H254176   1.731   6.097   0.315 -1.2147  2.0526 -0.7383
10921TIP3   OH254177   5.020   2.511  13.059  0.0136 -1.0055  0.0100
10921TIP3    H154178   5.059   2.437  13.106  0.3952 -2.2399 -2.1148
10921TIP3    H254179   5.092   2.549  13.009 -0.5442 -0.3547 -0.3193
10922TIP3   OH254180   6.508   3.867  12.109  0.3113 -0.2108 -0.1202
10922TIP3    H154181   6.498   3.806  12.036 -2.0506 -1.1867  0.9212
10922TIP3    H254182   6.591   3.843  12.150  0.9083 -0.6675 -1.5562
10923TIP3   OH254183   5.056   0.324  12.414 -0.0729 -0.2063  0.2894
10923TIP3    H154184   5.034   0.401  12.466 -1.0275 -0.3872  0.1807
10923TIP3    H254185   5.139   0.294  12.449 -0.3032  0.1483  1.1641
10924TIP3   OH254186   3.709   0.130   0.277 -0.2789 -0.0690  0.4314
10924TIP3    H154187   3.682   0.162   0.363 -0.3091 -0.3311  0.5197
10924TIP3    H254188   3.784   0.186   0.253 -0.5624  0.3126  0.4172
10925TIP3   OH254189   1.998   0.824   1.812  0.0981 -0.0860 -0.0395
10925TIP3    H154190   1.966   0.736   1.790 -2.2910  0.0981  2.2016
10925TIP3    H254191   1.982   0.832   1.906  2.5924  1.8983  0.3101
10926TIP3   OH254192   4.210   2.687  13.456 -0.0620  0.0159 -0.1272
10926TIP3    H154193   4.162   2.702  13.537 -0.7814  1.6454 -0.8064
10926TIP3    H254194   4.176   2.753  13.395  2.0021  0.3011 -1.0791
10927TIP3   OH254195   7.014   6.720   5.063 -0.1385  0.3243 -0.1993
10927TIP3    H154196   6.942   6.779   5.081  0.0218  0.9745 -1.5904
10927TIP3    H254197   6.975   6.648   5.014 -0.2817 -0.6416  1.2457
10928TIP3   OH254198   0.420   2.995   4.265  0.3547  0.2321 -1.1114
10928TIP3    H154199   0.469   2.975   4.185  0.9677 -0.9893 -0.4525
10928TIP3    H254200   0.463   2.944   4.333  0.5018  2.0515  0.2309
10929TIP3   OH254201   6.637   3.330   4.317  0.0657 -0.1686 -0.0720
10929TIP3    H154202   6.724   3.309   4.353  0.7082 -0.8940 -1.9164
10929TIP3    H254203   6.601   3.245   4.291 -0.7688  0.2356 -0.2826
10930TIP3   OH254204   5.651   2.235   2.987 -0.2421 -0.3065  0.5161
10930TIP3    H154205   5.721   2.170   2.992  0.6710  0.5274 -0.7446
10930TIP3    H254206   5.576   2.193   3.029  0.5874 -1.8064  0.5617
10931TIP3   OH254207   1.068   3.987   2.777  0.2216  0.4453 -0.1272
10931TIP3    H154208   0.989   3.938   2.756  0.4065  0.3295 -0.5508
10931TIP3    H254209   1.040   4.050   2.844  0.4502 -1.7960  2.2728
10932TIP3   OH254210   3.375   4.433  10.957 -0.7083 -0.9052 -0.3437
10932TIP3    H154211   3.441   4.391  10.903 -1.8267 -1.9380 -0.9713
10932TIP3    H254212   3.299   4.376  10.950 -1.0058 -0.8884  2.0696
10933TIP3   OH254213   5.783   2.172  14.258  0.0408 -0.9403  0.2414
10933TIP3    H154214   5.804   2.262  14.237 -0.3018 -1.2486 -1.5326
10933TIP3    H254215   5.763   2.131  14.174 -0.6015 -2.4664  1.0925
10934TIP3   OH254216   2.100   6.456  15.335 -0.2694 -0.2031 -0.4030
10934TIP3    H154217   2.112   6.538  15.382  3.8689 -0.2153 -1.1244
10934TIP3    H254218   2.060   6.482  15.251  2.2606  1.4049 -1.2126
10935TIP3   OH254219   5.998   6.282  12.627  0.2580 -0.0173 -0.4563
10935TIP3    H154220   6.011   6.197  12.586  0.7399 -0.7663  1.1589
10935TIP3    H254221   6.020   6.267  12.719  0.6491  1.9257 -0.1980
10936TIP3   OH254222   2.596   0.837   9.480 -0.0782 -0.5708 -0.5342
10936TIP3    H154223   2.634   0.923   9.498  2.0501 -1.9735  2.7571
10936TIP3    H254224   2.546   0.816   9.559 -1.6217 -1.8963 -1.7848
10937TIP3   OH254225   5.743   5.334  13.144 -0.4464 -0.0725  0.0923
10937TIP3    H154226   5.833   5.320  13.173 -0.0662  0.0991 -0.9487
10937TIP3    H254227   5.744   5.309  13.052 -1.5589 -0.4041  0.1603
10938TIP3   OH254228   1.020   3.219  15.205  0.8382 -0.0006 -0.4468
10938TIP3    H154229   0.935   3.235  15.248  0.6455 -1.9526 -0.0062
10938TIP3    H254230   1.020   3.125  15.188  3.4577 -0.2776  0.7175
10939TIP3   OH254231   5.961   6.148   5.116 -0.5370  0.0187  0.5906
10939TIP3    H154232   5.885   6.091   5.123 -1.5641  0.9089 -2.1963
10939TIP3    H254233   6.036   6.088   5.111 -1.3294 -0.9789  0.4854
10940TIP3   OH254234   2.956   6.025  12.659  0.6379 -0.2810 -0.0087
10940TIP3    H154235   2.971   5.931  12.648 -1.2593 -0.7256  0.7491
10940TIP3    H254236   2.954   6.038  12.754  2.7196  0.9038 -0.0743
10941TIP3   OH254237   0.499   1.277   5.421 -0.4735  0.1285 -0.7032
10941TIP3    H154238   0.567   1.338   5.452 -0.2669 -1.2695  1.8580
10941TIP3    H254239   0.528   1.253   5.333  2.6562 -0.7283  0.4076
10942TIP3   OH254240   4.712   2.332   3.999  0.1884  0.7054  0.5067
10942TIP3    H154241   4.644   2.310   3.935 -0.8507 -0.0985  1.8399
10942TIP3    H254242   4.788   2.355   3.946 -0.8048  0.6113 -1.0163
10943TIP3   OH254243   0.306   0.235   3.079 -0.9461 -0.5724  0.3218
10943TIP3    H154244   0.212   0.244   3.062 -0.6760 -0.9773 -1.6001
10943TIP3    H254245   0.317   0.144   3.107 -0.8482 -1.3076 -1.9249
10944TIP3   OH254246   4.894   1.969  10.828 -0.1269 -0.1188  0.0182
10944TIP3    H154247   4.829   2.020  10.876 -0.7556 -1.5590  0.7627
10944TIP3    H254248   4.844   1.901  10.783  0.6570  0.0389 -1.1482
10945TIP3   OH254249   2.341   1.112  13.934 -0.2162 -0.1840 -0.5598
10945TIP3    H154250   2.388   1.175  13.879 -0.2742  1.0215  0.6940
10945TIP3    H254251   2.297   1.167  13.999 -1.1638 -1.4761 -0.0770
10946TIP3   OH254252   6.933   0.780   3.566 -0.1070  0.4780 -0.0425
10946TIP3    H154253   6.840   0.782   3.588  0.2398  2.2475  1.5126
10946TIP3    H254254   6.937   0.730   3.484 -2.4790  0.9203 -0.5105
10947TIP3   OH254255   1.872   3.869  10.824 -0.8585  0.1420 -0.2520
10947TIP3    H154256   1.841   3.816  10.897 -0.5593 -0.1083 -0.3041
10947TIP3    H254257   1.962   3.894  10.848 -0.4192 -0.7068 -0.9329
10948TIP3   OH254258   3.043   6.802   4.265 -0.1974  0.2188  0.3338
10948TIP3    H154259   3.006   6.831   4.348  0.7939  0.6449  0.6320
10948TIP3    H254260   3.106   6.870   4.241 -0.7034  0.2763 -0.9340
10949TIP3   OH254261   3.155   1.258   3.459 -0.2471 -0.6189 -0.1950
10949TIP3    H154262   3.245   1.279   3.482 -0.4194  0.2273 -0.2643
10949TIP3    H254263   3.159   1.233   3.367  0.0290 -1.3281  0.0066
10950TIP3   OH254264   5.583   3.382   1.429  0.4622  0.4639 -0.4702
10950TIP3    H154265   5.519   3.430   1.482  0.0699  0.1067 -0.6152
10950TIP3    H254266   5.565   3.409   1.339  0.4857  0.3228 -0.5171
10951TIP3   OH254267   1.831   2.188   1.397 -0.1970  0.1185 -0.5216
10951TIP3    H154268   1.765   2.233   1.344  0.5267  0.7852 -0.8989
10951TIP3    H254269   1.795   2.188   1.486 -0.1613  1.6174 -0.4787
10952TIP3   OH254270   0.733   4.599   1.596 -0.0764  0.1725  1.0459
10952TIP3    H154271   0.808   4.595   1.537 -0.4691  0.5353  0.5230
10952TIP3    H254272   0.695   4.685   1.582 -0.4843  0.0648  1.4483
10953TIP3   OH254273   6.545   2.426   5.304 -0.7684 -0.1429  0.1714
10953TIP3    H154274   6.618   2.470   5.261 -1.2863 -1.1987 -1.9340
10953TIP3    H254275   6.586   2.374   5.373  0.2213  0.7653  0.2980
10954TIP3   OH254276   3.021   2.195   5.732 -0.6865  0.7485 -0.3483
10954TIP3    H154277   3.101   2.147   5.710 -1.5724 -0.3570 -1.3227
10954TIP3    H254278   3.045   2.287   5.724  0.6956  0.4629  0.1775
10955TIP3   OH254279   5.148   5.963  10.176 -0.2641 -0.0322  0.5555
10955TIP3    H154280   5.133   6.058  10.178  0.4202  0.0847  0.1920
10955TIP3    H254281   5.241   5.953  10.160 -0.5608 -0.7762 -0.8677
10956TIP3   OH254282   3.504   2.203   1.072  0.5455  0.1953  0.2538
10956TIP3    H154283   3.536   2.273   1.129 -0.6125  0.5686  0.4796
10956TIP3    H254284   3.455   2.249   1.003  0.3569 -0.3521  0.0197
10957TIP3   OH254285   1.925   3.105   1.014 -0.1675 -0.3999 -0.0273
10957TIP3    H154286   1.967   3.191   1.018 -1.5397  0.2746  0.4079
10957TIP3    H254287   1.924   3.083   0.921  0.1804  0.0515 -0.1424
10958TIP3   OH254288   3.472   6.239   5.089  0.4042  0.0304  0.0631
10958TIP3    H154289   3.462   6.278   5.176 -0.0030  0.4094 -0.1512
10958TIP3    H254290   3.455   6.311   5.029  2.5460  0.2686 -0.3439
10959TIP3   OH254291   6.844   3.423   1.268 -0.1908  0.7709 -0.1127
10959TIP3    H154292   6.827   3.432   1.362  0.7926  0.4486  0.0959
10959TIP3    H254293   6.801   3.500   1.230  0.6178  1.6842  0.7536
10960TIP3   OH254294   5.830   2.524  11.309 -0.6533 -0.5235 -0.3727
10960TIP3    H154295   5.847   2.561  11.222  0.6074 -1.1337 -0.4053
10960TIP3    H254296   5.763   2.581  11.346  0.8333  1.5057 -0.6166
10961TIP3   OH254297   5.380   2.818  14.351  0.1237  0.0439  0.3271
10961TIP3    H154298   5.430   2.882  14.300 -1.3482  0.9754 -0.0059
10961TIP3    H254299   5.289   2.844  14.338 -0.3532 -0.4705  2.4243
10962TIP3   OH254300   5.564   1.812   3.461 -0.0979  0.2525  0.2363
10962TIP3    H154301   5.619   1.811   3.539  0.6009 -1.4049 -0.2557
10962TIP3    H254302   5.624   1.831   3.389  0.0051 -2.0889 -0.3725
10963TIP3   OH254303   3.910   4.689   1.517 -0.7171  0.2777  0.4755
10963TIP3    H154304   3.917   4.767   1.462 -1.0001 -0.6279 -0.8835
10963TIP3    H254305   3.831   4.704   1.569 -0.9130  0.7812  0.0431
10964TIP3   OH254306   1.501   6.081   1.839  0.6155 -0.0096  0.4615
10964TIP3    H154307   1.465   6.028   1.768  0.7917 -0.3895  0.6569
10964TIP3    H254308   1.535   6.018   1.902  1.6207  0.3511  0.2866
10965TIP3   OH254309   2.359   4.274  11.400  0.1586 -0.5628 -0.4369
10965TIP3    H154310   2.317   4.192  11.372 -2.7048  0.7257 -0.3115
10965TIP3    H254311   2.362   4.328  11.321  1.7436 -0.6372 -0.4552
10966TIP3   OH254312   1.768   2.707   3.474  0.7982 -0.1991 -0.3175
10966TIP3    H154313   1.842   2.685   3.530  1.4403 -0.7098 -1.3252
10966TIP3    H254314   1.691   2.694   3.529  1.1006 -4.6357 -0.5632
10967TIP3   OH254315   1.849   4.656  10.271  0.1782  0.2623  0.2899
10967TIP3    H154316   1.935   4.637  10.232 -0.8301 -3.8274 -0.4244
10967TIP3    H254317   1.838   4.589  10.339 -2.9619 -0.2753 -0.5930
10968TIP3   OH254318   0.587   3.203   0.242 -0.2221  0.3151  0.6580
10968TIP3    H154319   0.675   3.166   0.246 -0.3643 -0.3002 -1.1380
10968TIP3    H254320   0.588   3.260   0.165 -1.0384  1.3033  1.3580
10969TIP3   OH254321   0.794   4.807   4.341  0.1425 -0.2346 -0.0516
10969TIP3    H154322   0.739   4.743   4.296 -0.0879 -0.4050  0.4592
10969TIP3    H254323   0.736   4.846   4.407  0.4620  0.0372  0.0738
10970TIP3   OH254324   0.864   0.838   3.228  0.3778 -0.1057 -0.3123
10970TIP3    H154325   0.873   0.933   3.229  0.2722 -0.0965  1.3070
10970TIP3    H254326   0.914   0.808   3.304  0.1933 -1.3318 -0.6513
10971TIP3   OH254327   3.127   6.154  10.068 -0.6020  0.1573 -0.0643
10971TIP3    H154328   3.163   6.239  10.094  0.5630  0.0125 -1.1397
10971TIP3    H254329   3.203   6.101  10.048 -1.3279 -1.0987  0.3836
10972TIP3   OH254330   3.445   2.940   5.656 -0.2875 -0.7672  0.1628
10972TIP3    H154331   3.451   2.901   5.743 -1.6745 -2.3270 -0.3768
10972TIP3    H254332   3.531   2.926   5.617  0.1026 -0.7700  1.0082
10973TIP3   OH254333   6.585   5.359   1.599  0.2342  0.0221 -0.7759
10973TIP3    H154334   6.668   5.312   1.592  1.1352  1.4756 -0.1771
10973TIP3    H254335   6.547   5.329   1.682  1.0233  0.6501 -0.1696
10974TIP3   OH254336   0.529   7.071  11.442  0.5158  0.2233  0.3569
10974TIP3    H154337   0.564   7.010  11.377  0.4185  0.9198 -0.3778
10974TIP3    H254338   0.479   7.016  11.502  1.9767 -0.6498  0.8169
10975TIP3   OH254339   2.952   6.273  14.278  0.2944  0.3173 -0.1212
10975TIP3    H154340   2.945   6.327  14.200  0.1387 -0.1620 -0.4456
10975TIP3    H254341   3.027   6.307  14.325  2.0557 -1.0552 -1.7843
10976TIP3   OH254342   0.269   5.560   5.195 -0.0877 -0.2965  0.0845
10976TIP3    H154343   0.189   5.560   5.142 -0.2440 -0.7409  0.3212
10976TIP3    H254344   0.276   5.650   5.227 -1.0984 -0.5040  0.9571
10977TIP3   OH254345   3.501   7.024   5.022  0.3131  0.1423  0.1613
10977TIP3    H154346   3.573   6.962   5.034  0.4298  0.2285 -0.0851
10977TIP3    H254347   3.451   7.018   5.104  1.5931  1.3519  1.0989
10978TIP3   OH254348   4.153   5.971   4.409 -0.0836  0.4175  0.6602
10978TIP3    H154349   4.145   5.903   4.476 -0.0621 -0.3542 -0.1032
10978TIP3    H254350   4.236   5.952   4.365  0.2790  1.3801  0.9081
10979TIP3   OH254351   1.124   0.769  15.482 -0.1519 -0.0734 -0.9419
10979TIP3    H154352   1.126   0.862  15.459 -2.5096 -0.3614 -2.7853
10979TIP3    H254353   1.041   0.758  15.529  1.3044 -0.8525  1.6595
10980TIP3   OH254354   5.314   3.188   4.245 -0.6499 -0.4881 -0.2803
10980TIP3    H154355   5.250   3.227   4.186  1.2818  3.5984  0.0290
10980TIP3    H254356   5.378   3.146   4.187 -1.0645 -0.3951 -0.8161
10981TIP3   OH254357   6.638   1.811  13.583 -0.8451  0.2185  0.1844
10981TIP3    H154358   6.556   1.781  13.624  0.4424 -0.9916  2.0199
10981TIP3    H254359   6.683   1.731  13.558  0.4937  0.7843  0.6848
10982TIP3   OH254360   3.541   5.518   4.211 -0.5613 -0.6125 -0.3039
10982TIP3    H154361   3.521   5.425   4.196 -0.8000 -0.7694  0.8995
10982TIP3    H254362   3.617   5.517   4.269  0.6268 -0.0261 -1.7930
10983TIP3   OH254363   7.049   0.601  10.559 -0.0606  0.7062  0.4799
10983TIP3    H154364   6.977   0.541  10.541  1.6688 -1.3486 -0.0138
10983TIP3    H254365   7.009   0.673  10.608 -2.2416 -0.8974  1.2086
10984TIP3   OH254366   3.917   4.595   0.227  0.1672 -0.0367  0.6003
10984TIP3    H154367   3.932   4.670   0.170 -2.0937 -0.7682 -1.1308
10984TIP3    H254368   3.935   4.628   0.315  0.6459  2.0907 -0.2238
10985TIP3   OH254369   4.590   4.259   0.588  0.0309  0.2449 -0.1422
10985TIP3    H154370   4.632   4.315   0.523  1.5052 -0.4731  0.1263
10985TIP3    H254371   4.499   4.288   0.591  0.3186  1.3553 -1.3443
10986TIP3   OH254372   1.658   4.476   1.427 -0.1009  0.7778 -0.1468
10986TIP3    H154373   1.677   4.394   1.473  0.8576  0.5780 -0.8740
10986TIP3    H254374   1.616   4.531   1.493 -1.0788 -0.4046  0.2727
10987TIP3   OH254375   4.480   4.720  13.117  0.0430  0.0915 -0.3510
10987TIP3    H154376   4.546   4.681  13.060 -0.3198 -1.0774  0.0026
10987TIP3    H254377   4.399   4.715  13.067  0.2070  1.6294 -0.8313
10988TIP3   OH254378   2.713   2.610  10.548 -0.3780 -0.4327 -0.4161
10988TIP3    H154379   2.684   2.522  10.573 -0.4480 -0.0070  1.1072
10988TIP3    H254380   2.668   2.627  10.465 -1.3455 -1.3420 -0.1093
10989TIP3   OH254381   0.859   5.086   2.732  0.3783 -0.2538 -0.4818
10989TIP3    H154382   0.830   5.011   2.784  0.1333 -0.3492 -0.7494
10989TIP3    H254383   0.821   5.162   2.777  1.2776 -0.2110  0.2414
10990TIP3   OH254384   6.931   0.106   5.333  0.3179 -0.2332  0.3208
10990TIP3    H154385   6.881   0.027   5.356 -0.0231  0.5201  2.4139
10990TIP3    H254386   6.868   0.177   5.341  0.5810  0.2841 -1.7100
10991TIP3   OH254387   3.405   5.758   1.824 -0.7625  0.1427  0.6372
10991TIP3    H154388   3.411   5.797   1.911 -2.5573 -0.3377  1.0213
10991TIP3    H254389   3.405   5.833   1.764  0.0666  0.4949  1.0648
10992TIP3   OH254390   3.025   0.520  12.948 -0.3625  0.6917 -0.6237
10992TIP3    H154391   2.983   0.587  13.002 -2.2342  0.0470 -1.2202
10992TIP3    H254392   3.073   0.570  12.881  1.4441  1.4860  1.1344
10993TIP3   OH254393   6.940   3.694  10.426  0.0727 -0.7182 -0.1413
10993TIP3    H154394   6.992   3.774  10.425  0.4985 -1.0013 -1.5278
10993TIP3    H254395   6.936   3.666  10.335 -2.6808 -0.6044 -0.1408
10994TIP3   OH254396   1.311   3.957   5.559 -0.0150 -0.1485 -0.0339
10994TIP3    H154397   1.400   3.926   5.541  0.0099  0.6706 -1.4449
10994TIP3    H254398   1.308   4.045   5.521 -1.1798  0.1709  0.7509
10995TIP3   OH254399   1.333   6.825   2.576 -0.3618  1.1949 -0.0343
10995TIP3    H154400   1.373   6.882   2.642 -0.0394  3.0209 -1.7142
10995TIP3    H254401   1.324   6.881   2.499  0.8648 -1.2887 -2.1219
10996TIP3   OH254402   3.948   5.147  15.189  0.1840  0.9646 -0.3422
10996TIP3    H154403   4.009   5.213  15.157  0.1513  0.7566 -0.8315
10996TIP3    H254404   3.984   5.064  15.158 -1.2219  0.9610 -2.0512
10997TIP3   OH254405   2.887   2.895   3.796  0.9855  0.9613 -0.2976
10997TIP3    H154406   2.973   2.892   3.838  0.3856 -1.5758  0.9503
10997TIP3    H254407   2.835   2.830   3.843 -1.1254  1.1873 -2.1416
10998TIP3   OH254408   6.391   4.215  14.185  0.0665 -0.0333  0.1572
10998TIP3    H154409   6.414   4.179  14.100  0.8180  2.4926 -0.8066
10998TIP3    H254410   6.449   4.172  14.247  1.5066  0.1283 -1.0422
10999TIP3   OH254411   3.837   5.800  12.061  0.1276 -0.1593  0.5756
10999TIP3    H154412   3.921   5.829  12.097  0.5304 -1.1514  0.4826
10999TIP3    H254413   3.786   5.774  12.137 -0.2570  0.8170  0.6646
11000TIP3   OH254414   4.750   5.732   1.633  0.7166 -0.6478 -0.0650
11000TIP3    H154415   4.805   5.662   1.669 -0.8903 -1.1036  1.6847
11000TIP3    H254416   4.781   5.812   1.677 -1.3940 -1.2333  2.7880
11001TIP3   OH254417   5.058   6.641  10.326 -0.0806  0.2384  0.2852
11001TIP3    H154418   5.087   6.724  10.365 -1.3519  0.1368  1.5584
11001TIP3    H254419   5.040   6.662  10.235  0.4617  1.1461  0.3741
11002TIP3   OH254420   0.153   6.175  10.482  0.2178  0.2891  0.2372
11002TIP3    H154421   0.142   6.217  10.396  0.8475  1.7664  0.8325
11002TIP3    H254422   0.175   6.084  10.462  0.3013  0.5914 -1.1652
11003TIP3   OH254423   3.094   3.677   0.271  0.0805  0.4515  0.0920
11003TIP3    H154424   3.120   3.762   0.307  0.4438  0.2206  0.3932
11003TIP3    H254425   3.121   3.614   0.338  1.2812 -0.0474 -0.8293
11004TIP3   OH254426   1.914   5.001   4.731 -0.3884 -0.2983 -0.2824
11004TIP3    H154427   1.844   5.063   4.710 -0.3300 -0.1888 -0.1567
11004TIP3    H254428   1.876   4.940   4.793 -0.0185  0.4937  0.7406
11005TIP3   OH254429   7.040   6.360  10.473 -0.0882  0.4743  0.5966
11005TIP3    H154430   7.084   6.438  10.505 -0.2918 -0.1192  2.4415
11005TIP3    H254431   7.057   6.294  10.540  0.1944 -1.1264 -0.9636
11006TIP3   OH254432   4.359   3.603  12.962 -0.0450  0.3512 -0.5546
11006TIP3    H154433   4.352   3.587  13.056 -0.5008  0.9947 -0.4710
11006TIP3    H254434   4.270   3.597  12.930  0.2314 -0.8878 -1.1321
11007TIP3   OH254435   5.387   5.101  13.192 -0.2223 -0.3811  0.0829
11007TIP3    H154436   5.406   5.093  13.286 -1.1620 -1.0842  0.2308
11007TIP3    H254437   5.398   5.012  13.158 -0.2319 -0.1958 -0.4059
11008TIP3   OH254438   2.021   0.819   4.389 -0.1420 -0.3614  0.1669
11008TIP3    H154439   1.930   0.840   4.407 -0.2914 -1.1912  0.3993
11008TIP3    H254440   2.044   0.753   4.455  0.2431 -1.1076 -0.6900
11009TIP3   OH254441   5.300   6.117  14.014 -0.7518  0.4240  0.3566
11009TIP3    H154442   5.325   6.154  14.099 -0.7229  0.6659  0.2448
11009TIP3    H254443   5.322   6.186  13.951 -0.1026 -0.0258  0.0756
11010TIP3   OH254444   3.170   2.277  11.577 -0.6564  0.5149 -0.4068
11010TIP3    H154445   3.240   2.300  11.516 -0.9591 -1.3443 -1.5435
11010TIP3    H254446   3.215   2.234  11.650 -0.4070  1.6686  0.1431
11011TIP3   OH254447   2.353   3.889  12.913  0.2757 -0.1704  0.1021
11011TIP3    H154448   2.354   3.798  12.942 -3.3703 -0.5538 -0.5881
11011TIP3    H254449   2.330   3.885  12.820  0.4272  1.4710 -0.0409
11012TIP3   OH254450   5.596   5.791   2.103 -0.0938  0.0678 -0.1957
11012TIP3    H154451   5.531   5.858   2.123 -0.3067 -0.0626 -0.4480
11012TIP3    H254452   5.569   5.756   2.018  0.8393  0.6752 -0.7615
11013TIP3   OH254453   2.041   0.617   4.611 -0.3700 -0.8384  0.6444
11013TIP3    H154454   2.116   0.560   4.599  2.7359  3.1567 -1.3672
11013TIP3    H254455   2.054   0.656   4.698  1.0788  1.1267 -0.3656
11014TIP3   OH254456   4.011   2.315  14.921  0.1698 -0.8185 -0.1817
11014TIP3    H154457   3.987   2.228  14.888  1.7121 -1.2791 -0.1540
11014TIP3    H254458   4.098   2.303  14.958  0.4270  0.7594 -0.2267
11015TIP3   OH254459   2.877   4.466   4.284 -0.0776  0.8025 -0.0682
11015TIP3    H154460   2.865   4.505   4.370  1.0982  0.1934  0.3944
11015TIP3    H254461   2.971   4.473   4.267 -0.1322 -0.0863 -0.8190
11016TIP3   OH254462   1.625   2.255  11.353 -0.0681 -0.7744  0.4538
11016TIP3    H154463   1.570   2.333  11.366  0.4721  0.4199 -3.3084
11016TIP3    H254464   1.562   2.184  11.337 -0.5188 -0.7449  1.9065
11017TIP3   OH254465   5.459   0.489   3.072  0.0179  0.2296 -0.1085
11017TIP3    H154466   5.488   0.573   3.037  0.0347  0.7907  1.1839
11017TIP3    H254467   5.436   0.508   3.163 -2.7350 -0.5622 -0.5566
11018TIP3   OH254468   6.477   1.607  10.804 -0.2550  0.1136 -0.4878
11018TIP3    H154469   6.454   1.516  10.784  1.3883 -0.5552  0.4875
11018TIP3    H254470   6.394   1.648  10.826 -1.1573 -0.8975 -1.8406
11019TIP3   OH254471   5.916   1.418   2.356 -0.2633 -0.3350  0.3490
11019TIP3    H154472   5.901   1.435   2.449  0.7262 -0.3299  0.5146
11019TIP3    H254473   5.997   1.368   2.353  1.5741  2.4421 -0.6804
11020TIP3   OH254474   1.755   1.502   5.624  0.0131  0.0245 -0.3342
11020TIP3    H154475   1.830   1.528   5.570  1.3402  0.1832  1.4693
11020TIP3    H254476   1.794   1.481   5.709 -1.6002 -2.9723 -0.2173
11021TIP3   OH254477   1.767   3.363  15.188  0.6470  0.5782  0.0510
11021TIP3    H154478   1.795   3.274  15.209  1.8965  0.8984 -0.1731
11021TIP3    H254479   1.674   3.354  15.166  0.7246 -0.6468  0.1309
11022TIP3   OH254480   4.373   4.394   0.622 -0.6328  0.1417  0.4476
11022TIP3    H154481   4.360   4.489   0.627 -1.5687 -0.0160  1.6260
11022TIP3    H254482   4.288   4.358   0.646 -0.9194 -1.0209 -2.0417
11023TIP3   OH254483   0.490   3.121  13.639 -0.2131  0.1803  0.0424
11023TIP3    H154484   0.583   3.138  13.621  0.1757  1.8490  2.9461
11023TIP3    H254485   0.448   3.206  13.625 -1.5870 -0.7654 -2.1690
11024TIP3   OH254486   4.039   0.453   2.433  0.0288 -0.0411 -0.3255
11024TIP3    H154487   3.950   0.489   2.436  0.3470  0.7905 -0.7470
11024TIP3    H254488   4.091   0.513   2.485  0.2025 -0.9954  0.6381
11025TIP3   OH254489   7.028   5.924  14.288  0.0082  0.6718  0.2921
11025TIP3    H154490   6.966   5.992  14.262 -2.0359 -1.2075 -0.0786
11025TIP3    H254491   7.111   5.949  14.248 -1.4674  1.2461 -2.6161
11026TIP3   OH254492   1.788   3.708   5.144  0.2198 -0.2657 -0.3509
11026TIP3    H154493   1.797   3.719   5.239 -0.5885 -1.5894 -0.0893
11026TIP3    H254494   1.695   3.685   5.132  0.2889  0.0181 -1.4772
11027TIP3   OH254495   1.146   4.755   4.142 -0.3023  0.1024 -0.0255
11027TIP3    H154496   1.202   4.685   4.175 -0.4811  0.0794  0.2229
11027TIP3    H254497   1.126   4.809   4.218  1.2744  1.4334 -0.4879
11028TIP3   OH254498   3.369   1.165   5.133 -0.3120  0.4424  0.0085
11028TIP3    H154499   3.357   1.198   5.222 -0.1688 -1.0052  0.6028
11028TIP3    H254500   3.370   1.243   5.078 -0.3888  1.3721  1.2775
11029TIP3   OH254501   3.142   7.140   5.197  0.5982  0.1174  0.5302
11029TIP3    H154502   3.144   7.134   5.102  2.9571 -3.0224  0.6287
11029TIP3    H254503   3.112   7.230   5.215 -0.0188  0.7820 -3.0921
11030TIP3   OH254504   0.323   4.171   1.282  0.4460 -0.3368 -0.2490
11030TIP3    H154505   0.322   4.261   1.316  1.6388 -0.7845  1.0859
11030TIP3    H254506   0.388   4.172   1.212  1.4682 -0.4387  0.6781
11031TIP3   OH254507   0.394   4.420   2.452 -0.1122  0.6451 -0.0436
11031TIP3    H154508   0.417   4.330   2.474  1.9719  1.2760  0.6253
11031TIP3    H254509   0.320   4.440   2.508 -0.5122 -0.5881 -0.0944
11032TIP3   OH254510   0.113   1.074   5.410  0.0498 -0.6908 -0.0338
11032TIP3    H154511   0.029   1.029   5.411 -0.0981 -0.4311 -0.4490
11032TIP3    H254512   0.132   1.087   5.317 -0.1573  0.5695  0.0883
11033TIP3   OH254513   4.960   4.799   2.542 -0.2334 -1.1573  0.4215
11033TIP3    H154514   4.965   4.737   2.470  0.6239 -2.1074  1.2567
11033TIP3    H254515   4.944   4.745   2.619  1.1159 -0.4234  1.2615
11034TIP3   OH254516   1.766   1.403   3.598  0.3250 -0.4764 -0.4426
11034TIP3    H154517   1.810   1.467   3.542 -2.7421  1.3870 -0.9704
11034TIP3    H254518   1.709   1.354   3.539 -3.0236  1.5664  0.7942
11035TIP3   OH254519   4.174   1.330   5.217  0.4194  0.3170 -0.0775
11035TIP3    H154520   4.160   1.334   5.311 -1.8652  0.2143 -0.3619
11035TIP3    H254521   4.233   1.403   5.198  0.1785  0.8932  1.3110
11036TIP3   OH254522   2.747   4.821  10.792  0.3142  0.3171  0.3087
11036TIP3    H154523   2.714   4.910  10.787  1.2460  0.6420 -0.4149
11036TIP3    H254524   2.781   4.812  10.881 -1.0797  0.1882  0.8498
11037TIP3   OH254525   2.434   0.258   4.037 -0.1668 -0.4131  0.3570
11037TIP3    H154526   2.356   0.295   4.080 -0.7959  1.4473 -2.1706
11037TIP3    H254527   2.413   0.164   4.028 -1.4303 -0.2349  1.0934
11038TIP3   OH254528   1.932   1.829   5.613 -0.0310  0.8716  0.0738
11038TIP3    H154529   2.022   1.830   5.646  0.0808  0.6450 -0.2174
11038TIP3    H254530   1.930   1.755   5.552 -0.9382 -0.3821  1.5296
11039TIP3   OH254531   3.183   4.135  14.274  0.3478 -0.1897 -0.5911
11039TIP3    H154532   3.221   4.071  14.334 -1.0578  0.0399  0.6360
11039TIP3    H254533   3.257   4.181  14.237  1.3800 -2.2200 -1.1752
11040TIP3   OH254534   3.231   1.705   3.361  0.4241 -0.3627 -0.1286
11040TIP3    H154535   3.145   1.673   3.334 -0.1463 -0.7184  1.9526
11040TIP3    H254536   3.214   1.766   3.432  1.8955 -0.4873  0.3760
11041TIP3   OH254537   4.516   1.180   4.857 -0.0513  0.2009  0.0051
11041TIP3    H154538   4.491   1.235   4.783  1.9408 -1.7115 -2.2435
11041TIP3    H254539   4.433   1.145   4.890 -1.0236  1.5427 -0.9377
11042TIP3   OH254540   0.315   2.307   4.057 -0.0276  0.3740  0.3784
11042TIP3    H154541   0.378   2.363   4.104 -0.8923  0.9810  0.8327
11042TIP3    H254542   0.338   2.318   3.965  1.1991 -0.2321  0.5881
11043TIP3   OH254543   6.496   2.183   0.498 -0.5593  0.6837 -0.6911
11043TIP3    H154544   6.468   2.274   0.487 -1.1127  0.4619 -1.1503
11043TIP3    H254545   6.417   2.136   0.527 -0.3680  0.2774 -0.8160
11044TIP3   OH254546   0.883   0.419   0.467 -0.4325 -0.3919  0.5349
11044TIP3    H154547   0.877   0.514   0.479 -1.8951 -0.3644 -0.2120
11044TIP3    H254548   0.959   0.407   0.410 -1.8062  0.5825 -1.6404
11045TIP3   OH254549   1.073   0.061  14.978  1.0316 -0.1174  0.6419
11045TIP3    H154550   1.107  -0.028  14.985 -0.0602 -0.6432 -0.4941
11045TIP3    H254551   0.990   0.052  14.932  1.0884  1.5268  0.1538
11046TIP3   OH254552   1.363   5.684  14.520 -0.0145  0.4928 -0.7427
11046TIP3    H154553   1.441   5.719  14.563 -0.2224  0.0133  0.0459
11046TIP3    H254554   1.368   5.717  14.430  0.2689  1.7810 -0.2714
11047TIP3   OH254555   3.453   6.865   4.131  0.1582  0.2899  0.1424
11047TIP3    H154556   3.419   6.824   4.051  0.6202 -2.4149  1.2144
11047TIP3    H254557   3.393   6.835   4.200  1.6382 -0.2123  1.2700
11048TIP3   OH254558   5.616   2.812  15.128 -0.4440 -0.1592  0.3020
11048TIP3    H154559   5.581   2.735  15.173 -1.2718 -0.1919 -0.3873
11048TIP3    H254560   5.657   2.864  15.198 -1.8086 -0.1486  1.1212
11049TIP3   OH254561   2.349   1.328   2.671 -0.0324 -0.1667 -0.2135
11049TIP3    H154562   2.346   1.317   2.766 -1.9219 -2.3345 -0.4178
11049TIP3    H254563   2.267   1.372   2.649 -0.0554 -0.5141 -0.8791
11050TIP3   OH254564   3.967   6.365   4.056 -0.4489  0.2233 -0.1929
11050TIP3    H154565   3.921   6.448   4.061  1.0632  1.0426  2.2539
11050TIP3    H254566   3.912   6.303   4.105 -0.0529  0.6404  0.8059
11051TIP3   OH254567   5.904   1.673   5.025 -0.0238  0.5948 -0.0126
11051TIP3    H154568   5.906   1.759   4.982  0.2441  1.2738  1.2920
11051TIP3    H254569   5.981   1.673   5.082  0.3591 -0.7973 -0.4867
11052TIP3   OH254570   1.395   4.969   1.733 -0.4668  0.3250  0.2483
11052TIP3    H154571   1.415   4.896   1.793 -1.6723  0.9275  1.4394
11052TIP3    H254572   1.391   4.928   1.647 -2.0549 -1.2364  1.0009
11053TIP3   OH254573   1.803   4.947  10.255 -0.7157  0.2134 -0.4786
11053TIP3    H154574   1.801   4.852  10.261  1.9117 -0.0437 -1.8945
11053TIP3    H254575   1.784   4.966  10.163 -1.6732  1.1075 -0.1134
11054TIP3   OH254576   5.290   6.469  15.450 -0.4542  0.3623 -0.2986
11054TIP3    H154577   5.362   6.518  15.490 -0.0977  0.3734 -0.9179
11054TIP3    H254578   5.248   6.423  15.522 -0.2346  0.8791  0.1654
11055TIP3   OH254579   0.842   4.329  13.887  0.1316 -0.1721  0.4460
11055TIP3    H154580   0.786   4.253  13.872 -0.2434  0.2179 -0.2311
11055TIP3    H254581   0.852   4.333  13.982 -0.1043 -0.8785  0.5115
11056TIP3   OH254582   1.126   5.126   0.287 -0.7710 -0.5777  0.6504
11056TIP3    H154583   1.098   5.044   0.327 -0.8785 -1.1797 -0.6151
11056TIP3    H254584   1.123   5.190   0.358 -1.9798 -1.3782  1.3452
11057TIP3   OH254585   3.226   4.350   0.443  0.0240  0.4661  0.2848
11057TIP3    H154586   3.318   4.366   0.463  0.4177  0.2747 -1.2226
11057TIP3    H254587   3.219   4.364   0.348 -1.3386 -0.2158  0.2522
11058TIP3   OH254588   3.867   5.751   9.857 -0.3104 -0.3020 -0.3482
11058TIP3    H154589   3.910   5.805   9.924  0.1446  0.7414 -1.4460
11058TIP3    H254590   3.919   5.765   9.778 -2.2308  0.4760 -1.5601
11059TIP3   OH254591   3.368   5.150  14.575 -0.2920  0.1034  0.2605
11059TIP3    H154592   3.430   5.192  14.634  0.2566  0.2921 -0.4311
11059TIP3    H254593   3.321   5.224  14.535  1.3579  0.1697 -1.7061
11060TIP3   OH254594   3.281   5.606   2.635  0.1311  0.2402  0.2450
11060TIP3    H154595   3.336   5.620   2.713  0.3896 -0.3614  0.1768
11060TIP3    H254596   3.239   5.521   2.650  0.1144  0.1609 -0.2321
11061TIP3   OH254597   3.145   3.251   0.725  0.3644 -0.2851  0.3947
11061TIP3    H154598   3.166   3.272   0.634 -0.1793  2.9025  0.9016
11061TIP3    H254599   3.050   3.258   0.730  0.0492 -3.4429  0.6266
11062TIP3   OH254600   2.840   4.400  11.007 -0.3360  0.1173 -0.2681
11062TIP3    H154601   2.832   4.434  10.918  2.0969 -1.6217 -1.2655
11062TIP3    H254602   2.913   4.449  11.045 -0.1803 -0.3950  0.1074
11063TIP3   OH254603   0.002   1.810  14.562  0.7449 -0.2268  0.0577
11063TIP3    H154604  -0.048   1.860  14.497  2.8747 -1.4078 -2.6966
11063TIP3    H254605  -0.039   1.724  14.561  1.6054 -0.6480 -0.8195
11064TIP3   OH254606   1.827   0.071  12.208 -0.2732  0.5664  0.4079
11064TIP3    H154607   1.880   0.117  12.273 -0.9283 -0.9073  2.0783
11064TIP3    H254608   1.756   0.132  12.187  1.1929  1.9538 -0.7010
11065TIP3   OH254609   5.754   6.217   2.135 -0.0200 -0.2072 -0.5292
11065TIP3    H154610   5.775   6.126   2.157 -1.2171 -0.7978 -1.6022
11065TIP3    H254611   5.693   6.245   2.203 -0.7014 -0.6967 -0.9206
11066TIP3   OH254612   4.956   3.179   2.126 -0.2151  0.2696 -0.1682
11066TIP3    H154613   4.886   3.114   2.122  1.1944 -1.3265 -0.3410
11066TIP3    H254614   4.975   3.188   2.220 -1.3657  1.5512 -0.0374
11067TIP3   OH254615   5.736   1.999   2.713 -0.0409  0.1457  0.8161
11067TIP3    H154616   5.796   2.001   2.638 -1.0602  0.9581 -0.0020
11067TIP3    H254617   5.791   2.022   2.788  1.1901 -1.5157  0.4950
11068TIP3   OH254618   2.592   6.633  11.407  0.0175 -0.4602  0.8343
11068TIP3    H154619   2.509   6.648  11.360  0.5960 -1.8056 -0.7149
11068TIP3    H254620   2.583   6.684  11.487 -0.7752  2.6457 -1.0154
11069TIP3   OH254621   6.446   3.371  13.300 -0.0850  0.6335  0.0592
11069TIP3    H154622   6.432   3.364  13.206 -0.8106 -0.2190  0.2190
11069TIP3    H254623   6.520   3.314  13.318 -0.1493  0.5465  0.0476
11070TIP3   OH254624   0.242   3.032   0.580 -0.1925  0.1215  0.0438
11070TIP3    H154625   0.246   3.124   0.555 -1.0892  0.4428  0.9694
11070TIP3    H254626   0.156   3.023   0.623  0.8870 -0.5439  2.2007
11071TIP3   OH254627   0.613   6.211   3.101 -0.0220  0.2054 -0.5821
11071TIP3    H154628   0.582   6.302   3.096 -1.1920 -0.2239 -1.9196
11071TIP3    H254629   0.562   6.173   3.173 -0.6942  0.2093 -1.0441
11072TIP3   OH254630   2.851   0.026  13.364  0.2156  0.2542  0.4756
11072TIP3    H154631   2.866  -0.041  13.297 -0.4080  1.0026 -0.4474
11072TIP3    H254632   2.756   0.028  13.374  0.3418 -0.3541  1.9343
11073TIP3   OH254633   3.503   7.153  13.327 -0.3363  0.4287  0.1471
11073TIP3    H154634   3.478   7.206  13.403  1.5787  0.0193  1.1242
11073TIP3    H254635   3.447   7.185  13.256 -1.5607  1.4325  1.5093
11074TIP3   OH254636   6.591   4.242  14.949  0.2371 -0.3500  0.2205
11074TIP3    H154637   6.614   4.291  14.870  0.0339  0.7959  0.8514
11074TIP3    H254638   6.637   4.159  14.939  2.7553  0.9274  0.3185
11075TIP3   OH254639   0.264   6.434   1.263  0.7330  0.1445  0.1324
11075TIP3    H154640   0.182   6.395   1.292  2.1320 -2.2146  1.1516
11075TIP3    H254641   0.289   6.494   1.334 -0.6748  1.8556 -0.7556
11076TIP3   OH254642   6.156   6.967   3.676 -0.5905 -0.2897 -0.2422
11076TIP3    H154643   6.160   6.892   3.617 -0.4354 -0.5649  0.1091
11076TIP3    H254644   6.087   7.023   3.640  0.1964  0.0625 -1.2598
11077TIP3   OH254645   6.632   4.534   0.568  0.1951  0.4437  0.1298
11077TIP3    H154646   6.608   4.442   0.557  4.5531 -0.9790  0.7199
11077TIP3    H254647   6.592   4.558   0.652  0.6275 -1.6144  1.0008
11078TIP3   OH254648   1.202   3.080  14.876 -0.5051 -0.2747 -0.3436
11078TIP3    H154649   1.203   2.994  14.833 -1.6496 -0.7866  0.6266
11078TIP3    H254650   1.127   3.077  14.935  1.4728  0.0663  2.4015
11079TIP3   OH254651   6.558   6.556   3.757 -0.1416 -0.0334 -0.2487
11079TIP3    H154652   6.588   6.641   3.724  1.0346 -0.2418  0.2163
11079TIP3    H254653   6.637   6.514   3.790 -0.5808 -1.6414 -1.1530
11080TIP3   OH254654   6.329   3.607   4.769 -0.5509  0.2315  0.4035
11080TIP3    H154655   6.233   3.604   4.766 -0.4979 -1.7978 -2.2804
11080TIP3    H254656   6.356   3.612   4.678  1.9197 -1.9224  0.9027
11081TIP3   OH254657   6.965   5.274  12.677 -0.5716 -0.1895  0.5759
11081TIP3    H154658   6.966   5.351  12.620 -0.9248  1.7913  3.0757
11081TIP3    H254659   7.055   5.242  12.676 -0.5626 -0.2036 -0.9984
11082TIP3   OH254660   3.366   6.047  10.025 -0.5745 -0.4591  0.0265
11082TIP3    H154661   3.408   6.076   9.944  0.7493  1.7271  1.3941
11082TIP3    H254662   3.427   5.983  10.063  1.5501  2.4087  1.8066
11083TIP3   OH254663   2.982   0.678  10.899 -0.5014 -0.1937 -0.1399
11083TIP3    H154664   2.890   0.655  10.907 -0.4068 -0.5203  0.0553
11083TIP3    H254665   3.002   0.725  10.980  0.3932 -3.2753  1.5820
11084TIP3   OH254666   6.680   2.067  11.195  0.6738  0.3435  0.2742
11084TIP3    H154667   6.728   2.142  11.231  1.1461  0.0675  0.2303
11084TIP3    H254668   6.749   2.008  11.163  0.2632  0.5874 -1.1174
11085TIP3   OH254669   1.963   3.350   3.281 -0.3969  0.5978  0.0415
11085TIP3    H154670   1.915   3.293   3.341  0.9729 -0.1714  0.4555
11085TIP3    H254671   1.896   3.386   3.223 -1.2749 -1.9312 -0.6495
11086TIP3   OH254672   4.954   2.046  12.583  0.3143 -0.6789 -0.1194
11086TIP3    H154673   4.867   2.006  12.574  0.5457 -1.5369  1.1660
11086TIP3    H254674   5.014   1.972  12.592  1.0759 -0.0770 -0.1781
11087TIP3   OH254675   5.238   0.604  12.602  0.0836 -0.8136  0.0008
11087TIP3    H154676   5.281   0.684  12.629 -1.2235  0.1392 -0.6348
11087TIP3    H254677   5.163   0.633  12.550 -1.5602 -2.3548  1.3564
11088TIP3   OH254678   2.217   1.629   9.919  0.3502  0.5824  0.2083
11088TIP3    H154679   2.225   1.706   9.975 -3.4754  0.6402  0.9298
11088TIP3    H254680   2.155   1.655   9.850 -1.5047 -1.8961  0.7792
11089TIP3   OH254681   3.387   0.943   1.828 -0.1085  0.0441  0.2272
11089TIP3    H154682   3.386   1.039   1.823 -1.0809  0.0710  0.8117
11089TIP3    H254683   3.476   0.919   1.802 -0.6645  0.9325 -2.8054
11090TIP3   OH254684   1.493   7.075   4.532  0.3788 -0.3826 -0.8425
11090TIP3    H154685   1.445   7.035   4.605 -1.7193  1.7924 -0.8994
11090TIP3    H254686   1.577   7.099   4.569 -0.5960  0.5574  0.9073
11091TIP3   OH254687   3.850   6.138  14.044  0.5930  0.0606 -0.2979
11091TIP3    H154688   3.768   6.184  14.029  0.5486 -0.0157 -0.2927
11091TIP3    H254689   3.833   6.048  14.015 -0.0074 -0.5117  1.6417
11092TIP3   OH254690   6.308   2.593  11.043  0.3138 -0.3682  0.4052
11092TIP3    H154691   6.376   2.630  10.987 -0.6570  1.1355  0.1940
11092TIP3    H254692   6.228   2.640  11.020 -1.0566 -2.7597 -0.0503
11093TIP3   OH254693   3.821   5.128   0.975  0.1952 -0.2217  0.5523
11093TIP3    H154694   3.767   5.152   0.899  0.0699 -2.2925 -0.0848
11093TIP3    H254695   3.896   5.083   0.936  2.3342  2.3170  1.4369
11094TIP3   OH254696   6.852   0.586   0.189  0.2550 -0.1390 -0.0641
11094TIP3    H154697   6.909   0.608   0.262  1.1382  1.6332 -1.2211
11094TIP3    H254698   6.854   0.490   0.185  2.4057 -0.1665  0.5160
11095TIP3   OH254699   5.035   6.050  13.134 -0.1890  0.7226  0.0414
11095TIP3    H154700   5.043   6.145  13.125  0.2776  0.5549 -1.5775
11095TIP3    H254701   4.941   6.035  13.145 -0.5120  1.2589 -1.6609
11096TIP3   OH254702   0.037   6.626   3.139  0.0684 -0.7454  0.3396
11096TIP3    H154703   0.093   6.703   3.133  0.1853 -0.9169 -1.1122
11096TIP3    H254704   0.016   6.604   3.048 -3.6302  0.2501  0.7662
11097TIP3   OH254705   0.149   3.352  14.758 -0.1023  0.0780 -0.3963
11097TIP3    H154706   0.057   3.372  14.739  0.3394  2.0828 -0.7566
11097TIP3    H254707   0.183   3.433  14.797  1.0099 -1.3396  1.7391
11098TIP3   OH254708   1.806   2.042  11.948 -0.4454  0.8493 -0.1465
11098TIP3    H154709   1.808   2.078  11.859  1.1257  1.7428  0.1908
11098TIP3    H254710   1.865   1.966  11.944 -0.6223  0.7011  0.0616
11099TIP3   OH254711   0.818   2.382  10.809 -0.0545  0.1977  0.1993
11099TIP3    H154712   0.732   2.424  10.813 -0.7497 -0.7328 -2.6351
11099TIP3    H254713   0.807   2.300  10.856 -1.3914 -0.8264 -1.7745
11100TIP3   OH254714   0.208   5.441   4.518 -0.5623 -0.1409  0.1334
11100TIP3    H154715   0.226   5.370   4.580 -1.5157 -0.0201  0.5780
11100TIP3    H254716   0.215   5.400   4.432 -2.2697 -1.1010  0.4021
11101TIP3   OH254717   1.854   0.460  11.471 -0.0944 -0.0634 -0.2133
11101TIP3    H154718   1.861   0.399  11.398 -1.5618  1.9043 -2.1225
11101TIP3    H254719   1.944   0.487  11.489  0.3769 -1.2667 -0.6640
11102TIP3   OH254720   3.048   6.846  11.532  0.4067  0.4903 -0.3123
11102TIP3    H154721   3.048   6.934  11.570 -1.5910  1.1197 -1.6357
11102TIP3    H254722   3.019   6.859  11.442 -1.4663 -1.6582 -0.0973
11103TIP3   OH254723   4.636   1.915  11.532 -0.2975  0.6027 -0.2923
11103TIP3    H154724   4.703   1.935  11.466  0.2344 -0.3490 -0.0528
11103TIP3    H254725   4.556   1.904  11.481 -0.3555  2.0012 -0.5630
11104TIP3   OH254726   4.311   2.957  14.760  0.0302 -0.0813  0.5827
11104TIP3    H154727   4.270   2.910  14.833  0.1472 -0.4064  0.4395
11104TIP3    H254728   4.349   2.889  14.705  1.4394  0.2346  1.1092
11105TIP3   OH254729   1.152   2.208   1.044 -1.0710 -0.3087  0.2113
11105TIP3    H154730   1.169   2.274   1.111 -0.7082 -1.1117  0.9486
11105TIP3    H254731   1.072   2.236   1.001 -1.7724 -0.1912  1.5435
11106TIP3   OH254732   7.129   2.607  10.448 -0.5081 -0.2883 -0.2698
11106TIP3    H154733   7.114   2.671  10.519 -0.9523  0.0614 -0.6687
11106TIP3    H254734   7.158   2.660  10.374  1.5057 -0.8193  0.0878
11107TIP3   OH254735   3.483   0.070  14.887 -0.2773  0.2775 -0.2974
11107TIP3    H154736   3.389   0.087  14.888 -0.0553  1.6549 -0.5277
11107TIP3    H254737   3.493  -0.006  14.829 -1.2421  0.0945 -0.2406
11108TIP3   OH254738   0.732   1.659  12.526  0.3563 -0.4884 -0.3092
11108TIP3    H154739   0.756   1.656  12.433  0.1078 -1.0464 -0.3578
11108TIP3    H254740   0.764   1.744  12.556  0.5666 -0.3642 -0.8708
11109TIP3   OH254741   3.038   0.522   4.765  0.0499  0.3435 -0.0593
11109TIP3    H154742   2.999   0.555   4.846 -0.5845  0.6201 -0.4750
11109TIP3    H254743   3.065   0.433   4.787 -0.0385  0.4406  0.4779
11110TIP3   OH254744   2.886   3.613  13.032 -0.0491 -0.4483  0.3864
11110TIP3    H154745   2.821   3.683  13.041  0.7993  0.2792  1.0732
11110TIP3    H254746   2.884   3.591  12.939  0.2942  1.1523 -0.0463
11111TIP3   OH254747   4.253   4.603   4.528 -0.0243  0.1413 -0.0836
11111TIP3    H154748   4.301   4.604   4.445 -0.9132 -0.7193 -0.6332
11111TIP3    H254749   4.183   4.666   4.515  0.1625  0.4171  0.2294
11112TIP3   OH254750   5.996   2.451   1.095  0.0524 -0.6573 -0.2121
11112TIP3    H154751   6.008   2.447   1.000 -2.1906  0.8148 -0.6660
11112TIP3    H254752   6.084   2.453   1.131  1.0035  0.4376 -2.3920
11113TIP3   OH254753   0.656   0.047  10.184  0.3448 -0.4770  0.2764
11113TIP3    H154754   0.745   0.067  10.156 -0.8373  2.3845 -1.9349
11113TIP3    H254755   0.616   0.005  10.108 -0.3839 -1.2361  1.0553
11114TIP3   OH254756   4.094   5.460   0.935  0.5419 -0.0294 -0.2753
11114TIP3    H154757   4.184   5.431   0.924 -0.0808 -2.1026 -0.5250
11114TIP3    H254758   4.079   5.520   0.861  1.4784 -0.2818 -0.6882
11115TIP3   OH254759   4.284   5.507   4.632 -0.2616  0.3520  0.5325
11115TIP3    H154760   4.233   5.495   4.552 -1.1452  1.4215  0.9059
11115TIP3    H254761   4.374   5.516   4.603 -0.3758 -0.7262 -0.2147
11116TIP3   OH254762   3.290   1.476  14.885 -0.3487  0.5486  0.2956
11116TIP3    H154763   3.366   1.437  14.928  1.7671  0.6387 -3.0159
11116TIP3    H254764   3.285   1.565  14.920  0.2353  0.1147  1.5102
11117TIP3   OH254765   0.836   6.279  12.988 -0.5436 -0.0700 -0.1224
11117TIP3    H154766   0.754   6.308  13.027  0.3680  1.6876  0.6195
11117TIP3    H254767   0.844   6.330  12.907 -0.6186 -0.9156 -0.6687
11118TIP3   OH254768   6.879   7.147  11.796 -0.0390  0.1637  0.0434
11118TIP3    H154769   6.896   7.229  11.750 -1.4882 -0.1247 -1.1024
11118TIP3    H254770   6.796   7.162  11.843 -0.5017 -0.7384 -0.4542
11119TIP3   OH254771   3.586   3.775   4.738  0.0038  0.1348 -0.7375
11119TIP3    H154772   3.535   3.717   4.682  0.2462  0.3082 -1.1469
11119TIP3    H254773   3.573   3.862   4.700 -0.7176  0.4159  0.1327
11120TIP3   OH254774   5.293   3.668   3.365 -0.2478 -0.3063 -0.2138
11120TIP3    H154775   5.269   3.575   3.361  1.1376 -0.6683 -0.7593
11120TIP3    H254776   5.243   3.709   3.295 -0.8698 -0.6235  0.0293
11121TIP3   OH254777   6.657   0.008  15.338 -0.6469  0.2010 -0.2480
11121TIP3    H154778   6.593  -0.010  15.269 -3.1684  0.4334  1.8269
11121TIP3    H254779   6.610   0.066  15.399  1.3185 -0.1932  1.7881
11122TIP3   OH254780   1.038   0.321  13.277  0.4677  0.3031 -0.6952
11122TIP3    H154781   0.948   0.343  13.302  1.5611  1.8195  2.4267
11122TIP3    H254782   1.029   0.245  13.219 -2.7397 -0.5713  0.7383
11123TIP3   OH254783   5.683   2.728  13.771 -0.4869  0.1688 -0.7297
11123TIP3    H154784   5.627   2.655  13.798  1.3684 -1.0188  0.0769
11123TIP3    H254785   5.695   2.716  13.677  0.6563 -1.2383 -0.4398
11124TIP3   OH254786   3.024   4.800   1.321 -0.9557 -0.5570  0.3791
11124TIP3    H154787   3.053   4.793   1.230 -0.2884 -2.0723  0.6883
11124TIP3    H254788   2.980   4.717   1.339 -1.0819 -0.2759  1.4446
11125TIP3   OH254789   2.351   4.678   3.312  0.4678 -0.0778  0.5193
11125TIP3    H154790   2.355   4.586   3.287  2.8531  0.2727 -0.7280
11125TIP3    H254791   2.284   4.716   3.256  2.2910 -0.3088 -1.9519
11126TIP3   OH254792   1.688   5.420   2.789  0.2440  0.0705 -0.3496
11126TIP3    H154793   1.693   5.512   2.813 -0.3272 -0.5414  2.3754
11126TIP3    H254794   1.722   5.417   2.699  1.6219  2.7091 -0.0073
11127TIP3   OH254795   5.148   3.751   0.583 -0.7216 -0.4117  0.0795
11127TIP3    H154796   5.196   3.817   0.533 -0.9317  0.8929  1.5297
11127TIP3    H254797   5.166   3.669   0.537  1.5792  0.2584 -0.3621
11128TIP3   OH254798   3.983   4.924   1.161 -0.1656  0.3514 -1.0427
11128TIP3    H154799   3.902   4.931   1.110  0.2824 -2.2890 -2.2763
11128TIP3    H254800   4.053   4.944   1.099  0.2319  1.0927 -0.3775
11129TIP3   OH254801   6.993   4.211   2.227  0.2115  0.0446  0.2898
11129TIP3    H154802   6.951   4.238   2.309 -2.1606  0.6367 -1.0112
11129TIP3    H254803   7.002   4.292   2.177  1.4957 -0.3330 -0.1173
11130TIP3   OH254804   4.047   6.566   2.588  0.2031 -0.3660 -0.1231
11130TIP3    H154805   3.967   6.614   2.608 -0.2058 -0.7074 -0.9096
11130TIP3    H254806   4.104   6.630   2.545 -0.2753 -0.5367 -1.0178
11131TIP3   OH254807   3.317   2.117  13.748  0.1391 -0.1171  0.4580
11131TIP3    H154808   3.341   2.027  13.727 -0.1454 -0.6102  2.1139
11131TIP3    H254809   3.375   2.141  13.821  0.5517  1.2252 -0.2795
11132TIP3   OH254810   6.848   3.002   4.551 -0.1294  0.1924 -0.0030
11132TIP3    H154811   6.836   3.031   4.461 -1.4163  0.7677  0.3249
11132TIP3    H254812   6.759   2.985   4.583  0.2816  0.2266  1.2301
11133TIP3   OH254813   2.630   7.147   3.348  0.0639 -0.6277 -0.2761
11133TIP3    H154814   2.651   7.054   3.347  2.2717 -0.1989 -0.9394
11133TIP3    H254815   2.660   7.177   3.434  1.2252 -0.2062 -0.8039
11134TIP3   OH254816   1.919   6.298   0.887  0.1765  0.0611  0.2765
11134TIP3    H154817   1.985   6.246   0.841 -0.8182 -0.8339 -0.1936
11134TIP3    H254818   1.839   6.286   0.836 -1.1876 -1.6159  2.5915
11135TIP3   OH254819   3.768   1.557   4.662  0.1789 -0.5524 -0.0550
11135TIP3    H154820   3.803   1.547   4.573  0.5499 -0.2777  0.0605
11135TIP3    H254821   3.835   1.604   4.709 -1.4121  2.4364 -0.5253
11136TIP3   OH254822   1.642   5.512   4.509 -0.2857  0.3699 -0.5847
11136TIP3    H154823   1.593   5.579   4.463 -1.3249  0.7330  0.9794
11136TIP3    H254824   1.579   5.442   4.526 -0.0426  0.3939  0.5571
11137TIP3   OH254825   1.707   3.306   1.112 -0.5880 -0.2186  0.1810
11137TIP3    H154826   1.736   3.284   1.023 -2.5416  1.5525 -0.9850
11137TIP3    H254827   1.727   3.399   1.121  0.2737 -0.5319  1.9417
11138TIP3   OH254828   2.930   0.415   4.093 -0.0404 -0.3735  0.3716
11138TIP3    H154829   2.926   0.477   4.166 -0.3851 -0.6509  0.5929
11138TIP3    H254830   3.018   0.424   4.057  0.7969 -1.5784  2.0042
11139TIP3   OH254831   5.428   1.460   3.441 -0.0604  0.0548  0.3480
11139TIP3    H154832   5.438   1.547   3.481  1.8301  0.3414 -0.5812
11139TIP3    H254833   5.429   1.478   3.347  0.2598 -0.9601  0.1508
11140TIP3   OH254834   4.013   5.734  10.264  0.0333  0.1532 -0.4652
11140TIP3    H154835   3.940   5.793  10.281 -0.2427 -0.1803 -0.4905
11140TIP3    H254836   4.079   5.758  10.329  0.9599  2.2182 -2.0368
11141TIP3   OH254837   0.626   5.889  13.580  0.1615  0.0792 -0.1990
11141TIP3    H154838   0.658   5.813  13.628  0.0162  0.2190  0.1229
11141TIP3    H254839   0.538   5.903  13.614  0.2941  0.5632 -0.0539
11142TIP3   OH254840   5.433   6.096   3.493  0.4463  0.3387  0.7280
11142TIP3    H154841   5.431   6.027   3.428 -1.0276 -0.4842  1.5971
11142TIP3    H254842   5.478   6.169   3.450  1.0507 -0.7782 -0.5731
11143TIP3   OH254843   1.724   4.647  15.330  0.4514 -0.9416 -0.0738
11143TIP3    H154844   1.661   4.712  15.299  3.3893  2.0283 -0.4021
11143TIP3    H254845   1.728   4.661  15.425  0.9210 -0.7877 -0.1135
11144TIP3   OH254846   4.240   3.463  12.347  0.1643 -0.0339 -0.2395
11144TIP3    H154847   4.228   3.442  12.254 -0.0124 -1.4582  0.0812
11144TIP3    H254848   4.330   3.437  12.366 -0.1087 -0.6921  0.2033
11145TIP3   OH254849   0.202   0.280   2.751  0.3123  0.2147  0.2976
11145TIP3    H154850   0.233   0.370   2.743 -1.4046  0.7666 -0.7878
11145TIP3    H254851   0.279   0.230   2.778  0.9994  2.2166  2.3600
11146TIP3   OH254852   6.517   1.322   1.218  0.1778  0.5401 -0.2247
11146TIP3    H154853   6.565   1.404   1.203 -1.3450  1.0241 -2.9718
11146TIP3    H254854   6.433   1.335   1.175 -0.6189 -2.0315  0.4057
11147TIP3   OH254855   4.716   0.426  11.515  0.0243 -0.2063 -0.3285
11147TIP3    H154856   4.766   0.504  11.493  1.1675 -0.2118  1.9859
11147TIP3    H254857   4.665   0.451  11.592 -2.0836 -0.8175 -1.4514
11148TIP3   OH254858   2.086   2.058  10.233  0.9222  0.0258  0.5606
11148TIP3    H154859   2.117   2.068  10.143  1.1399  0.4939  0.6788
11148TIP3    H254860   2.039   1.975  10.234  0.2164  0.4064 -0.1877
11149TIP3   OH254861   5.904   2.893  12.940  0.4814 -0.1649  0.0386
11149TIP3    H154862   5.883   2.817  12.995 -2.0807 -2.2106 -3.3253
11149TIP3    H254863   5.825   2.946  12.941  0.9950  0.6159 -0.3770
11150TIP3   OH254864   4.584   1.651   0.608 -0.0019 -0.2961  0.2544
11150TIP3    H154865   4.582   1.729   0.551  0.1657  0.3159  1.0690
11150TIP3    H254866   4.492   1.627   0.618 -0.1384  0.4249  0.8278
11151TIP3   OH254867   5.566   4.657  14.981 -0.1811 -0.4133 -0.0542
11151TIP3    H154868   5.528   4.724  15.039 -0.3636 -0.2831 -0.3191
11151TIP3    H254869   5.571   4.579  15.035  1.8569  0.2976  0.8778
11152TIP3   OH254870   2.206   2.030  15.445 -0.1484 -0.5474 -0.3044
11152TIP3    H154871   2.294   2.046  15.479  0.1005 -0.9876 -0.7332
11152TIP3    H254872   2.220   1.979  15.365 -0.7689 -0.1537 -0.6632
11153TIP3   OH254873   3.054   6.373  11.977  0.1299  0.1086 -0.2665
11153TIP3    H154874   2.970   6.396  12.017  0.4321  1.8488 -0.5756
11153TIP3    H254875   3.117   6.382  12.049  0.2304 -0.0466 -0.3340
11154TIP3   OH254876   4.566   1.572  10.261 -0.2029  0.0565 -0.5783
11154TIP3    H154877   4.509   1.603  10.190  0.1364  0.6897 -0.5802
11154TIP3    H254878   4.640   1.633  10.262  0.9138 -1.2296 -1.1186
11155TIP3   OH254879   2.503   0.977  10.536  0.1382  0.0030  0.2682
11155TIP3    H154880   2.548   1.039  10.480  0.2923  0.2893  0.7029
11155TIP3    H254881   2.412   1.006  10.537  0.3058  0.5268  0.8743
11156TIP3   OH254882   3.581   2.229  13.841 -0.0010 -0.4206  0.1920
11156TIP3    H154883   3.569   2.137  13.816 -0.6234 -0.0571 -0.9733
11156TIP3    H254884   3.601   2.273  13.758 -0.2087  0.5653  0.6525
11157TIP3   OH254885   2.307   4.156   4.296 -0.4016 -0.1856 -0.1408
11157TIP3    H154886   2.380   4.118   4.247 -1.1165 -1.2523 -0.4029
11157TIP3    H254887   2.305   4.248   4.267 -0.0139 -0.4785 -1.1618
11158TIP3   OH254888   5.724   4.679  13.224  0.0804 -0.2858  0.0371
11158TIP3    H154889   5.746   4.652  13.135  2.6193 -0.3316  0.6162
11158TIP3    H254890   5.808   4.693  13.267 -1.0206 -1.5236  2.8503
11159TIP3   OH254891   1.488   7.082  15.366  0.0211  0.0701  0.0490
11159TIP3    H154892   1.552   7.030  15.318  0.1494 -0.1806  0.4840
11159TIP3    H254893   1.521   7.171  15.362  1.3171 -0.2768  1.6977
11160TIP3   OH254894   6.922   1.580   0.045  0.0454 -0.3041  0.5485
11160TIP3    H154895   6.944   1.491   0.076  0.2769 -0.3301  0.3060
11160TIP3    H254896   6.844   1.567  -0.009  1.6435 -0.7614 -1.7540
11161TIP3   OH254897   3.259   4.608   4.579 -0.2170 -0.0467  0.1827
11161TIP3    H154898   3.213   4.623   4.496 -0.9021 -2.0837  0.1403
11161TIP3    H254899   3.327   4.543   4.558  0.8549  0.8158  0.8474
11162TIP3   OH254900   4.943   4.455  12.179 -0.1718  0.0972 -0.0921
11162TIP3    H154901   4.973   4.502  12.101 -1.0737 -2.0525 -1.8429
11162TIP3    H254902   4.860   4.496  12.202  0.1771  0.8478 -0.1579
11163TIP3   OH254903   5.966   2.851  15.067  0.3650 -0.2947  0.1392
11163TIP3    H154904   5.977   2.944  15.085  3.0783 -0.2535 -1.2532
11163TIP3    H254905   5.991   2.840  14.975  0.2415 -2.4084  0.2943
11164TIP3   OH254906   6.057   3.224   1.012 -0.5702  0.5423 -0.2382
11164TIP3    H154907   6.042   3.263   1.098 -2.4907  0.3038 -0.4391
11164TIP3    H254908   6.030   3.133   1.021  1.1149 -0.0316 -0.5816
11165TIP3   OH254909   4.155   1.324   1.778  0.1887 -0.0627  0.7655
11165TIP3    H154910   4.225   1.338   1.714 -1.9400 -0.5570 -1.8442
11165TIP3    H254911   4.125   1.412   1.800 -0.9977  0.1071 -1.3054
11166TIP3   OH254912   6.186   4.759   2.254  0.0462 -0.0957  0.3872
11166TIP3    H154913   6.248   4.718   2.194  1.2238  1.1611  0.7077
11166TIP3    H254914   6.240   4.790   2.326 -0.8085  1.8930  0.2200
11167TIP3   OH254915   4.587   4.077   3.673 -0.0331  0.7447 -0.1194
11167TIP3    H154916   4.564   3.991   3.709 -0.4895  1.0083  0.2187
11167TIP3    H254917   4.619   4.057   3.584  0.6604  0.1464  0.2550
11168TIP3   OH254918   1.034   4.252   2.977 -0.1745  0.5456 -0.0977
11168TIP3    H154919   0.946   4.220   2.996 -0.1522  0.4484 -0.1614
11168TIP3    H254920   1.020   4.329   2.922 -0.1921  0.0473 -0.8035
11169TIP3   OH254921   2.891   2.079   2.553 -0.4416  0.3115 -0.1862
11169TIP3    H154922   2.848   2.149   2.504  0.3630  1.4405  0.6712
11169TIP3    H254923   2.984   2.104   2.554 -0.1328 -0.7957  0.0947
11170TIP3   OH254924   0.462   5.081  11.259  0.4381  0.1595 -0.5186
11170TIP3    H154925   0.431   5.163  11.296 -0.1313 -0.4508  0.4100
11170TIP3    H254926   0.422   5.013  11.313  0.7117 -0.7438 -1.4056
11171TIP3   OH254927   0.679   2.118   1.682  0.3431  0.4921  0.5155
11171TIP3    H154928   0.670   2.209   1.656  1.0764 -0.0025 -1.6781
11171TIP3    H254929   0.745   2.083   1.623  1.7903 -0.9111  2.8178
11172TIP3   OH254930   6.294   1.892   3.945 -0.0212  0.2850  0.1568
11172TIP3    H154931   6.203   1.921   3.956 -1.8442 -2.8696 -3.8089
11172TIP3    H254932   6.323   1.870   4.033 -3.7688 -0.1732  1.4762
11173TIP3   OH254933   4.406   6.867   1.273  0.1146 -0.4288 -0.1371
11173TIP3    H154934   4.370   6.864   1.184  0.2095 -1.1102 -0.1632
11173TIP3    H254935   4.449   6.952   1.279 -0.4683 -0.0951 -0.5141
11174TIP3   OH254936   4.874   4.539   4.628  0.1012 -0.5085 -0.0202
11174TIP3    H154937   4.893   4.632   4.635 -1.1612 -0.1618 -0.8825
11174TIP3    H254938   4.912   4.512   4.544  1.3750 -1.0408  0.6881
11175TIP3   OH254939   6.379   7.069   2.418  0.0749  0.1698 -0.1798
11175TIP3    H154940   6.306   7.020   2.380 -0.2170 -0.7655  1.4763
11175TIP3    H254941   6.370   7.157   2.382  0.1549 -0.7495 -2.6216
11176TIP3   OH254942   3.637   4.854   2.223  0.3248  0.1465 -0.0578
11176TIP3    H154943   3.628   4.862   2.318 -0.4990 -2.1791  0.1202
11176TIP3    H254944   3.597   4.934   2.189 -2.6648 -0.5545  1.4691
11177TIP3   OH254945   1.720   0.341   1.369 -0.2296 -0.2530  0.6825
11177TIP3    H154946   1.698   0.255   1.405  1.8406 -1.5968 -0.9740
11177TIP3    H254947   1.782   0.322   1.298 -1.3243  2.4715 -1.1725
11178TIP3   OH254948   1.535   1.757   4.032 -0.7394  0.1207 -0.5220
11178TIP3    H154949   1.552   1.817   4.105  0.8660  0.3671 -1.0651
11178TIP3    H254950   1.622   1.734   3.999 -1.4224 -0.4417 -1.9900
11179TIP3   OH254951   7.006   4.769  14.701 -0.4302 -0.2613  0.9293
11179TIP3    H154952   7.013   4.788  14.795  0.2946 -1.4706  1.1372
11179TIP3    H254953   6.920   4.727  14.692 -0.1643 -0.8623  1.1812
11180TIP3   OH254954   6.920   0.903   1.441  0.0546 -0.1273 -0.0703
11180TIP3    H154955   6.977   0.972   1.407 -1.1523 -0.2572 -2.6080
11180TIP3    H254956   6.950   0.823   1.397  0.1919 -0.8799  1.3361
11181TIP3   OH254957   6.459   5.265   2.596 -0.5707 -0.2336 -0.0675
11181TIP3    H154958   6.463   5.288   2.503  0.2719  0.2887  0.0902
11181TIP3    H254959   6.550   5.258   2.623 -0.7842  0.6796  0.9694
11182TIP3   OH254960   0.716   2.485   2.757  0.0024 -0.0335 -0.1688
11182TIP3    H154961   0.784   2.495   2.823 -1.3484  0.0332  1.2742
11182TIP3    H254962   0.688   2.575   2.738 -2.3062 -0.1295  2.1786
11183TIP3   OH254963   4.599   1.514   5.372  0.8608 -0.1447  0.1561
11183TIP3    H154964   4.691   1.490   5.380  0.7273 -0.5787  0.3902
11183TIP3    H254965   4.573   1.540   5.460  0.8081  0.1527  0.0521
11184TIP3   OH254966   6.621   4.442   4.881  0.4340  0.1487 -0.7835
11184TIP3    H154967   6.699   4.443   4.825  0.9327 -0.1728 -0.1043
11184TIP3    H254968   6.655   4.433   4.970 -0.4003 -0.3937 -0.5119
11185TIP3   OH254969   3.921   2.218  15.245 -0.5001 -0.0465  0.3125
11185TIP3    H154970   3.848   2.189  15.191 -1.0934  0.0758  1.0473
11185TIP3    H254971   3.963   2.286  15.192  0.3037 -1.4699 -0.9849
11186TIP3   OH254972   5.560   6.661  10.115 -0.2060  0.4091  0.2861
11186TIP3    H154973   5.572   6.627  10.203 -2.6629 -0.5056  0.3409
11186TIP3    H254974   5.465   6.659  10.101  0.0236  1.6358 -1.9504
11187TIP3   OH254975   4.707   5.076  15.404  0.5488  0.2048  0.1297
11187TIP3    H154976   4.645   5.019  15.358 -0.5393  0.6236  1.0293
11187TIP3    H254977   4.655   5.117  15.473  1.7980  0.6986  0.8112
11188TIP3   OH254978   6.635   3.757  12.688  0.3289 -0.6173 -0.6555
11188TIP3    H154979   6.655   3.668  12.660  0.8543 -0.9855  0.7867
11188TIP3    H254980   6.656   3.811  12.612  0.0643 -1.7124 -1.5292
11189TIP3   OH254981   4.191   6.159   3.812  0.1911  0.2294 -0.1571
11189TIP3    H154982   4.208   6.155   3.718  0.1449 -1.3839 -0.1252
11189TIP3    H254983   4.264   6.112   3.852  1.1034  2.3376  0.7715
11190TIP3   OH254984   6.063   4.885  14.975 -0.0802 -0.4026 -1.2286
11190TIP3    H154985   6.159   4.896  14.976 -0.2856  2.5705  1.3293
11190TIP3    H254986   6.031   4.956  14.920 -0.8770 -0.8694 -1.3834
11191TIP3   OH254987   6.884   4.848  12.854  0.1907 -0.0876 -0.1047
11191TIP3    H154988   6.904   4.798  12.933  0.3842 -0.9819 -0.7030
11191TIP3    H254989   6.841   4.785  12.796 -0.5606  0.7310 -0.4614
11192TIP3   OH254990   0.280   5.034  10.887  0.4537  0.1264  0.4741
11192TIP3    H154991   0.264   4.971  10.958 -0.3539  0.0495  0.2325
11192TIP3    H254992   0.211   5.099  10.897 -0.8816 -0.9260 -1.4195
11193TIP3   OH254993   5.869   5.394  11.992 -0.1737  0.0488  0.1900
11193TIP3    H154994   5.931   5.439  11.935 -0.0738  0.2568  0.4648
11193TIP3    H254995   5.836   5.322  11.938  0.7848 -0.4573  0.2559
11194TIP3   OH254996   0.509   6.863   2.215 -0.5385  0.0045  0.4406
11194TIP3    H154997   0.455   6.909   2.151 -1.2328  0.2684  1.1984
11194TIP3    H254998   0.596   6.903   2.205 -0.8843  0.7615  0.3662
11195TIP3   OH254999   5.730   6.128   9.770  0.3170  0.4507  0.4202
11195TIP3    H155000   5.777   6.100   9.692 -0.9697  2.2147 -1.0942
11195TIP3    H255001   5.651   6.171   9.736 -1.4636 -0.6912  2.7555
11196TIP3   OH255002   2.274   5.110  11.025  0.2628  0.0159 -0.0516
11196TIP3    H155003   2.339   5.152  10.968  0.4489 -0.4468 -0.1798
11196TIP3    H255004   2.235   5.183  11.073  1.2172  0.2613  0.3797
11197TIP3   OH255005   6.320   7.099   9.870  0.2720  0.3139 -0.1861
11197TIP3    H155006   6.324   7.110   9.775  0.2766  0.3260 -0.1838
11197TIP3    H255007   6.231   7.069   9.887  0.0053  1.1334 -0.1061
11198TIP3   OH255008   0.100   0.203  11.915  0.0707 -0.4367 -0.4499
11198TIP3    H155009   0.028   0.166  11.967 -1.4731  2.2326 -0.5095
11198TIP3    H255010   0.078   0.178  11.825 -0.0971 -0.6533 -0.3513
11199TIP3   OH255011   3.618   0.117  12.241  0.2553 -0.3320 -0.1387
11199TIP3    H155012   3.541   0.158  12.202  0.7889 -0.5211 -1.4081
11199TIP3    H255013   3.692   0.157  12.196  0.8065 -3.1517 -1.9741
11200TIP3   OH255014   4.607   0.737   1.968 -0.1794 -0.2561  0.0569
11200TIP3    H155015   4.603   0.717   2.062 -1.3589 -1.1542 -0.1632
11200TIP3    H255016   4.560   0.819   1.959  1.4671  0.7675  0.4699
11201TIP3   OH255017   1.521   3.912   5.114  0.8954 -0.4082 -0.0223
11201TIP3    H155018   1.439   3.954   5.136  0.3411 -0.1111 -2.3980
11201TIP3    H255019   1.500   3.819   5.107  0.4877 -0.2330 -1.5368
11202TIP3   OH255020   5.359   2.926   5.160  0.4797 -0.5591  0.2398
11202TIP3    H155021   5.393   2.975   5.235 -0.8381  0.3602  0.2580
11202TIP3    H255022   5.264   2.936   5.165  0.2136 -2.3218 -0.3123
11203TIP3   OH255023   6.194   1.445   4.553  0.2212 -0.4799  0.0267
11203TIP3    H155024   6.185   1.490   4.637  1.3964 -1.6638  0.8263
11203TIP3    H255025   6.285   1.458   4.528 -0.0543 -0.3420 -0.9707
11204TIP3   OH255026   0.276   4.970  13.547 -0.1824  0.7193 -0.5752
11204TIP3    H155027   0.297   4.918  13.470  1.2276  0.7805 -0.2600
11204TIP3    H255028   0.180   4.972  13.549 -0.2784 -1.3925 -0.8956
11205TIP3   OH255029   5.512   3.119   4.077  0.0497  0.1948 -0.1120
11205TIP3    H155030   5.456   3.092   4.004  0.7465  0.8496 -0.9050
11205TIP3    H255031   5.572   3.045   4.091  0.2554  0.2782 -0.5508
11206TIP3   OH255032   1.202   4.500  10.812  0.2887  0.1144 -0.1932
11206TIP3    H155033   1.256   4.579  10.813 -0.5308  0.7077 -1.1270
11206TIP3    H255034   1.263   4.429  10.832  0.9929  0.9954  0.8998
11207TIP3   OH255035   2.688   0.687  10.884  0.0928  0.3788  0.2510
11207TIP3    H155036   2.633   0.620  10.844 -0.0506  0.1959  0.7484
11207TIP3    H255037   2.680   0.763  10.826  0.8770 -0.2811 -0.7483
11208TIP3   OH255038   2.630   0.490   1.404 -0.2274 -0.5068  0.1142
11208TIP3    H155039   2.615   0.547   1.328 -1.3272 -0.6228  0.2169
11208TIP3    H255040   2.668   0.548   1.470 -2.4060  0.4606  0.6249
11209TIP3   OH255041   6.822   3.325  12.858  0.0166 -0.2335 -0.5476
11209TIP3    H155042   6.847   3.271  12.783  1.1384 -1.3669  0.6042
11209TIP3    H255043   6.874   3.292  12.931 -0.3792  1.4266  0.5540
11210TIP3   OH255044   6.342   0.161  14.805 -0.8636 -0.1475 -0.1212
11210TIP3    H155045   6.309   0.112  14.880 -0.9027  2.1995  1.5162
11210TIP3    H255046   6.271   0.157  14.741 -1.1003 -1.6737  0.2042
11211TIP3   OH255047   3.290   5.170  11.171  0.3455 -0.1941  0.0287
11211TIP3    H155048   3.297   5.144  11.262 -0.3469 -1.1349 -0.1682
11211TIP3    H255049   3.350   5.112  11.124  0.6449  0.2372 -0.1290
11212TIP3   OH255050   1.516   0.747  10.464 -0.5247  0.0272 -0.1025
11212TIP3    H155051   1.456   0.675  10.445 -1.9603  1.3790 -0.9263
11212TIP3    H255052   1.463   0.811  10.511 -0.2555  1.9344 -2.1926
11213TIP3   OH255053   4.627   0.052  12.021 -0.0551 -0.4493 -0.4411
11213TIP3    H155054   4.564   0.025  12.087 -0.5747 -0.6944 -1.0254
11213TIP3    H255055   4.681  -0.025  12.006 -1.2600 -1.0890 -1.7910
11214TIP3   OH255056   0.309   0.454   2.423 -0.1730  0.1715 -0.0420
11214TIP3    H155057   0.375   0.471   2.356  0.3186 -0.6691  0.2089
11214TIP3    H255058   0.301   0.358   2.424 -2.4333  0.2817 -1.0649
11215TIP3   OH255059   4.512   6.390   4.645  0.1370 -0.3598  0.0028
11215TIP3    H155060   4.592   6.437   4.666  1.4778 -2.3869 -0.2387
11215TIP3    H255061   4.507   6.392   4.549 -0.0847 -0.2532  0.0163
11216TIP3   OH255062   1.614   5.731  14.645 -0.1070  0.2073  0.2442
11216TIP3    H155063   1.699   5.766  14.617  0.7592  0.0482  2.5131
11216TIP3    H255064   1.625   5.636  14.640  0.2945  0.1619  1.7045
11217TIP3   OH255065   0.301   2.185   5.479 -0.3070  0.1775  0.2311
11217TIP3    H155066   0.263   2.121   5.418  2.6943 -2.0772  0.4822
11217TIP3    H255067   0.301   2.141   5.563  2.2327  0.2426  0.3299
11218TIP3   OH255068   4.533   1.842   9.930 -0.1796 -0.0862  0.1632
11218TIP3    H155069   4.563   1.860  10.019 -0.8464 -1.1735  0.6285
11218TIP3    H255070   4.502   1.926   9.898  1.1664  0.5747  0.5141
11219TIP3   OH255071   5.707   2.966  13.901  0.5685 -0.3590 -0.4331
11219TIP3    H155072   5.728   2.932  13.988  4.0525  1.0368 -0.5706
11219TIP3    H255073   5.687   2.889  13.849 -1.6653 -1.2201  1.5155
11220TIP3   OH255074   5.227   6.246  10.571  0.5013 -0.2007 -0.1603
11220TIP3    H155075   5.214   6.286  10.656  0.0920 -2.3805  0.8766
11220TIP3    H255076   5.294   6.180  10.585  0.0198 -1.0012 -1.3780
11221TIP3   OH255077   5.632   0.365   2.808  0.0788  0.4937  0.2352
11221TIP3    H155078   5.631   0.435   2.873  1.7352  0.9549 -0.1955
11221TIP3    H255079   5.550   0.377   2.760 -0.3834  1.1821  1.1593
11222TIP3   OH255080   1.518   3.026  10.784  0.1222  0.4709 -0.5381
11222TIP3    H155081   1.559   3.064  10.707  0.7826  0.4903 -0.1887
11222TIP3    H255082   1.591   2.991  10.835 -0.4732 -1.6702 -1.0613
11223TIP3   OH255083   5.287   1.799  13.476  0.2588  0.2605 -0.2453
11223TIP3    H155084   5.320   1.780  13.388  0.0333 -1.8174  0.0700
11223TIP3    H255085   5.207   1.746  13.484  0.3609  0.2859  1.2628
11224TIP3   OH255086   6.956   6.126   4.268 -0.0154  0.3505  0.2122
11224TIP3    H155087   6.972   6.033   4.253  1.4909  0.4233  1.1381
11224TIP3    H255088   7.042   6.167   4.258 -0.5966  1.6012  0.1510
11225TIP3   OH255089   4.991   6.716   4.247 -0.3142 -0.2097 -0.2756
11225TIP3    H155090   5.080   6.725   4.282 -0.0597  0.3694 -1.0353
11225TIP3    H255091   4.994   6.635   4.196  0.3351  0.7337 -1.8212
11226TIP3   OH255092   1.845   6.213  11.475  0.1235 -0.0309 -0.4580
11226TIP3    H155093   1.917   6.267  11.509  0.8736 -1.4395  0.2581
11226TIP3    H255094   1.873   6.187  11.388  1.2822 -1.8914  0.4018
11227TIP3   OH255095   1.583   1.296   4.106 -0.2322  0.9950  0.2909
11227TIP3    H155096   1.581   1.268   4.015 -0.2376  0.1557  0.5459
11227TIP3    H255097   1.656   1.358   4.110  0.4215  0.2665 -0.0668
11228TIP3   OH255098   5.672   6.408   3.426  0.1229 -0.0259 -0.2737
11228TIP3    H155099   5.660   6.322   3.385 -0.4338 -0.0416 -0.0901
11228TIP3    H255100   5.766   6.423   3.423  0.3232 -1.0074  0.4056
11229TIP3   OH255101   6.365   1.358   5.616 -0.2612  0.1054 -0.2076
11229TIP3    H155102   6.359   1.452   5.637 -0.6273  0.0381 -0.0080
11229TIP3    H255103   6.458   1.337   5.630 -0.1412  0.4797 -0.4325
11230TIP3   OH255104   4.618   0.795   0.712  0.3505 -0.1097  0.4151
11230TIP3    H155105   4.542   0.780   0.656  0.4271  2.2261 -0.4488
11230TIP3    H255106   4.628   0.715   0.762 -1.4860 -1.2057 -0.8636
11231TIP3   OH255107   3.913   1.558  15.164  0.3255  0.1743 -0.2839
11231TIP3    H155108   3.898   1.598  15.249  0.2598 -0.6484  0.0947
11231TIP3    H255109   3.921   1.465  15.182  0.9906  0.0649 -1.0915
11232TIP3   OH255110   1.588   6.635   3.356 -0.3452  0.3764 -0.2422
11232TIP3    H155111   1.528   6.708   3.341 -0.2714  0.3238 -0.8047
11232TIP3    H255112   1.626   6.617   3.271  1.0120  0.8687  0.2391
11233TIP3   OH255113   3.181   5.527   4.792  0.4373 -0.1796  0.5981
11233TIP3    H155114   3.247   5.481   4.845 -0.0778 -0.6891  0.8066
11233TIP3    H255115   3.104   5.531   4.848  0.7126  1.7211  0.9290
11234TIP3   OH255116   3.261   2.642   2.068  0.7662 -0.1276 -0.5844
11234TIP3    H155117   3.275   2.621   1.976  1.2494  0.4222 -0.6429
11234TIP3    H255118   3.301   2.570   2.116 -0.2957 -0.8802 -0.8080
11235TIP3   OH255119   0.954   0.583  11.153  0.0694  0.1874  0.1310
11235TIP3    H155120   0.890   0.520  11.120  1.6408 -0.9617 -0.8745
11235TIP3    H255121   1.019   0.530  11.198  1.5315  1.0310 -0.8933
11236TIP3   OH255122   3.261   4.932   1.901 -0.4486 -0.5967 -0.1388
11236TIP3    H155123   3.267   4.941   1.996  1.0838  1.3368 -0.3447
11236TIP3    H255124   3.214   4.850   1.887  0.2059 -1.4623  2.2701
11237TIP3   OH255125   1.279   3.352  15.018  0.1144 -0.7560  0.2296
11237TIP3    H155126   1.185   3.345  15.005  0.2378 -1.9852 -0.1257
11237TIP3    H255127   1.317   3.307  14.942  1.0393  1.1199 -0.5128
11238TIP3   OH255128   6.861   6.638   1.115 -0.8935  0.6220 -0.2286
11238TIP3    H155129   6.951   6.660   1.140 -0.6621 -1.0378  0.5662
11238TIP3    H255130   6.862   6.635   1.020 -0.2197  1.0348 -0.2386
11239TIP3   OH255131   6.470   0.278   9.665  0.6475  0.0010  0.5585
11239TIP3    H155132   6.393   0.234   9.701  0.3634 -0.8397 -1.0142
11239TIP3    H255133   6.446   0.371   9.662  0.8959  0.2120  2.9902
11240TIP3   OH255134   4.602   3.368  13.939 -0.1454  0.0448 -0.1060
11240TIP3    H155135   4.606   3.378  14.034  0.7010 -0.7381 -0.0453
11240TIP3    H255136   4.551   3.443  13.909 -0.6670  0.1413  0.9906
11241TIP3   OH255137   5.165   0.105   3.687 -0.2711  0.1455  0.3292
11241TIP3    H155138   5.139   0.165   3.617 -0.4527  0.2563  0.4922
11241TIP3    H255139   5.163   0.158   3.767  2.7514  0.8287  0.0754
11242TIP3   OH255140   1.847   7.029   5.291 -0.0849 -0.0817  0.2090
11242TIP3    H155141   1.858   7.117   5.329 -0.7360 -0.0374  0.2989
11242TIP3    H255142   1.918   6.978   5.329  0.5344  0.4966 -0.1281
11243TIP3   OH255143   5.925   1.983   1.828  0.9105  0.0722  0.0772
11243TIP3    H155144   5.952   1.954   1.916  2.8784  0.0803 -0.4791
11243TIP3    H255145   5.830   1.988   1.833  0.8776 -1.2190  1.8258
11244TIP3   OH255146   4.195   3.113   3.510 -0.4102 -0.4590  0.1940
11244TIP3    H155147   4.106   3.132   3.537  0.0611 -0.3631  1.7554
11244TIP3    H255148   4.222   3.039   3.564  0.5026 -0.4048 -0.1579
11245TIP3   OH255149   2.737   6.276   4.786  0.7326  0.1089  0.4669
11245TIP3    H155150   2.650   6.281   4.747  0.4258 -1.2815  0.8866
11245TIP3    H255151   2.797   6.300   4.715 -0.0240  3.2395  0.7402
11246TIP3   OH255152   6.205   3.339  14.503 -0.5901  0.5430  0.0974
11246TIP3    H155153   6.167   3.379  14.425  0.9155  0.1015 -0.8936
11246TIP3    H255154   6.296   3.368  14.504 -0.4108  0.0311  1.3544
11247TIP3   OH255155   6.406   0.307  12.132 -0.0881  0.0940 -0.0407
11247TIP3    H155156   6.328   0.356  12.109  0.7476  2.2307  1.3455
11247TIP3    H255157   6.422   0.328  12.224 -0.2305 -3.6838  1.0292
11248TIP3   OH255158   1.555   3.595   0.050  0.0625  0.0331 -0.0490
11248TIP3    H155159   1.540   3.626  -0.039 -1.4413  0.0839  0.1988
11248TIP3    H255160   1.493   3.523   0.061  1.4101 -1.1003  0.3989
11249TIP3   OH255161   3.230   0.883  15.146 -0.1216  0.4856  0.3819
11249TIP3    H155162   3.172   0.959  15.139 -0.9097  0.1505  2.5953
11249TIP3    H255163   3.206   0.828  15.071 -1.4920  1.1327  0.3133
11250TIP3   OH255164   5.908   6.525   5.321  0.7010  0.3069  0.4677
11250TIP3    H155165   5.858   6.595   5.279 -0.1472  0.1004  1.1072
11250TIP3    H255166   5.859   6.506   5.402  1.4518 -0.3577  0.7774
11251TIP3   OH255167   4.599   2.655   4.802  0.1628  0.0907 -0.2526
11251TIP3    H155168   4.623   2.748   4.804  0.9905 -0.0917 -0.8982
11251TIP3    H255169   4.642   2.618   4.878 -1.7024  0.5577  1.0864
11252TIP3   OH255170   4.182   4.139   1.201 -0.3179  0.6592  0.1646
11252TIP3    H155171   4.151   4.183   1.122 -3.0917 -1.4122 -0.0687
11252TIP3    H255172   4.270   4.110   1.180  0.4366  3.2995 -0.7504
11253TIP3   OH255173   6.120   0.060  10.815 -0.1736  0.0420  0.1898
11253TIP3    H155174   6.085   0.103  10.893 -1.6431 -0.4942 -0.1564
11253TIP3    H255175   6.045   0.016  10.776  0.1461  1.6189 -2.4441
11254TIP3   OH255176   6.234   4.413   0.348 -0.0764  0.2426  0.2918
11254TIP3    H155177   6.167   4.462   0.301  1.6970  1.5942 -0.9172
11254TIP3    H255178   6.309   4.471   0.351  0.8786 -0.9868  2.1773
11255TIP3   OH255179   2.738   0.498  13.191  0.5197 -0.5323  0.5973
11255TIP3    H155180   2.778   0.412  13.203 -0.4397 -1.1061 -0.1889
11255TIP3    H255181   2.654   0.480  13.149  1.1463  0.9152 -1.4455
11256TIP3   OH255182   6.293   3.690   2.689 -0.3295 -0.5093 -0.0859
11256TIP3    H155183   6.335   3.685   2.603 -0.4714 -5.5827 -0.1529
11256TIP3    H255184   6.365   3.677   2.751 -0.5558  0.7068  0.4523
11257TIP3   OH255185   4.934   1.945  13.009 -0.1973 -0.7412  0.2044
11257TIP3    H155186   4.951   1.917  13.100 -0.4363  0.2315  0.5595
11257TIP3    H255187   4.885   2.026  13.018  1.8604  0.6978 -0.7870
11258TIP3   OH255188   5.943   2.754   4.416 -0.9856  0.4597 -0.1326
11258TIP3    H155189   5.989   2.826   4.374 -1.3513  1.1159  0.5820
11258TIP3    H255190   5.925   2.693   4.344 -1.5494  1.5374 -0.9400
11259TIP3   OH255191   3.842   3.894   3.134  0.4094  0.6366  0.2725
11259TIP3    H155192   3.933   3.884   3.161  0.4640 -2.8828 -0.6390
11259TIP3    H255193   3.846   3.918   3.042  0.6715 -2.9295 -0.8043
11260TIP3   OH255194   5.479   4.344  15.440 -0.0301 -0.1973  0.2053
11260TIP3    H155195   5.494   4.341  15.534  1.0315 -1.1697  0.0272
11260TIP3    H255196   5.548   4.289  15.403 -0.9976 -0.6045 -1.0705
11261TIP3   OH255197   6.987   5.812  11.515 -0.3442  0.0331 -0.4645
11261TIP3    H155198   6.940   5.884  11.555  1.0748  0.1588  1.0797
11261TIP3    H255199   7.054   5.853  11.461 -1.6990 -0.1499 -2.4237
11262TIP3   OH255200   6.518   4.694   5.580  0.2250  0.6802  0.0963
11262TIP3    H155201   6.432   4.723   5.611 -0.3256 -0.5748 -0.2088
11262TIP3    H255202   6.558   4.653   5.657 -0.2722 -0.5080 -0.2526
11263TIP3   OH255203   0.365   5.359   3.131  0.0177  0.0832 -0.5966
11263TIP3    H155204   0.376   5.432   3.070  1.7698 -0.7674 -1.3846
11263TIP3    H255205   0.436   5.298   3.108 -1.0975 -1.6461  0.3394
11264TIP3   OH255206   5.283   3.019   1.570 -0.5571  0.1961 -0.0832
11264TIP3    H155207   5.205   3.027   1.516 -0.9653 -3.4880 -0.2842
11264TIP3    H255208   5.259   2.957   1.639  1.5573  0.6680  1.1890
11265TIP3   OH255209   0.144   1.394  13.916  0.1821  0.0540  0.5986
11265TIP3    H155210   0.140   1.311  13.869 -2.6291 -0.4756  1.5627
11265TIP3    H255211   0.238   1.409  13.930  0.8109 -3.7072  1.6361
11266TIP3   OH255212   2.128   2.531  12.547 -0.4881  0.5432  0.6059
11266TIP3    H155213   2.046   2.508  12.504 -0.1701 -0.2356  0.4096
11266TIP3    H255214   2.103   2.596  12.613 -1.2819  0.1648  0.6840
11267TIP3   OH255215   2.115   0.785   3.677 -0.3443  0.5953  0.9706
11267TIP3    H155216   2.204   0.753   3.662 -0.6968 -0.5234  1.1036
11267TIP3    H255217   2.123   0.841   3.754  0.1433 -0.0862  1.4378
11268TIP3   OH255218   0.777   2.226   1.902 -0.0845 -0.0360  0.2838
11268TIP3    H155219   0.708   2.288   1.922  0.9222  1.2815 -0.1838
11268TIP3    H255220   0.741   2.171   1.832 -0.2531  1.3895 -0.7888
11269TIP3   OH255221   1.486   4.248   5.122  0.4840  0.3363 -0.2483
11269TIP3    H155222   1.414   4.189   5.144  1.1167  0.0300  1.1408
11269TIP3    H255223   1.449   4.336   5.135  0.4273  0.1763  0.8018
11270TIP3   OH255224   2.966   1.480   0.718  0.2230 -0.2852 -0.1025
11270TIP3    H155225   2.972   1.416   0.789 -0.7739 -0.7316 -0.4060
11270TIP3    H255226   3.058   1.500   0.697  0.5387 -0.9103  0.6224
11271TIP3   OH255227   6.529   6.913  11.854  0.4171 -0.5587  0.2495
11271TIP3    H155228   6.537   6.827  11.896  2.5314 -1.0106 -0.9215
11271TIP3    H255229   6.475   6.897  11.777  1.3805 -1.0436 -0.3521
11272TIP3   OH255230   6.384   2.877  13.992  0.2217 -0.3848  0.3748
11272TIP3    H155231   6.474   2.866  13.963  0.4838  0.0109  1.0223
11272TIP3    H255232   6.371   2.972  13.996 -0.0831 -0.4366  0.6897
11273TIP3   OH255233   3.010   3.542   9.943  0.6560  0.4596  0.3343
11273TIP3    H155234   2.915   3.534   9.935  0.5286  0.3010  1.7684
11273TIP3    H255235   3.035   3.599   9.870 -0.2789 -0.9571 -1.1750
11274TIP3   OH255236   1.348   5.998  15.404 -0.0537 -0.2067  0.0949
11274TIP3    H155237   1.343   6.088  15.437 -0.0358  0.4247 -1.5687
11274TIP3    H255238   1.411   5.955  15.463 -0.0128  0.8735  0.8707
11275TIP3   OH255239   0.730   3.902   5.139 -0.4207  0.3429  0.2866
11275TIP3    H155240   0.795   3.868   5.079  2.1113  0.7294  2.6053
11275TIP3    H255241   0.646   3.889   5.095  0.9637 -2.6273 -1.7243
11276TIP3   OH255242   1.161   5.420   4.687  0.8440 -0.1055 -0.1773
11276TIP3    H155243   1.174   5.327   4.705 -0.3004 -0.0764  0.9166
11276TIP3    H255244   1.248   5.452   4.664  1.4130 -1.2756  0.2676
11277TIP3   OH255245   3.065   3.295   5.222 -0.3041  0.2253  0.1685
11277TIP3    H155246   3.145   3.322   5.267  1.8702 -2.1407 -2.0139
11277TIP3    H255247   3.063   3.348   5.143  0.7003 -1.5930 -1.1412
11278TIP3   OH255248   4.439   6.238  12.978 -0.2844 -0.1446  0.1738
11278TIP3    H155249   4.447   6.318  12.927 -1.4455  0.2366  0.5565
11278TIP3    H255250   4.355   6.200  12.950  1.7893 -3.1729 -2.6690
11279TIP3   OH255251   6.524   0.011  12.553  0.5259 -0.9061  0.5613
11279TIP3    H155252   6.527  -0.085  12.558 -0.2070 -0.9159  1.0076
11279TIP3    H255253   6.430   0.032  12.547  0.7127 -0.2450 -0.2363
11280TIP3   OH255254   1.208   2.160  15.120 -0.9070 -0.0176  0.3893
11280TIP3    H155255   1.189   2.074  15.082  1.2839  0.4984 -2.1933
11280TIP3    H255256   1.123   2.196  15.143 -2.1541 -1.6071 -1.4556
11281TIP3   OH255257   6.366   6.316  11.635  0.1181  0.8833 -0.1937
11281TIP3    H155258   6.450   6.286  11.670 -0.1578 -0.4476 -0.6104
11281TIP3    H255259   6.359   6.274  11.550 -1.0483  0.8323 -0.0914
11282TIP3   OH255260   0.970   5.717   0.941  0.6669 -0.0093  0.2842
11282TIP3    H155261   0.994   5.808   0.926 -0.3778  0.3175  0.4949
11282TIP3    H255262   1.041   5.666   0.902  1.1263  0.8890 -0.0708
11283TIP3   OH255263   4.894   0.377  11.724  0.3327 -0.3056 -0.1965
11283TIP3    H155264   4.969   0.432  11.744  0.4455 -1.2436  2.2481
11283TIP3    H255265   4.852   0.420  11.650  1.0785  2.4108  0.8549
11284TIP3   OH255266   0.206   0.160   0.840 -0.3337  0.2348 -0.2355
11284TIP3    H155267   0.142   0.208   0.893  0.9701 -0.3481  1.9938
11284TIP3    H255268   0.270   0.128   0.903  1.5451 -0.2015 -2.2425
11285TIP3   OH255269   3.985   3.168  13.669 -0.0581  0.0366  0.2185
11285TIP3    H155270   4.071   3.143  13.636  1.2469  2.9093  1.1764
11285TIP3    H255271   3.975   3.117  13.750 -0.5703 -2.3662 -1.2519
11286TIP3   OH255272   3.429   1.169  14.133  0.1663  0.7936 -0.2196
11286TIP3    H155273   3.508   1.120  14.110 -1.5435 -2.3803  0.1858
11286TIP3    H255274   3.393   1.196  14.049  1.1918  1.5524 -0.4460
11287TIP3   OH255275   0.448   3.383  12.005  0.0773  0.6135 -0.3212
11287TIP3    H155276   0.367   3.348  11.969  1.0412 -0.7679 -1.2613
11287TIP3    H255277   0.437   3.478  12.001 -1.3050  0.4587 -0.8205
11288TIP3   OH255278   6.009   4.698  14.443  0.3653  0.4131  0.1507
11288TIP3    H155279   6.007   4.673  14.536 -2.0122 -0.4421 -0.0534
11288TIP3    H255280   6.009   4.794  14.444 -0.9494  0.4356  1.0956
11289TIP3   OH255281   3.498   5.293   0.121 -0.3896 -0.1038 -0.2423
11289TIP3    H155282   3.402   5.295   0.116 -0.4337  1.4124  0.6663
11289TIP3    H255283   3.527   5.335   0.040 -0.4306 -1.7353 -1.1446
11290TIP3   OH255284   5.084   6.258  13.397 -0.2407  0.0284 -0.1359
11290TIP3    H155285   5.001   6.277  13.354  0.6941  2.0084 -1.2137
11290TIP3    H255286   5.070   6.285  13.488 -0.6974  0.6130 -0.3741
11291TIP3   OH255287   0.868   4.671  10.987  0.5103 -0.1361  0.5216
11291TIP3    H155288   0.959   4.673  11.017  0.8852 -0.1508 -0.5752
11291TIP3    H255289   0.848   4.762  10.965  0.7053 -0.3316 -0.5067
11292TIP3   OH255290   4.399   1.837  11.716 -0.5419  0.0786  0.6473
11292TIP3    H155291   4.407   1.852  11.810  0.6842  1.1069  0.4094
11292TIP3    H255292   4.476   1.786  11.693 -0.1620  0.9135  0.0083
11293TIP3   OH255293   2.831   3.841  11.207 -0.4404 -0.0873 -0.0249
11293TIP3    H155294   2.822   3.926  11.162 -0.1489  0.1058  0.2828
11293TIP3    H255295   2.924   3.832  11.223 -0.7636  1.3924  3.5026
11294TIP3   OH255296   0.500   5.424   3.445 -0.4136 -0.1198  0.6014
11294TIP3    H155297   0.489   5.329   3.444  0.1322 -0.1827 -0.3952
11294TIP3    H255298   0.529   5.444   3.533 -0.6634 -0.8621  0.8592
11295TIP3   OH255299   5.674   3.531   5.546 -0.2503 -0.2429  0.1155
11295TIP3    H155300   5.703   3.463   5.607  1.5428  1.3161  1.1295
11295TIP3    H255301   5.684   3.613   5.596  0.3014  1.0098 -1.9498
11296TIP3   OH255302   2.344   2.866   4.699 -0.4106 -0.8706 -0.6173
11296TIP3    H155303   2.304   2.818   4.627 -0.7743  1.2096 -1.8822
11296TIP3    H255304   2.336   2.958   4.674  1.3367 -0.1810  1.1173
11297TIP3   OH255305   3.069   3.203   5.708 -0.5412  0.1583 -0.0318
11297TIP3    H155306   3.010   3.203   5.783  0.0936  0.7166  0.4811
11297TIP3    H255307   3.151   3.238   5.743 -0.6603  1.7926 -1.3239
11298TIP3   OH255308   0.422   5.751   6.043  0.2248 -0.6395  0.1669
11298TIP3    H155309   0.411   5.843   6.018  0.2857 -0.8514 -0.6534
11298TIP3    H255310   0.515   5.734   6.028  0.5607 -0.4148  1.7934
11299TIP3   OH255311   3.245   1.291  15.483 -0.2268  0.1761 -0.5881
11299TIP3    H155312   3.189   1.338  15.422 -0.1409 -0.5480 -1.2396
11299TIP3    H255313   3.326   1.275  15.434  1.0406  2.1661  0.6757
11300TIP3   OH255314   3.943   3.009   4.007  0.5127 -0.1263 -0.4086
11300TIP3    H155315   3.890   2.978   4.080  1.1048 -2.1310 -0.7707
11300TIP3    H255316   3.894   3.082   3.970 -1.6333 -1.4483 -0.2982
11301TIP3   OH255317   4.964   2.412   9.901 -0.5149  0.1845 -0.2280
11301TIP3    H155318   5.048   2.424   9.945  0.6607  0.6185 -2.4474
11301TIP3    H255319   4.959   2.318   9.884 -0.4252  0.1752 -0.2025
11302TIP3   OH255320   1.305   0.941  15.160  0.0296  0.3474  0.1720
11302TIP3    H155321   1.335   0.855  15.131 -0.0314  0.5299 -0.4532
11302TIP3    H255322   1.324   0.943  15.254 -1.2663 -0.8963  0.4937
11303TIP3   OH255323   0.374   3.978   0.656 -0.1617 -0.5390  0.2520
11303TIP3    H155324   0.420   3.908   0.609  1.8562  0.8969 -0.0321
11303TIP3    H255325   0.331   3.933   0.729  0.1049 -2.2112 -0.5625
11304TIP3   OH255326   2.976   2.350   3.415 -0.0517  0.0477  0.1218
11304TIP3    H155327   2.945   2.289   3.348  0.7969  0.1406 -0.3747
11304TIP3    H255328   3.040   2.300   3.466 -0.9156 -0.1149  1.0761
11305TIP3   OH255329   6.355   2.218  14.668  0.7948  0.3792 -0.8878
11305TIP3    H155330   6.374   2.310  14.653 -0.8868  1.0414  0.7329
11305TIP3    H255331   6.376   2.204  14.760 -0.1243 -0.5318 -0.7985
11306TIP3   OH255332   0.884   5.119  13.361  0.3732 -0.2442 -0.5172
11306TIP3    H155333   0.888   5.142  13.454 -0.3445 -1.0429 -0.2681
11306TIP3    H255334   0.851   5.029  13.360 -0.5500  0.0786 -1.5765
11307TIP3   OH255335   2.175   0.801  13.128  0.2634  0.3990  0.0026
11307TIP3    H155336   2.093   0.833  13.165 -0.1890  0.0710 -0.7038
11307TIP3    H255337   2.233   0.790  13.204 -0.0220  1.5397  0.4119
11308TIP3   OH255338   4.586   3.947   2.631  0.0855 -0.3404  0.1246
11308TIP3    H155339   4.516   3.936   2.695  1.8101 -0.2866  2.1650
11308TIP3    H255340   4.563   4.026   2.583 -0.9723 -0.0204  1.1200
11309TIP3   OH255341   3.310   2.407  12.704  0.2793 -0.2361 -0.3156
11309TIP3    H155342   3.243   2.473  12.687  0.6192  0.2544  0.2246
11309TIP3    H255343   3.279   2.361  12.782  0.5632 -0.0095 -0.0664
11310TIP3   OH255344   6.106   2.757   3.460  0.4301  0.1602  0.5059
11310TIP3    H155345   6.059   2.827   3.415  0.0828 -0.7850 -0.6521
11310TIP3    H255346   6.068   2.755   3.547  1.2289  2.1439  0.9532
11311TIP3   OH255347   7.074   6.631  10.511 -0.1391  0.1485 -0.0031
11311TIP3    H155348   7.039   6.629  10.600  1.3092 -0.0931  0.5893
11311TIP3    H255349   6.997   6.640  10.455 -1.0860  0.1748  1.2628
11312TIP3   OH255350   6.391   6.961  15.199  0.5810 -0.9117  1.0262
11312TIP3    H155351   6.407   7.028  15.132  1.1228 -0.5029  1.5520
11312TIP3    H255352   6.478   6.925  15.218  0.4283 -1.0477  1.4762
11313TIP3   OH255353   2.085   2.280  13.424 -0.0240  0.7116 -0.0612
11313TIP3    H155354   2.071   2.331  13.343 -1.1729 -0.2311 -0.4829
11313TIP3    H255355   2.023   2.318  13.486 -2.8322 -1.7346 -1.1388
11314TIP3   OH255356   5.836   3.004   0.334 -0.8064  0.4061  0.3113
11314TIP3    H155357   5.900   3.043   0.394 -0.3400  0.0669  0.0443
11314TIP3    H255358   5.841   3.057   0.255  1.0472 -1.1396 -0.6841
11315TIP3   OH255359   6.976   7.035   4.706  0.3024  0.1463  0.6851
11315TIP3    H155360   6.904   7.082   4.748 -0.7518 -1.2617  0.5248
11315TIP3    H255361   6.951   7.029   4.614  1.0531  0.3931  0.4525
11316TIP3   OH255362   2.112   1.217   5.503 -0.8934 -0.4243 -0.2408
11316TIP3    H155363   2.078   1.296   5.461 -0.5598  0.0143  0.3023
11316TIP3    H255364   2.101   1.232   5.597 -1.3533 -1.2678 -0.1488
11317TIP3   OH255365   1.379   4.079  11.511 -0.2770  0.1792  0.2246
11317TIP3    H155366   1.387   3.991  11.474 -1.2667  0.1120  0.1460
11317TIP3    H255367   1.340   4.066  11.597 -1.4843  0.6129 -0.2396
11318TIP3   OH255368   4.267   0.411  13.178 -0.8098  0.2889 -0.0242
11318TIP3    H155369   4.237   0.481  13.236 -0.8725 -0.6071  1.0483
11318TIP3    H255370   4.197   0.346  13.180 -0.2993 -0.2743 -0.1900
11319TIP3   OH255371   2.111   6.532  14.017  0.0564 -0.4034  0.1056
11319TIP3    H155372   2.018   6.551  14.005  0.1551 -0.8226 -1.6048
11319TIP3    H255373   2.132   6.567  14.103 -1.9892 -1.5346  1.1304
11320TIP3   OH255374   6.015   6.657  12.885  0.1754 -0.4360 -0.2356
11320TIP3    H155375   5.959   6.721  12.929  2.4279  1.0398  0.6074
11320TIP3    H255376   5.958   6.618  12.819 -2.0136  0.5436  0.9545
11321TIP3   OH255377   1.023   5.965  10.132  0.0656 -0.0973  0.1086
11321TIP3    H155378   1.079   5.930  10.063 -0.8644  0.9861 -1.2677
11321TIP3    H255379   1.072   5.952  10.213  2.6270  1.3848 -1.0954
11322TIP3   OH255380   5.769   1.459   4.104  0.6488  0.0659  0.4688
11322TIP3    H155381   5.726   1.394   4.160  2.2591 -0.7689  0.7834
11322TIP3    H255382   5.743   1.543   4.142  0.6582 -0.4530  1.6780
11323TIP3   OH255383   5.176   5.674   5.541 -0.1136 -0.2886 -0.1906
11323TIP3    H155384   5.197   5.643   5.629 -0.7597  0.7770  0.3645
11323TIP3    H255385   5.248   5.732   5.518  0.5292 -1.2860 -0.7696
11324TIP3   OH255386   4.050   6.334  11.201 -0.3664  0.2383  0.0725
11324TIP3    H155387   4.098   6.386  11.137  0.7391 -1.1795 -0.3023
11324TIP3    H255388   3.987   6.284  11.149  1.1418 -1.5979 -0.0983
11325TIP3   OH255389   0.543   3.652   3.021  0.6285 -0.1685 -0.0903
11325TIP3    H155390   0.559   3.574   2.968  1.9587 -1.6609  2.3159
11325TIP3    H255391   0.560   3.624   3.111 -0.0068  2.6195  1.0115
11326TIP3   OH255392   1.869   5.858   1.806 -0.1589  0.3293 -0.3075
11326TIP3    H155393   1.858   5.791   1.874  2.0465  0.3047  0.1177
11326TIP3    H255394   1.942   5.826   1.753 -0.2349  1.5558 -1.1978
11327TIP3   OH255395   3.160   0.597  13.306  0.0969 -0.4856  0.3319
11327TIP3    H155396   3.083   0.630  13.354  1.8226  1.8828  1.6466
11327TIP3    H255397   3.202   0.537  13.368  0.6496  0.1933  0.6315
11328TIP3   OH255398   0.304   0.364  14.845  0.3652  0.1735  0.0199
11328TIP3    H155399   0.330   0.273  14.845  1.0179  0.3439  0.9921
11328TIP3    H255400   0.249   0.373  14.923 -2.1052 -0.0176 -1.5801
11329TIP3   OH255401   1.792   6.652  15.159  0.1978 -0.7474  0.4069
11329TIP3    H155402   1.814   6.745  15.149 -0.6545 -0.5085  0.7495
11329TIP3    H255403   1.830   6.611  15.081 -0.6306  0.1021 -0.4676
11330TIP3   OH255404   0.186   5.206   0.975 -0.0279  0.1095 -0.7922
11330TIP3    H155405   0.214   5.271   0.911  0.9684  1.4007  0.8763
11330TIP3    H255406   0.213   5.242   1.060  0.3932 -2.3858  0.2202
11331TIP3   OH255407   0.309   0.070  14.426  0.0226  0.4965 -0.0035
11331TIP3    H155408   0.233   0.086  14.371 -0.4509  0.8891  0.7520
11331TIP3    H255409   0.371   0.139  14.401 -0.4622  1.1072  0.4324
11332TIP3   OH255410   0.089   3.608   4.830 -0.2471  0.1227 -0.0136
11332TIP3    H155411   0.116   3.572   4.746 -1.7182  0.0724 -0.4849
11332TIP3    H255412   0.000   3.642   4.816  0.3699  2.3466  0.8712
11333TIP3   OH255413   1.853   2.018   2.457  0.1804  0.1954  0.2053
11333TIP3    H155414   1.904   1.964   2.398 -2.4245 -2.7142  0.3968
11333TIP3    H255415   1.791   2.065   2.401  0.2799  0.4723  0.3222
11334TIP3   OH255416   1.959   3.269  14.341 -0.3524 -0.3865 -0.0353
11334TIP3    H155417   1.966   3.189  14.394 -2.0050 -0.5920 -0.0569
11334TIP3    H255418   2.046   3.307  14.344 -0.0164 -1.1570  1.6203
11335TIP3   OH255419   1.345   6.434  14.344  0.3091  0.3343 -0.0782
11335TIP3    H155420   1.384   6.373  14.408  0.6066 -0.4000 -0.9401
11335TIP3    H255421   1.346   6.519  14.389  2.6382  0.3012  0.0681
11336TIP3   OH255422   2.966   1.559   2.720 -0.2453 -0.1841  0.6246
11336TIP3    H155423   3.016   1.514   2.787 -0.9862 -0.1049  1.2511
11336TIP3    H255424   2.891   1.596   2.767  0.0572  1.2510  0.0454
11337TIP3   OH255425   3.610   4.133   2.963 -0.3156 -0.5709 -0.1773
11337TIP3    H155426   3.582   4.057   3.014  0.4477 -0.2484  0.7613
11337TIP3    H255427   3.548   4.202   2.989 -0.3081 -0.5683 -0.1670
11338TIP3   OH255428   3.609   5.130   2.198  0.0361 -0.3614  0.8864
11338TIP3    H155429   3.601   5.222   2.175 -0.5291 -0.3695  1.0405
11338TIP3    H255430   3.702   5.110   2.187  0.3158  0.4532  1.7358
11339TIP3   OH255431   2.312   4.057  15.305 -0.1719 -0.3841  0.0909
11339TIP3    H155432   2.245   3.996  15.335 -0.5984  0.6785  1.4231
11339TIP3    H255433   2.272   4.144  15.315  1.6106  0.3402  1.6121
11340TIP3   OH255434   6.562   3.148   0.559 -0.2271 -0.3361  0.1645
11340TIP3    H155435   6.560   3.241   0.536  2.4185 -0.1611  0.2529
11340TIP3    H255436   6.493   3.109   0.506 -0.0976  1.3977 -1.4247
11341TIP3   OH255437   4.412   1.929  13.410 -0.0308 -0.1195 -1.0539
11341TIP3    H155438   4.380   2.016  13.436 -1.7190 -0.7899 -0.7979
11341TIP3    H255439   4.506   1.932  13.431 -0.1845  1.4050 -0.4103
11342TIP3   OH255440   0.467   6.059  15.079  0.3206  0.4119  0.2072
11342TIP3    H155441   0.556   6.050  15.046  0.5498  0.6899  0.7475
11342TIP3    H255442   0.416   5.997  15.026  0.1867  2.5874 -2.4523
11343TIP3   OH255443   5.974   3.700  15.244 -0.0268 -0.4684  0.7420
11343TIP3    H155444   6.060   3.741  15.257  0.5469 -0.3413 -2.6458
11343TIP3    H255445   5.993   3.606  15.243  0.2449 -0.4204 -0.6733
11344TIP3   OH255446   5.596   7.061   3.897  0.1266  0.3433 -0.2229
11344TIP3    H155447   5.585   6.968   3.875  2.6056  0.1543 -0.9100
11344TIP3    H255448   5.508   7.098   3.887 -0.7604 -1.7546 -0.7711
11345TIP3   OH255449   6.615   5.534   3.542  0.3293 -0.4552  0.2570
11345TIP3    H155450   6.606   5.587   3.621 -1.2542  0.2501 -0.3533
11345TIP3    H255451   6.709   5.532   3.524  0.4337  2.5746  0.0305
11346TIP3   OH255452   0.080   2.961   5.825 -0.3821  0.1705  0.3586
11346TIP3    H155453   0.010   2.942   5.888 -0.4611 -1.7829 -0.2719
11346TIP3    H255454   0.117   2.876   5.804  2.1252  1.1488  0.5542
11347TIP3   OH255455   2.942   0.640  14.418  0.0426 -0.1980 -0.0641
11347TIP3    H155456   2.984   0.658  14.502  2.1056 -0.1169 -1.0623
11347TIP3    H255457   2.861   0.691  14.421  0.7957  1.0068  1.2840
11348TIP3   OH255458   3.647   4.873  11.400  0.3940  0.1405  0.4718
11348TIP3    H155459   3.651   4.939  11.330  0.5086  0.9641  1.2252
11348TIP3    H255460   3.554   4.852  11.407  0.2031  1.0594  0.9487
11349TIP3   OH255461   6.595   4.802  15.103 -0.0794  0.2911  0.0617
11349TIP3    H155462   6.624   4.843  15.184  0.7888  0.0345 -0.1084
11349TIP3    H255463   6.608   4.869  15.035  2.4223 -0.5591 -0.4090
11350TIP3   OH255464   6.316   5.496  12.830  0.2389  0.8045 -0.1732
11350TIP3    H155465   6.352   5.417  12.870 -0.6260  2.3414  4.0658
11350TIP3    H255466   6.242   5.465  12.778  0.1835 -1.2398  1.0321
11351TIP3   OH255467   2.613   2.050  14.562  0.1801  0.4836 -0.5902
11351TIP3    H155468   2.644   2.107  14.632 -0.2401  0.0442 -0.0398
11351TIP3    H255469   2.690   1.999  14.537  0.1714  0.1593  0.0255
11352TIP3   OH255470   3.291   5.291   4.932  0.3383  0.1773 -0.1681
11352TIP3    H155471   3.372   5.311   4.979 -0.6489  0.3909  1.5293
11352TIP3    H255472   3.308   5.206   4.891  0.9793 -0.4293  1.2709
11353TIP3   OH255473   3.000   4.589   5.498 -1.0528 -0.0069  0.5715
11353TIP3    H155474   3.082   4.571   5.543 -0.4297  0.1783 -0.4542
11353TIP3    H255475   2.995   4.522   5.429 -2.1211 -0.4620  1.0659
11354TIP3   OH255476   0.430   5.035  14.225 -0.3571  0.1138  0.6550
11354TIP3    H155477   0.458   4.943  14.218  1.2702  0.6487 -0.1813
11354TIP3    H255478   0.370   5.035  14.300 -0.1301 -1.5666  0.8891
11355TIP3   OH255479   3.128   0.228   4.784  0.1378  0.7385 -0.3253
11355TIP3    H155480   3.112   0.186   4.869  1.3956  0.8336 -0.0323
11355TIP3    H255481   3.220   0.254   4.786  0.6285 -0.5651 -2.2730
11356TIP3   OH255482   3.829   6.773   0.978 -0.9515 -0.4433 -0.2347
11356TIP3    H155483   3.735   6.775   0.957 -1.1315  1.4571  0.5943
11356TIP3    H255484   3.832   6.765   1.073 -0.2376 -1.2861 -0.3163
11357TIP3   OH255485   6.879   0.425   3.807 -0.6368  0.2855 -0.3911
11357TIP3    H155486   6.937   0.412   3.882  1.0587 -1.1553 -1.8709
11357TIP3    H255487   6.877   0.520   3.795  4.2904  0.4252 -2.2462
11358TIP3   OH255488   4.468   3.849   5.224  0.4990  0.6745 -0.4794
11358TIP3    H155489   4.373   3.861   5.229  0.0407 -2.0867 -0.9854
11358TIP3    H255490   4.494   3.824   5.313  0.5576  0.2874 -0.6047
11359TIP3   OH255491   2.552   5.661   4.090  0.1358  0.2142 -0.1793
11359TIP3    H155492   2.558   5.745   4.135  1.3067 -1.1629  2.4664
11359TIP3    H255493   2.642   5.641   4.065 -0.5085  1.1028 -3.7422
11360TIP3   OH255494   3.199   3.631  11.367 -0.2918  0.1604 -0.0728
11360TIP3    H155495   3.226   3.566  11.432 -0.3311  1.4788  1.3205
11360TIP3    H255496   3.276   3.643  11.312  0.1612 -0.0833  0.4955
11361TIP3   OH255497   4.448   4.282  11.592  0.2333  0.4303 -0.0334
11361TIP3    H155498   4.451   4.367  11.547  1.2229  0.6804  0.4720
11361TIP3    H255499   4.535   4.273  11.631 -0.8307  0.6645  2.6165
11362TIP3   OH255500   1.847   0.756   5.715 -0.1090  0.5121  0.5141
11362TIP3    H155501   1.880   0.809   5.788  1.3180  0.6220 -0.1868
11362TIP3    H255502   1.761   0.794   5.695 -0.0213  1.2030  1.3959
11363TIP3   OH255503   4.653   7.131   3.713  0.5036 -0.0212 -0.3170
11363TIP3    H155504   4.648   7.049   3.761  0.1153  1.0369  1.5482
11363TIP3    H255505   4.733   7.174   3.746  0.7764  0.3046 -1.3562
11364TIP3   OH255506   3.209   0.634   0.877  0.8734 -0.1134 -0.8328
11364TIP3    H155507   3.116   0.608   0.877  0.8178  0.0133 -2.2687
11364TIP3    H255508   3.208   0.729   0.866  1.1823 -0.1611 -1.2869
11365TIP3   OH255509   1.901   5.832   4.950 -0.3963  0.0384 -0.2293
11365TIP3    H155510   1.838   5.783   4.897 -0.6224 -0.5929  0.6069
11365TIP3    H255511   1.847   5.885   5.009 -0.1498  0.2933 -0.2328
11366TIP3   OH255512   4.517   4.920   1.160 -0.2911 -0.0825  0.0646
11366TIP3    H155513   4.548   4.846   1.213 -0.8382  1.6147  2.9662
11366TIP3    H255514   4.587   4.935   1.097 -0.5337 -3.5496 -1.2885
11367TIP3   OH255515   6.385   0.148  14.115  0.4578  0.1353  0.1366
11367TIP3    H155516   6.309   0.206  14.102  0.6676  0.4625  0.3454
11367TIP3    H255517   6.451   0.205  14.155  1.1016  0.0655 -0.8106
11368TIP3   OH255518   2.946   0.949  14.893 -0.1224 -0.0998  0.2669
11368TIP3    H155519   2.930   0.858  14.922  0.1091  0.1365  1.1786
11368TIP3    H255520   2.884   1.001  14.945 -0.0620  0.2888 -0.0522
11369TIP3   OH255521   4.036   6.980   1.686 -0.5284 -0.5933 -0.3507
11369TIP3    H155522   4.072   6.893   1.668  1.7128  0.3361 -0.7001
11369TIP3    H255523   4.111   7.039   1.680 -2.2160  1.5948 -1.6016
11370TIP3   OH255524   1.552   5.499  12.970  0.5130  0.5726 -0.0425
11370TIP3    H155525   1.460   5.475  12.957  0.7778  0.1888 -1.3504
11370TIP3    H255526   1.553   5.545  13.054 -0.5537 -1.1726  0.9954
11371TIP3   OH255527   6.714   3.506  12.581  0.1404  0.3215 -0.3690
11371TIP3    H155528   6.747   3.452  12.652 -1.6504  0.6668  0.7917
11371TIP3    H255529   6.642   3.455  12.543 -0.3570  1.0901 -0.4827
11372TIP3   OH255530   2.452   0.467   0.484  0.3605 -0.3322 -0.0210
11372TIP3    H155531   2.415   0.495   0.567 -2.4365 -2.6874 -0.2998
11372TIP3    H255532   2.524   0.409   0.508  2.1018  1.9224  0.5850
11373TIP3   OH255533   3.613   0.847   1.689  0.0690 -0.4415  0.2101
11373TIP3    H155534   3.568   0.893   1.618  0.1704 -0.9304 -0.1731
11373TIP3    H255535   3.679   0.794   1.646  0.3728 -0.4688  0.7016
11374TIP3   OH255536   2.112   5.156  11.917  0.6515  0.0462 -0.2702
11374TIP3    H155537   2.035   5.190  11.963 -0.4356  1.2548 -2.8109
11374TIP3    H255538   2.182   5.216  11.941 -0.3227  1.7914 -1.4914
11375TIP3   OH255539   0.885   3.340   1.293  0.5620 -0.6085  0.2766
11375TIP3    H155540   0.865   3.368   1.382 -0.9689 -0.8539  0.0349
11375TIP3    H255541   0.874   3.245   1.294  0.1721 -0.5757 -0.2518
11376TIP3   OH255542   1.388   3.287  11.372  0.1552 -0.5019  0.3107
11376TIP3    H155543   1.409   3.277  11.279 -0.6395 -0.6516  0.1434
11376TIP3    H255544   1.473   3.301  11.414  0.5463 -0.6822 -0.4024
11377TIP3   OH255545   6.383   3.873   2.231 -0.7415  0.4278  0.1829
11377TIP3    H155546   6.468   3.854   2.190 -0.1930  0.9736  1.0235
11377TIP3    H255547   6.338   3.929   2.167 -1.2311 -1.2917 -1.0567
11378TIP3   OH255548   6.276   0.795   5.120  0.1295  0.3077  0.5001
11378TIP3    H155549   6.363   0.801   5.158  0.9042 -1.8179 -0.7877
11378TIP3    H255550   6.244   0.708   5.144 -1.7850  1.1268  1.1643
11379TIP3   OH255551   2.459   0.271  12.088  0.5951 -0.2056 -0.0955
11379TIP3    H155552   2.457   0.355  12.134  1.5751 -0.0561 -0.3221
11379TIP3    H255553   2.367   0.253  12.068  0.2455  0.2055  1.0473
11380TIP3   OH255554   1.759   4.443   1.822 -0.0511  0.0081  0.1506
11380TIP3    H155555   1.735   4.351   1.832 -0.8983  0.0500 -1.2394
11380TIP3    H255556   1.684   4.492   1.858  0.7303  0.1879  1.6147
11381TIP3   OH255557   1.891   6.762  11.907 -0.1643 -0.3084 -0.5497
11381TIP3    H155558   1.874   6.741  11.999  0.6182  0.7460 -0.1385
11381TIP3    H255559   1.929   6.850  11.909 -1.5197  0.3693 -2.0209
11382TIP3   OH255560   5.843   4.340  13.852  0.0500  0.1105  0.0152
11382TIP3    H155561   5.839   4.288  13.932 -2.5396 -0.5101 -0.4317
11382TIP3    H255562   5.873   4.427  13.880 -1.2276  0.0324  1.7312
11383TIP3   OH255563   5.244   6.392   1.962 -0.3694 -0.2934  0.1534
11383TIP3    H155564   5.303   6.421   2.031 -0.7493 -0.3353  0.5023
11383TIP3    H255565   5.181   6.464   1.953 -1.1206 -0.8529  0.7948
11384TIP3   OH255566   2.591   2.956  10.875  0.3731 -0.0507 -0.4791
11384TIP3    H155567   2.636   2.909  10.945  2.5591  2.4654 -0.0364
11384TIP3    H255568   2.530   2.892  10.839  0.5303 -2.0408  2.4285
11385TIP3   OH255569   0.107   1.097   5.138  0.3268 -0.2779 -0.1562
11385TIP3    H155570   0.025   1.110   5.090  0.9613 -1.9892 -1.8452
11385TIP3    H255571   0.153   1.181   5.130 -1.5733  0.9953  1.5850
11386TIP3   OH255572   0.042   3.893   1.602  0.2480  0.4952  0.1119
11386TIP3    H155573   0.088   3.819   1.562  0.9229  0.0350  1.6508
11386TIP3    H255574   0.040   3.960   1.534 -0.8042 -1.0752 -1.5033
11387TIP3   OH255575   0.010   5.879   0.406 -0.3964  0.8128  0.6564
11387TIP3    H155576  -0.010   5.850   0.317  0.2993  1.0272  0.4238
11387TIP3    H255577   0.052   5.804   0.448  1.0520  1.3232  0.1764
11388TIP3   OH255578   1.467   1.939  10.102 -0.0812  0.2617  0.2673
11388TIP3    H155579   1.510   1.884  10.037  1.4702 -0.8942  2.1692
11388TIP3    H255580   1.375   1.941  10.075  0.1077 -2.0017 -0.7254
11389TIP3   OH255581   4.530   1.014  13.751 -0.4698  0.9284 -0.3554
11389TIP3    H155582   4.623   0.993  13.751 -0.7685 -0.5147  0.2241
11389TIP3    H255583   4.527   1.110  13.745  1.0774  1.0994  0.9182
11390TIP3   OH255584   1.836   1.165   4.803  0.3034 -0.1451  0.1649
11390TIP3    H155585   1.755   1.200   4.766  0.0285 -0.9061  0.0339
11390TIP3    H255586   1.836   1.197   4.894  0.3036  0.5911 -0.0878
11391TIP3   OH255587   6.959   2.887   5.794 -0.1744  0.1269  0.4973
11391TIP3    H155588   6.870   2.852   5.805 -0.6705  0.9247 -0.7329
11391TIP3    H255589   7.003   2.823   5.738  0.0956 -0.3721  1.2757
11392TIP3   OH255590   0.352   3.274   4.998  0.4211  0.2447 -0.2943
11392TIP3    H155591   0.416   3.208   4.972  1.4013  1.7989 -2.0307
11392TIP3    H255592   0.274   3.255   4.946  0.4418  0.0196 -0.2424
11393TIP3   OH255593   6.329   5.265   4.996 -0.3483 -0.2228  0.3490
11393TIP3    H155594   6.361   5.209   4.925  0.5004 -0.1314  0.6465
11393TIP3    H255595   6.397   5.260   5.063 -1.9384 -1.7726  1.9690
11394TIP3   OH255596   1.584   5.851  11.358 -0.8529 -0.3167 -0.2881
11394TIP3    H155597   1.662   5.889  11.317 -0.7129  1.3552  1.3924
11394TIP3    H255598   1.594   5.869  11.451 -1.1821 -3.9041  0.5974
11395TIP3   OH255599   1.856   1.836   4.826 -0.3730  0.1255  0.1939
11395TIP3    H155600   1.879   1.760   4.772 -1.9714  0.4492 -1.0266
11395TIP3    H255601   1.858   1.910   4.765 -1.8246  0.5774  0.6570
11396TIP3   OH255602   4.856   1.757   3.625  0.5199  0.2476  0.5842
11396TIP3    H155603   4.831   1.779   3.535 -1.0076 -0.7946  0.7193
11396TIP3    H255604   4.849   1.839   3.673 -1.6663  0.2465  0.3639
11397TIP3   OH255605   3.461   0.694  14.950 -0.4705 -0.3156  0.1182
11397TIP3    H155606   3.463   0.710  15.044  1.1172  0.0843  0.0377
11397TIP3    H255607   3.423   0.774  14.913 -0.8645 -0.3723  0.3968
11398TIP3   OH255608   4.100   4.589   4.869 -0.4048  0.3033 -0.2925
11398TIP3    H155609   4.180   4.619   4.912 -0.1864  0.1295 -0.5833
11398TIP3    H255610   4.126   4.511   4.820 -0.1346  1.7377 -2.5855
11399TIP3   OH255611   6.807   4.055   2.538  0.1118 -0.2285 -0.0879
11399TIP3    H155612   6.813   4.146   2.565  1.5722  0.0783 -1.3198
11399TIP3    H255613   6.884   4.013   2.576  0.4548 -0.5098 -1.0521
11400TIP3   OH255614   4.774   5.079  11.126  0.1607  0.0639  0.3498
11400TIP3    H155615   4.779   5.161  11.077  0.3181  0.3476  0.8299
11400TIP3    H255616   4.826   5.095  11.205  0.0912 -0.4560  0.5070
11401TIP3   OH255617   1.094   1.024   5.282 -0.2737  0.3520 -0.1820
11401TIP3    H155618   1.048   1.056   5.359 -2.0174  0.3469 -1.1492
11401TIP3    H255619   1.186   1.042   5.299 -0.7729  1.8517  1.1751
11402TIP3   OH255620   2.349   3.726   2.152 -0.3521  0.4393  0.8519
11402TIP3    H155621   2.281   3.787   2.181 -0.0054 -0.1020  2.9965
11402TIP3    H255622   2.430   3.777   2.156 -0.3187  0.3953  0.7261
11403TIP3   OH255623   1.995   0.935   5.863 -0.3743 -1.1334 -0.3652
11403TIP3    H155624   2.089   0.926   5.879  0.0461  1.2768 -1.1219
11403TIP3    H255625   1.969   1.011   5.914 -2.2646 -2.5382  0.9030
11404TIP3   OH255626   5.876   5.648   2.541 -0.0774 -0.4409 -0.1064
11404TIP3    H155627   5.849   5.739   2.549  2.4289  0.2639  1.5147
11404TIP3    H255628   5.921   5.643   2.456  2.0082  0.5596  0.8710
11405TIP3   OH255629   4.525   2.939   2.749 -0.0851  0.2474 -0.3389
11405TIP3    H155630   4.530   3.028   2.782  0.5652  0.1347 -0.1087
11405TIP3    H255631   4.563   2.885   2.819 -0.0004 -0.1489 -0.6819
11406TIP3   OH255632   6.337   2.802   4.658 -0.6271  0.3168 -0.1444
11406TIP3    H155633   6.256   2.796   4.709 -0.0736  1.0930  0.8640
11406TIP3    H255634   6.374   2.714   4.662 -0.5728  0.3741  0.8430
11407TIP3   OH255635   2.576   7.005  13.995  0.2151 -0.1184 -0.3394
11407TIP3    H155636   2.495   7.011  13.944  0.4179 -0.0175 -0.6523
11407TIP3    H255637   2.619   6.926  13.963 -0.0697 -0.5345  0.2877
11408TIP3   OH255638   6.538   3.682   0.664 -0.0203 -0.1191  0.3819
11408TIP3    H155639   6.592   3.707   0.590 -0.9307 -0.8472 -0.5592
11408TIP3    H255640   6.600   3.657   0.733  0.8328  0.7810 -0.0443
11409TIP3   OH255641   4.248   3.784  15.464  0.4560 -0.1137 -0.1756
11409TIP3    H155642   4.286   3.736  15.391 -0.4259  0.7302 -1.2200
11409TIP3    H255643   4.156   3.794  15.441  0.5459  1.8171  0.1297
11410TIP3   OH255644   5.385   6.880   9.892 -0.4003  0.2744 -0.9501
11410TIP3    H155645   5.457   6.942   9.896  0.1317 -0.2937 -1.4320
11410TIP3    H255646   5.368   6.856   9.983  1.1618 -0.8563 -0.9071
11411TIP3   OH255647   6.527   4.091   9.556  0.3687 -0.4259 -0.6570
11411TIP3    H155648   6.620   4.087   9.581  0.5990 -0.8138 -1.5428
11411TIP3    H255649   6.516   4.020   9.492 -0.7875 -1.0414  0.1941
11412TIP3   OH255650   4.654   4.064  14.934  0.2875  0.0265  0.4883
11412TIP3    H155651   4.748   4.070  14.951  0.1337 -1.5536  2.1532
11412TIP3    H255652   4.613   4.106  15.010 -0.3703 -0.2892  0.3119
11413TIP3   OH255653   2.910   6.665   2.222 -0.3404 -0.2050  0.6307
11413TIP3    H155654   2.998   6.680   2.189 -0.2679  2.4948  1.7731
11413TIP3    H255655   2.864   6.624   2.149  0.5945  2.7304 -1.8382
11414TIP3   OH255656   3.942   2.849  14.107 -0.4075  0.3626  0.4580
11414TIP3    H155657   3.979   2.761  14.119  0.8074  0.8830  0.7075
11414TIP3    H255658   3.848   2.835  14.099 -0.1413 -1.0731 -0.5728
11415TIP3   OH255659   1.305   2.121   5.148  0.4152  0.4614 -0.0607
11415TIP3    H155660   1.241   2.170   5.200  0.5397  0.5571  0.0029
11415TIP3    H255661   1.259   2.103   5.066  0.2315  0.3400  0.0677
11416TIP3   OH255662   0.007   4.400   5.370  0.0554 -0.1983  0.3434
11416TIP3    H155663  -0.040   4.430   5.292  1.8179  0.8839 -0.3643
11416TIP3    H255664   0.051   4.319   5.341  0.8661  0.3083  0.1314
11417TIP3   OH255665   4.777   1.405  11.666 -0.0976  0.2093 -0.2508
11417TIP3    H155666   4.841   1.448  11.610  0.0678 -0.3976 -0.5371
11417TIP3    H255667   4.719   1.359  11.605 -1.3611  1.4709 -0.0589
11418TIP3   OH255668   1.482   0.999   4.238 -0.1201 -0.5975  0.2613
11418TIP3    H155669   1.565   0.997   4.191  0.5830 -0.8330  1.4824
11418TIP3    H255670   1.474   0.912   4.277 -0.8212 -0.4961  0.3735
11419TIP3   OH255671   5.335   2.187   5.037 -0.1782 -0.2686 -0.2816
11419TIP3    H155672   5.282   2.266   5.051  3.0427  2.2610 -0.9731
11419TIP3    H255673   5.360   2.159   5.126 -0.9113 -0.2081 -0.0485
11420TIP3   OH255674   6.756   6.131   2.304 -0.2916  0.2708 -0.4629
11420TIP3    H155675   6.805   6.153   2.383 -2.6532  0.9182  0.9413
11420TIP3    H255676   6.717   6.046   2.322 -1.4683  0.7610 -0.5684
11421TIP3   OH255677   4.835   5.905   4.493  0.0876 -0.4807  0.6036
11421TIP3    H155678   4.762   5.909   4.432  0.9740  0.0962 -0.4666
11421TIP3    H255679   4.819   5.976   4.555  0.7471  0.9880 -0.8411
11422TIP3   OH255680   6.784   6.729   0.615 -0.4491 -0.0167 -0.8769
11422TIP3    H155681   6.717   6.664   0.596  0.2793 -0.0076 -4.1005
11422TIP3    H255682   6.773   6.796   0.547  2.3187  0.3244 -1.1242
11423TIP3   OH255683   0.836   5.474   1.892  0.3438  0.1707  0.2458
11423TIP3    H155684   0.868   5.564   1.894 -0.1455  0.3264  1.5148
11423TIP3    H255685   0.894   5.426   1.950  0.4274 -0.2861 -0.2028
11424TIP3   OH255686   1.663   6.355   5.685 -0.3506 -0.6490 -0.2746
11424TIP3    H155687   1.685   6.418   5.754  0.3132 -0.1280 -0.9485
11424TIP3    H255688   1.743   6.304   5.672 -0.4603 -0.7283 -0.6649
11425TIP3   OH255689   2.869   6.386  10.172  0.1809  0.0086  0.3072
11425TIP3    H155690   2.926   6.460  10.151 -0.3247 -0.0657 -1.5393
11425TIP3    H255691   2.879   6.326  10.097 -1.2125 -0.6799  0.6425
11426TIP3   OH255692   6.192   2.221   2.142  0.0787 -0.4495  0.2099
11426TIP3    H155693   6.220   2.162   2.072 -0.6100 -0.2289 -0.2593
11426TIP3    H255694   6.225   2.181   2.222 -0.0577 -1.2697 -0.1410
11427TIP3   OH255695   5.339   1.723   5.359  0.0121 -0.0251 -0.1975
11427TIP3    H155696   5.421   1.673   5.361  0.5234  0.7606 -1.0692
11427TIP3    H255697   5.271   1.656   5.351  0.6919 -0.6032 -1.4426
11428TIP3   OH255698   2.420   4.036   3.444  0.2142 -0.0287  0.3278
11428TIP3    H155699   2.390   4.004   3.360 -0.5415 -0.5676  0.7880
11428TIP3    H255700   2.340   4.066   3.488  0.6565  0.6790  0.6736
11429TIP3   OH255701   1.819   6.393  10.741 -0.4149 -0.3541 -0.3758
11429TIP3    H155702   1.854   6.322  10.687  0.0766  0.0872 -0.6463
11429TIP3    H255703   1.797   6.462  10.679 -1.0520 -0.3329 -0.1266
11430TIP3   OH255704   4.702   4.343   0.351  0.2790 -0.3137 -0.5766
11430TIP3    H155705   4.661   4.397   0.283 -0.4330 -1.0866 -0.7719
11430TIP3    H255706   4.709   4.256   0.312 -1.4562 -1.1346  0.8095
11431TIP3   OH255707   0.698   5.007   1.753 -0.1200 -0.5622 -0.2516
11431TIP3    H155708   0.708   5.101   1.742  0.1212 -0.2872  1.8955
11431TIP3    H255709   0.787   4.973   1.755 -0.1566 -0.6419  0.2530
11432TIP3   OH255710   3.257   0.572  11.004 -0.2490 -0.2356 -0.0283
11432TIP3    H155711   3.332   0.626  10.981  0.7632 -1.8675 -0.6729
11432TIP3    H255712   3.188   0.600  10.944  0.2279  0.3708 -0.3093
11433TIP3   OH255713   5.249   5.388  11.486  0.5180  0.3030 -0.3106
11433TIP3    H155714   5.239   5.333  11.564  2.0485 -1.0228 -0.9845
11433TIP3    H255715   5.311   5.340  11.431  1.7310  2.5857 -1.0600
11434TIP3   OH255716   1.028   1.297  12.960  0.0777  0.0942 -0.1589
11434TIP3    H155717   1.059   1.281  13.049 -0.5264  1.0268  0.2350
11434TIP3    H255718   1.101   1.342  12.917  0.0592  0.4074  0.1302
11435TIP3   OH255719   5.222   6.280   0.151  0.5041 -0.1115  0.8424
11435TIP3    H155720   5.295   6.222   0.171 -0.2674 -0.5797  2.4645
11435TIP3    H255721   5.168   6.231   0.089  0.2893 -0.8124  1.5670
11436TIP3   OH255722   5.168   3.924   4.709  0.6319 -0.0216 -0.3403
11436TIP3    H155723   5.175   3.829   4.722  0.8431 -0.0059 -0.3323
11436TIP3    H255724   5.222   3.962   4.778 -1.4839  0.2011  1.2818
11437TIP3   OH255725   4.967   1.239   3.330 -0.1509 -0.0630 -0.3170
11437TIP3    H155726   5.061   1.224   3.318 -0.2380 -0.2797 -0.7831
11437TIP3    H255727   4.926   1.159   3.295 -0.6056  0.9702 -2.2891
11438TIP3   OH255728   6.075   3.830  13.774  0.1391 -0.5062  0.1643
11438TIP3    H155729   6.149   3.778  13.804 -0.0352 -1.6246 -1.2230
11438TIP3    H255730   5.998   3.779  13.800 -0.1198  0.1890  0.7821
11439TIP3   OH255731   2.460   3.523   2.712 -0.2449 -0.0758 -0.6428
11439TIP3    H155732   2.497   3.580   2.645  0.2906  0.3057 -0.0424
11439TIP3    H255733   2.418   3.584   2.774 -0.1913 -0.3719 -0.3121
11440TIP3   OH255734   2.776   3.536  15.307  0.4171 -0.0785 -0.1027
11440TIP3    H155735   2.787   3.480  15.384 -0.5602 -1.4115 -0.9203
11440TIP3    H255736   2.738   3.617  15.342 -1.0995 -1.0950  0.6993
11441TIP3   OH255737   1.689   3.089   2.074 -0.2936 -0.6105  0.2215
11441TIP3    H155738   1.745   3.164   2.058  0.7905 -1.1399  1.2822
11441TIP3    H255739   1.633   3.115   2.147 -0.6016 -0.4955 -0.0547
11442TIP3   OH255740   3.783   1.507   5.598  0.2077  0.3904  0.1740
11442TIP3    H155741   3.755   1.596   5.579 -0.6319  0.0360 -0.3157
11442TIP3    H255742   3.723   1.476   5.665  2.3898  1.2046  2.6790
11443TIP3   OH255743   4.317   3.369  13.687 -0.0582 -0.1154  0.0750
11443TIP3    H155744   4.278   3.453  13.711  1.0518  0.3453  0.3226
11443TIP3    H255745   4.325   3.322  13.770  0.3160 -0.0303  0.0889
11444TIP3   OH255746   1.833   4.306  11.790  0.5776  0.1138  0.2722
11444TIP3    H155747   1.820   4.378  11.728 -1.9227 -0.1730  0.3710
11444TIP3    H255748   1.926   4.310  11.812  1.0758  1.6093 -1.7833
11445TIP3   OH255749   3.700   2.634   2.290 -0.2419  0.1565 -0.4093
11445TIP3    H155750   3.659   2.708   2.244  1.5912  1.5320  0.0518
11445TIP3    H255751   3.725   2.670   2.375  3.3289 -0.0474 -1.2114
11446TIP3   OH255752   0.066   6.670   0.698  0.1447 -0.1165  0.0307
11446TIP3    H155753   0.025   6.590   0.665  0.5322  0.0045 -0.7738
11446TIP3    H255754  -0.001   6.737   0.690  0.5400  0.1266 -1.4837
11447TIP3   OH255755   4.143   2.896   4.229 -0.5590 -0.4293 -0.2226
11447TIP3    H155756   4.110   2.942   4.306  0.2605 -1.2091  0.6168
11447TIP3    H255757   4.128   2.803   4.248  2.0098 -0.8288  0.1924
11448TIP3   OH255758   0.415   0.867  12.386 -0.5496 -0.3174 -0.0022
11448TIP3    H155759   0.354   0.795  12.403 -0.2898 -1.1749 -2.2926
11448TIP3    H255760   0.447   0.851  12.297  2.5285  0.4574  0.8380
11449TIP3   OH255761   1.190   2.433   2.491  0.2383  0.1775  0.5404
11449TIP3    H155762   1.135   2.506   2.461 -0.0089  0.5326  1.8126
11449TIP3    H255763   1.264   2.476   2.533 -0.4455 -0.2682  2.2776
11450TIP3   OH255764   2.853   5.511  11.735 -0.3320 -0.0784 -0.0530
11450TIP3    H155765   2.783   5.556  11.687  0.5086 -0.1732 -1.4137
11450TIP3    H255766   2.864   5.563  11.814 -0.8471  0.8792 -0.5907
11451TIP3   OH255767   4.901   6.048   3.694 -0.3482 -0.7138  0.4735
11451TIP3    H155768   4.893   6.068   3.601 -1.6986  2.6774  1.1827
11451TIP3    H255769   4.995   6.037   3.709 -0.1875 -2.5729 -1.4130
11452TIP3   OH255770   0.584   3.994   2.604  0.2466  0.4635 -0.0504
11452TIP3    H155771   0.534   3.985   2.523  1.0453  0.3310 -0.5371
11452TIP3    H255772   0.521   3.973   2.673 -0.6524  1.3594 -0.5745
11453TIP3   OH255773   2.613   4.317  11.796  0.0239  0.2254  0.0949
11453TIP3    H155774   2.682   4.277  11.742  2.6292  1.6119  2.1460
11453TIP3    H255775   2.603   4.257  11.869 -2.2474 -0.7774 -0.9442
11454TIP3   OH255776   1.556   6.344   1.866  0.2584 -0.0100  0.0522
11454TIP3    H155777   1.518   6.375   1.948 -2.1244  0.9619 -1.3078
11454TIP3    H255778   1.541   6.249   1.866 -0.5270  0.1068  0.3769
11455TIP3   OH255779   4.220   3.451  14.221 -0.0131 -0.3171 -0.0782
11455TIP3    H155780   4.279   3.461  14.296 -0.5435 -2.0218  0.5977
11455TIP3    H255781   4.132   3.468  14.257 -0.1438  0.3479 -0.6714
11456TIP3   OH255782   5.803   5.636   0.302  0.9111  0.0962 -0.0532
11456TIP3    H155783   5.736   5.582   0.343 -0.4072  1.7602  0.0721
11456TIP3    H255784   5.778   5.639   0.210  0.1374  1.6244  0.1827
11457TIP3   OH255785   2.519   0.958   0.580 -0.2529  0.6497 -0.3636
11457TIP3    H155786   2.604   0.951   0.536 -0.7400 -2.2065 -1.0976
11457TIP3    H255787   2.509   0.873   0.624 -2.5459  1.0793  0.0301
11458TIP3   OH255788   0.926   4.297  14.145 -0.5531  0.4747 -0.6165
11458TIP3    H155789   0.954   4.207  14.160  1.1538  0.9961 -0.4705
11458TIP3    H255790   0.938   4.340  14.230  0.1242  1.1844 -1.0527
11459TIP3   OH255791   1.889   2.484  13.182  0.1126 -0.0083 -0.4737
11459TIP3    H155792   1.983   2.500  13.175  0.4867 -1.6800  0.1795
11459TIP3    H255793   1.854   2.564  13.222  1.4933  0.0584  0.6939
11460TIP3   OH255794   4.589   2.249   2.829  0.2537 -0.6366  0.0355
11460TIP3    H155795   4.603   2.329   2.879 -0.0881 -0.3212 -0.3605
11460TIP3    H255796   4.639   2.261   2.749  1.1849 -1.3448  0.5024
11461TIP3   OH255797   5.813   4.309   2.801 -0.2872 -0.1497  0.0145
11461TIP3    H155798   5.762   4.269   2.873 -1.5659  2.4184  0.6596
11461TIP3    H255799   5.904   4.298   2.827 -0.5803 -2.2808  0.3029
11462TIP3   OH255800   0.167   4.420   5.582  0.0684 -0.5036  0.0140
11462TIP3    H155801   0.124   4.453   5.503 -2.4203  0.4016  1.6290
11462TIP3    H255802   0.252   4.465   5.583  0.1894 -0.5582 -2.1124
11463TIP3   OH255803   0.975   5.033   3.522 -0.5741  0.4156 -0.0888
11463TIP3    H155804   1.069   5.024   3.535 -0.5973 -0.5871 -0.5000
11463TIP3    H255805   0.960   5.127   3.513  0.4554  0.5475 -0.5228
11464TIP3   OH255806   2.617   5.090  12.549  0.0600  0.0247 -0.1328
11464TIP3    H155807   2.617   5.092  12.645 -0.5970 -0.5660 -0.1141
11464TIP3    H255808   2.647   5.001  12.528 -0.2591 -0.0032 -0.4680
11465TIP3   OH255809   6.223   5.644  14.160 -0.1597 -0.0428  0.3496
11465TIP3    H155810   6.167   5.583  14.112  0.6916 -0.5712 -0.0076
11465TIP3    H255811   6.187   5.730  14.141  1.0383 -0.0710 -2.5380
11466TIP3   OH255812   3.892   5.706  15.234  0.0007  0.0362 -0.5015
11466TIP3    H155813   3.948   5.755  15.174  2.5410  0.3114  1.8872
11466TIP3    H255814   3.952   5.645  15.278 -2.3734 -2.6011 -0.6575
11467TIP3   OH255815   6.424   6.278   5.403 -0.0346  0.2151 -0.3810
11467TIP3    H155816   6.395   6.322   5.323 -1.1106  0.0505 -0.0986
11467TIP3    H255817   6.518   6.295   5.407 -0.5346  3.4125  0.2789
11468TIP3   OH255818   1.223   3.225   3.384 -0.1827 -0.4447  0.1215
11468TIP3    H155819   1.239   3.132   3.401 -1.4772 -0.6923  0.1020
11468TIP3    H255820   1.145   3.246   3.436  0.0006  0.5903  0.0026
11469TIP3   OH255821   4.368   4.657   1.752  0.3516  0.0171 -0.0731
11469TIP3    H155822   4.285   4.610   1.749  0.1285  0.4214 -0.1871
11469TIP3    H255823   4.386   4.679   1.660 -0.0176  0.9843  0.0814
11470TIP3   OH255824   0.245   2.975  13.605 -0.0976  0.5777  0.0725
11470TIP3    H155825   0.237   2.891  13.650 -0.0207 -0.2704 -1.4123
11470TIP3    H255826   0.333   3.007  13.626  0.4621 -0.4839 -0.5556
11471TIP3   OH255827   3.177   4.669   4.127  0.1868 -0.0946  0.4120
11471TIP3    H155828   3.195   4.739   4.189  0.7843 -0.4058  0.5967
11471TIP3    H255829   3.154   4.593   4.181 -1.3410  0.1805  0.1908
11472TIP3   OH255830   2.250   7.078   1.064  0.5176 -0.3377  0.0593
11472TIP3    H155831   2.296   7.133   1.001 -2.5457  2.0810 -0.3120
11472TIP3    H255832   2.225   7.000   1.015 -0.7298  0.9392 -1.4243
11473TIP3   OH255833   4.025   6.517  13.437  0.3940  0.8615 -0.1035
11473TIP3    H155834   4.094   6.573  13.402  0.5056  1.1500  0.5565
11473TIP3    H255835   4.058   6.428  13.425  0.5819  0.9689 -0.4042
11474TIP3   OH255836   5.705   1.084   4.040 -0.1844  0.4547  0.5873
11474TIP3    H155837   5.638   1.027   4.078 -1.9874  1.5067 -0.8446
11474TIP3    H255838   5.655   1.147   3.988  1.9561  1.2073 -0.6481
11475TIP3   OH255839   0.010   2.100   2.881 -0.3825  0.5996  0.8285
11475TIP3    H155840   0.074   2.028   2.876 -0.9423 -0.0688  2.7012
11475TIP3    H255841   0.011   2.127   2.972 -4.3977 -0.9779  1.5222
11476TIP3   OH255842   1.137   3.116   3.906 -0.0195 -0.1390 -0.2554
11476TIP3    H155843   1.135   3.057   3.830  0.7433  1.0125 -1.2058
11476TIP3    H255844   1.072   3.183   3.885 -0.3405 -0.2148  0.4715
11477TIP3   OH255845   6.155   6.963  14.975 -0.3110  0.0231 -0.0714
11477TIP3    H155846   6.065   6.930  14.986 -0.4821  0.0882 -1.2042
11477TIP3    H255847   6.202   6.889  14.937  0.0695  0.0547  0.3398
11478TIP3   OH255848   0.160   0.908  14.507  0.1809 -0.3589 -0.0421
11478TIP3    H155849   0.208   0.826  14.523  1.6986  0.6670  0.9458
11478TIP3    H255850   0.210   0.950  14.437  0.6942  0.6762  0.9226
11479TIP3   OH255851   2.752   1.605   0.556 -0.0575 -0.1592  0.0156
11479TIP3    H155852   2.828   1.569   0.603  0.6764 -3.6467 -3.4038
11479TIP3    H255853   2.679   1.549   0.581 -0.0287 -0.9398 -1.5384
11480TIP3   OH255854   5.342   6.832  13.647 -0.3315  0.3248  0.5319
11480TIP3    H155855   5.308   6.762  13.592  0.3978  1.3874 -1.3453
11480TIP3    H255856   5.267   6.857  13.702 -2.3200  1.6837 -2.5348
11481TIP3   OH255857   0.166   2.642  11.669 -0.7917  0.5923 -0.1696
11481TIP3    H155858   0.212   2.571  11.624 -1.4125  0.4970 -0.6716
11481TIP3    H255859   0.145   2.607  11.755  0.4650  0.7970  0.2449
11482TIP3   OH255860   4.696   6.929  13.674 -0.2540 -0.0599  0.6289
11482TIP3    H155861   4.747   6.983  13.734 -1.5528  4.2977 -1.7232
11482TIP3    H255862   4.610   6.920  13.715 -0.1837  0.1222  0.8138
11483TIP3   OH255863   6.429   5.321  10.570  0.0576  0.0007 -0.1923
11483TIP3    H155864   6.523   5.308  10.555  0.4558  1.4580  0.7772
11483TIP3    H255865   6.392   5.331  10.483  1.0025  0.5478 -0.5496
11484TIP3   OH255866   0.839   3.266   1.557  0.8250 -0.5495 -0.3047
11484TIP3    H155867   0.829   3.289   1.649 -0.5832  0.7768 -0.7456
11484TIP3    H255868   0.875   3.177   1.558 -0.1360 -0.9698  1.5149
11485TIP3   OH255869   4.311   4.846   2.180  0.2953 -0.3214  0.1769
11485TIP3    H155870   4.303   4.817   2.271 -0.3457  2.8097  1.2622
11485TIP3    H255871   4.399   4.883   2.174  0.9650 -1.9890 -1.0320
11486TIP3   OH255872   3.513   6.273   9.749  0.3954  0.0222 -0.5009
11486TIP3    H155873   3.591   6.318   9.781  0.0806 -0.3282  0.8432
11486TIP3    H255874   3.546   6.202   9.694  1.1036 -0.8486  0.9963
11487TIP3   OH255875   6.346   4.169   4.420 -0.3080  0.0303  0.1548
11487TIP3    H155876   6.387   4.103   4.476  0.7987  0.9176  0.4301
11487TIP3    H255877   6.416   4.231   4.401 -1.4962  1.5847  0.5980
11488TIP3   OH255878   6.223   4.595  15.202 -0.3131  0.6182  0.1852
11488TIP3    H155879   6.285   4.564  15.136  0.2951 -0.2822  1.1609
11488TIP3    H255880   6.250   4.685  15.219 -0.8327  1.0662 -1.1829
11489TIP3   OH255881   1.386   2.616   2.607  0.0485  0.1466  0.2270
11489TIP3    H155882   1.440   2.542   2.582  0.0276  0.4805 -0.9072
11489TIP3    H255883   1.445   2.692   2.602 -0.1095  0.3010  0.6462
11490TIP3   OH255884   3.779   3.772  12.947 -0.3209  0.0103 -0.1645
11490TIP3    H155885   3.863   3.804  12.980 -0.6936 -0.2799  1.1052
11490TIP3    H255886   3.783   3.788  12.853  1.8097 -1.4717 -0.3948
11491TIP3   OH255887   1.920   0.054   2.008 -0.5720  0.3615  0.0113
11491TIP3    H155888   1.980   0.083   1.939 -2.8242  2.1046 -1.3570
11491TIP3    H255889   1.902  -0.038   1.987  0.8733  0.0703 -0.0538
11492TIP3   OH255890   5.915   5.668  13.172 -0.0823  0.6625 -0.2095
11492TIP3    H155891   5.857   5.669  13.096  0.1185  1.9905 -0.3798
11492TIP3    H255892   5.881   5.738  13.228 -1.5185 -1.5996  1.9631
11493TIP3   OH255893   1.103   5.697  13.254  0.4819 -0.6813  0.8238
11493TIP3    H155894   1.019   5.738  13.233  0.5990 -1.0260 -0.4538
11493TIP3    H255895   1.117   5.715  13.347 -0.2061  0.8007  0.6678
11494TIP3   OH255896   2.344   4.724  11.069  0.8868 -0.0359  0.2347
11494TIP3    H155897   2.351   4.634  11.039  1.5037 -0.1557  0.7192
11494TIP3    H255898   2.431   4.762  11.055  0.4596  0.6758 -0.5576
11495TIP3   OH255899   5.302   1.683   1.595  0.4737 -0.6417 -0.3119
11495TIP3    H155900   5.296   1.616   1.527 -0.8204  0.2875 -1.1558
11495TIP3    H255901   5.375   1.654   1.650  0.9909 -1.8783 -1.5772
11496TIP3   OH255902   0.756   0.747   4.801 -0.6149  0.2463 -0.2766
11496TIP3    H155903   0.671   0.708   4.821 -0.4332 -0.2553 -0.4459
11496TIP3    H255904   0.736   0.832   4.763 -1.0133  0.4778  0.4309
11497TIP3   OH255905   2.866   6.582  14.925 -0.8148 -0.5423  0.2839
11497TIP3    H155906   2.923   6.538  14.861 -0.6947 -0.0873  0.0744
11497TIP3    H255907   2.926   6.615  14.991 -0.8186  0.0833 -0.0237
11498TIP3   OH255908   6.561   2.928   0.282 -0.2005  0.0101 -0.1813
11498TIP3    H155909   6.628   2.896   0.342  0.6340  1.5623 -0.2249
11498TIP3    H255910   6.609   2.982   0.219 -1.2294 -0.5173 -1.4845
11499TIP3   OH255911   2.584   2.544   2.480  0.4843 -0.4762 -0.5931
11499TIP3    H155912   2.640   2.621   2.489 -3.5839  2.8512 -0.0365
11499TIP3    H255913   2.545   2.553   2.393 -1.9182 -0.2913  0.4072
11500TIP3   OH255914   0.485   6.636   4.069 -0.0193 -0.0490 -0.3838
11500TIP3    H155915   0.409   6.604   4.118  0.5129 -0.8709 -0.0798
11500TIP3    H255916   0.559   6.585   4.103  0.1367 -1.9518 -3.2475
11501TIP3   OH255917   0.423   4.057  13.413 -0.0109 -0.0740 -0.1906
11501TIP3    H155918   0.494   4.095  13.362 -0.5223 -0.2396 -1.0472
11501TIP3    H255919   0.430   4.098  13.500  0.5404  0.6083 -0.5544
11502TIP3   OH255920   2.413   0.151  14.846 -0.5386 -0.1504  0.1656
11502TIP3    H155921   2.459   0.091  14.904 -1.1306 -0.3757  0.4119
11502TIP3    H255922   2.455   0.140  14.761 -1.7961 -2.2456 -0.2424
11503TIP3   OH255923   0.949   5.349  11.676  0.0589 -0.0673  0.2888
11503TIP3    H155924   0.935   5.275  11.735 -0.8802  0.4721  0.7602
11503TIP3    H255925   0.884   5.414  11.703  1.6652  1.4436  0.7134
11504TIP3   OH255926   3.945   2.326  10.150  0.1974  0.2175  0.1051
11504TIP3    H155927   4.033   2.306  10.183  0.2252  2.1600  1.4121
11504TIP3    H255928   3.891   2.330  10.229 -0.8772 -0.0861 -0.6011
11505TIP3   OH255929   4.483   6.755   4.590 -0.6236  0.5310  0.0830
11505TIP3    H155930   4.439   6.793   4.514  0.4108  1.7382  0.0549
11505TIP3    H255931   4.519   6.673   4.559 -1.3801  0.3547 -0.3509
11506TIP3   OH255932   3.359   2.767  13.762  0.3551  0.2060  0.1243
11506TIP3    H155933   3.275   2.723  13.780  0.6668  0.4466  2.5122
11506TIP3    H255934   3.335   2.843  13.709 -0.2146 -2.5616 -4.0897
11507TIP3   OH255935   1.475   6.207   5.050 -0.4251  0.2359  0.0385
11507TIP3    H155936   1.474   6.286   5.104 -0.2761  0.3910 -0.1822
11507TIP3    H255937   1.426   6.142   5.101  2.3924 -0.6179  1.8430
11508TIP3   OH255938   1.956   5.101   5.054 -0.0835  0.2937 -0.0791
11508TIP3    H155939   1.867   5.128   5.077 -0.2704  1.5537 -2.0841
11508TIP3    H255940   1.949   5.007   5.040 -0.8367  0.1905  0.8971
11509TIP3   OH255941   6.801   4.284   4.071  0.2747 -0.5108  0.2581
11509TIP3    H155942   6.729   4.347   4.067  0.6360 -0.1555 -1.4748
11509TIP3    H255943   6.853   4.313   4.146  0.2262  1.0495 -0.2698
11510TIP3   OH255944   5.315   3.061   2.280  0.0055 -0.2941  0.2605
11510TIP3    H155945   5.284   3.053   2.190 -0.6748 -0.2783  0.4870
11510TIP3    H255946   5.401   3.019   2.280  0.9095  1.4135 -0.8360
11511TIP3   OH255947   2.395   0.093  12.310 -0.1856  0.6768 -0.0550
11511TIP3    H155948   2.461   0.034  12.275 -0.2976 -0.7983  2.0482
11511TIP3    H255949   2.371   0.148  12.235  0.4304 -1.4520 -1.9644
11512TIP3   OH255950   1.925   3.395  14.882 -0.4776 -0.3685  0.3324
11512TIP3    H155951   1.899   3.383  14.974  0.6244  1.3500  0.9377
11512TIP3    H255952   1.872   3.469  14.852 -0.1779 -0.3372 -0.1223
11513TIP3   OH255953   4.432   0.264   3.174  0.0859 -0.3026  1.1792
11513TIP3    H155954   4.387   0.253   3.258  1.3776  0.7240  2.0680
11513TIP3    H255955   4.500   0.197   3.174 -1.0270 -1.4766  0.1036
11514TIP3   OH255956   6.624   0.273   1.015  0.1598  0.6160 -0.2789
11514TIP3    H155957   6.572   0.197   1.040  3.1562 -0.6552  2.9556
11514TIP3    H255958   6.691   0.238   0.955 -1.6411  1.9771 -3.3605
11515TIP3   OH255959   6.668   4.082  10.361 -0.1512 -0.3121 -0.1704
11515TIP3    H155960   6.727   4.019  10.320 -1.2317 -1.0293 -0.6709
11515TIP3    H255961   6.659   4.052  10.452  2.2262  1.2655  0.6693
11516TIP3   OH255962   1.993   1.986   4.081 -0.4273 -0.6752 -0.0190
11516TIP3    H155963   1.953   1.982   4.168 -1.1340 -1.9470 -0.3793
11516TIP3    H255964   1.918   1.989   4.021  0.0369  1.7782 -0.5681
11517TIP3   OH255965   2.384   3.642   0.679 -0.5171  0.5104  0.2287
11517TIP3    H155966   2.397   3.729   0.715 -1.0473  0.8413 -0.3590
11517TIP3    H255967   2.466   3.621   0.634 -0.3712  0.6748  0.4175
11518TIP3   OH255968   5.316   3.380   9.639 -0.4149  0.1188 -0.5821
11518TIP3    H155969   5.408   3.389   9.613 -0.4198 -0.0600 -0.6589
11518TIP3    H255970   5.272   3.452   9.593  0.0881  1.8813  1.5174
11519TIP3   OH255971   1.918   5.164  12.299  0.4178  0.1674  0.1423
11519TIP3    H155972   1.865   5.132  12.372  0.8216 -2.1875 -0.5116
11519TIP3    H255973   1.924   5.258  12.313 -3.1460  0.4159  0.7229
11520TIP3   OH255974   5.280   5.725  11.392 -0.2446 -0.5385 -0.4215
11520TIP3    H155975   5.193   5.704  11.427 -2.2966  1.4362 -3.6992
11520TIP3    H255976   5.295   5.816  11.420  0.5253 -0.7093 -0.2778
11521TIP3   OH255977   3.386   2.087   4.369 -0.2755 -0.2952 -0.0320
11521TIP3    H155978   3.477   2.117   4.376 -0.4290  0.3396 -0.6238
11521TIP3    H255979   3.334   2.158   4.406 -0.6827  0.4952 -1.9928
11522TIP3   OH255980   2.299   0.608  14.202  0.0753  0.3783  0.0392
11522TIP3    H155981   2.349   0.545  14.253  0.0640  0.1399 -0.2429
11522TIP3    H255982   2.362   0.647  14.142 -0.5274 -1.8926 -2.2682
11523TIP3   OH255983   5.521   0.684   2.892 -0.3927 -0.5139  0.1093
11523TIP3    H155984   5.578   0.650   2.824  0.9305 -1.3713  1.5658
11523TIP3    H255985   5.451   0.729   2.845  0.4723 -1.0448 -1.7822
11524TIP3   OH255986   4.434   2.870  15.380  0.1155  0.1224 -0.2289
11524TIP3    H155987   4.488   2.793  15.396  0.0783 -0.2646 -1.8226
11524TIP3    H255988   4.345   2.842  15.402  0.2030 -0.0788 -0.1294
11525TIP3   OH255989   6.670   2.705  11.465 -0.2874 -0.2632  0.0092
11525TIP3    H155990   6.718   2.762  11.405  1.4575  0.7439  2.2477
11525TIP3    H255991   6.635   2.763  11.532 -2.3007 -1.3535  0.0041
11526TIP3   OH255992   3.141   4.467   1.575 -0.0614 -0.0855  0.3580
11526TIP3    H155993   3.205   4.398   1.591 -0.5758 -0.5979  0.2644
11526TIP3    H255994   3.183   4.525   1.513  0.4208 -0.2568  0.5157
11527TIP3   OH255995   4.338   6.360   0.548  0.4358 -0.0397  0.6718
11527TIP3    H155996   4.385   6.374   0.630 -0.6724 -1.2227  1.5277
11527TIP3    H255997   4.330   6.265   0.539  0.0379  0.0814 -0.5118
11528TIP3   OH255998   3.418   2.259  15.305 -0.1346 -0.2175 -0.2683
11528TIP3    H155999   3.465   2.223  15.380 -1.1356 -0.6618  0.1708
11528TIP3    H256000   3.461   2.343  15.288  0.5457 -0.4245  0.3678
11529TIP3   OH256001   3.390   2.651  13.435  0.0348  0.0887 -0.2479
11529TIP3    H156002   3.485   2.644  13.445  0.2246  1.7273 -0.5020
11529TIP3    H256003   3.371   2.743  13.456 -1.6121 -0.4121  0.6249
11530TIP3   OH256004   3.109   6.765   0.437  0.0438 -0.2596 -0.2519
11530TIP3    H156005   3.178   6.830   0.423 -0.5528 -0.0717 -2.7996
11530TIP3    H256006   3.117   6.705   0.363 -1.4243 -1.2841  0.3602
11531TIP3   OH256007   2.392   4.356  13.473 -0.0593  0.0588 -0.5751
11531TIP3    H156008   2.332   4.426  13.448  0.1547  0.5727  0.3231
11531TIP3    H256009   2.477   4.399  13.481  0.1541 -0.3850 -0.4303
11532TIP3   OH256010   4.950   0.520  12.560  0.0284 -0.3162 -0.7644
11532TIP3    H156011   4.903   0.502  12.642 -0.3131 -0.3523 -0.9643
11532TIP3    H256012   4.913   0.603  12.530 -0.0297 -0.4306 -1.0109
11533TIP3   OH256013   3.889   0.276  14.611 -0.1157 -0.5755 -0.2422
11533TIP3    H156014   3.854   0.188  14.628 -2.7635  0.3244 -0.5737
11533TIP3    H256015   3.873   0.290  14.518 -1.1303  0.7722  0.1026
11534TIP3   OH256016   5.442   4.789  14.106  0.7423  0.1274 -0.4633
11534TIP3    H156017   5.432   4.857  14.173  0.0976 -1.2217  0.8845
11534TIP3    H256018   5.402   4.826  14.028 -0.3126  1.0086  0.4527
11535TIP3   OH256019   6.583   0.339   9.912  0.1924  0.3288  0.0666
11535TIP3    H156020   6.522   0.307   9.845  0.0389 -0.9175  0.7666
11535TIP3    H256021   6.667   0.297   9.889 -0.2856 -1.6818  1.6929
11536TIP3   OH256022   1.045   3.080   1.665  1.0490 -0.0444  0.1186
11536TIP3    H156023   1.137   3.065   1.685  0.5310 -0.1944  2.6653
11536TIP3    H256024   1.015   3.140   1.732 -1.0636 -1.1692  0.2684
11537TIP3   OH256025   1.618   5.059  14.371 -0.0645 -0.3960  0.3313
11537TIP3    H156026   1.667   5.028  14.446  1.0781 -0.9268 -0.6065
11537TIP3    H256027   1.678   5.118  14.325 -2.0962  3.4236  2.0365
11538TIP3   OH256028   5.437   6.482   2.171 -0.0803 -0.1381  0.0898
11538TIP3    H156029   5.488   6.562   2.180  0.7753 -0.5249 -1.1596
11538TIP3    H256030   5.500   6.414   2.146 -0.6620 -1.3894  1.8132
11539TIP3   OH256031   4.633   1.307  13.041  0.0221 -0.0189  0.1929
11539TIP3    H156032   4.575   1.383  13.038 -0.9640 -0.7954 -2.0064
11539TIP3    H256033   4.625   1.274  13.130  0.4957  2.4095  1.2261
11540TIP3   OH256034   0.541   4.147  13.134  0.3683 -0.2810  0.0837
11540TIP3    H156035   0.617   4.089  13.130 -0.1775 -1.0155  0.1528
11540TIP3    H256036   0.487   4.123  13.059  0.8561  1.2122 -0.8039
11541TIP3   OH256037   5.276   1.443   0.567  0.7158  0.6172 -0.3938
11541TIP3    H156038   5.249   1.438   0.658  1.9806  3.2307  0.2374
11541TIP3    H256039   5.303   1.354   0.544 -1.3610 -0.4892  1.1402
11542TIP3   OH256040   1.337   3.328  12.068 -0.2345  0.6869  0.5904
11542TIP3    H156041   1.263   3.305  12.125  1.2795 -2.2511  1.5844
11542TIP3    H256042   1.325   3.274  11.991  0.6345  0.4964  0.5797
11543TIP3   OH256043   4.148   0.994   2.680 -0.4618  0.4083 -0.1847
11543TIP3    H156044   4.231   0.993   2.632  0.1496  0.7346  0.8453
11543TIP3    H256045   4.141   1.084   2.712 -1.3477  0.4508 -0.4673
11544TIP3   OH256046   5.897   4.626   4.726  0.4065 -0.1397  0.2206
11544TIP3    H156047   5.856   4.602   4.809  2.0766  1.6538  1.6410
11544TIP3    H256048   5.978   4.577   4.723 -0.7558 -2.1425 -1.6438
11545TIP3   OH256049   1.401   1.504   3.788 -0.5832  0.2723  0.2072
11545TIP3    H156050   1.384   1.535   3.877 -1.1273 -1.3667  0.7089
11545TIP3    H256051   1.345   1.426   3.779  1.1725 -0.9449 -0.7503
11546TIP3   OH256052   4.534   3.035   1.778 -0.0358  0.0822  0.4230
11546TIP3    H156053   4.565   3.125   1.766 -0.5105  0.2920  0.7636
11546TIP3    H256054   4.579   2.986   1.709 -0.1767  0.6739 -0.1053
11547TIP3   OH256055   2.206   3.474   4.325 -0.0109  0.1690  0.1311
11547TIP3    H156056   2.277   3.485   4.261  0.6763  1.3301  1.0698
11547TIP3    H256057   2.158   3.557   4.323 -1.2223 -0.5092 -0.3033
11548TIP3   OH256058   0.431   0.296   4.580  0.1800  0.2318 -0.2403
11548TIP3    H156059   0.448   0.258   4.667 -1.2605  1.7369  0.7634
11548TIP3    H256060   0.405   0.221   4.526 -0.8855 -0.5006  1.2124
11549TIP3   OH256061   3.946   5.271  11.900 -0.0062 -1.0364 -0.2681
11549TIP3    H156062   3.940   5.237  11.990 -0.8379 -1.1528 -0.3655
11549TIP3    H256063   3.987   5.357  11.910  1.0958 -1.5806  0.0909
11550TIP3   OH256064   6.161   6.324   4.872  0.3282 -0.5663  0.5444
11550TIP3    H156065   6.173   6.321   4.967  2.1343 -1.3062  0.3312
11550TIP3    H256066   6.070   6.299   4.859 -0.2488  0.5371  2.1260
11551TIP3   OH256067   0.102   2.780   1.018  0.5001  0.8216  0.2603
11551TIP3    H156068   0.075   2.757   1.107 -0.7235  0.9038 -0.0701
11551TIP3    H256069   0.149   2.862   1.027  0.0643  1.0183  0.8045
11552TIP3   OH256070   2.671   4.444   1.539  0.2090 -0.4512 -0.2410
11552TIP3    H156071   2.635   4.469   1.454  0.1083 -1.2354 -0.4390
11552TIP3    H256072   2.606   4.472   1.602 -0.3227 -1.0200 -0.5276
11553TIP3   OH256073   2.327   4.110   0.437  0.2983 -0.1605 -0.1129
11553TIP3    H156074   2.338   4.017   0.458  0.5860  0.0426  0.6663
11553TIP3    H256075   2.415   4.141   0.419  0.1809 -0.0737 -0.5570
11554TIP3   OH256076   3.672   6.641   1.520 -0.5974 -0.5536  0.0420
11554TIP3    H156077   3.666   6.726   1.563 -1.1888 -1.6901  2.3672
11554TIP3    H256078   3.647   6.578   1.587 -3.7838 -2.3797 -2.5524
11555TIP3   OH256079   1.828   2.728   2.358 -0.2728  0.6444  0.0387
11555TIP3    H156080   1.871   2.756   2.277  2.2857  2.9450  2.0017
11555TIP3    H256081   1.755   2.788   2.369  0.0949  1.0964  0.0208
11556TIP3   OH256082   1.004   6.616   0.612  0.0905 -0.1108 -0.2570
11556TIP3    H156083   0.975   6.694   0.566 -2.0408 -0.7742 -0.1452
11556TIP3    H256084   0.974   6.629   0.702  0.0726 -0.8704 -0.1444
11557TIP3   OH256085   5.110   1.548   5.033 -0.1657  0.1784  0.1649
11557TIP3    H156086   5.049   1.473   5.036 -0.3147  0.3060  0.3597
11557TIP3    H256087   5.134   1.562   5.125  1.6912 -1.1108 -0.0597
11558TIP3   OH256088   4.646   7.025  15.014  0.2222 -0.0760  0.4097
11558TIP3    H156089   4.730   6.984  14.993 -0.0741 -0.5738  0.1678
11558TIP3    H256090   4.595   6.955  15.056 -0.2740  0.0547  0.0346
11559TIP3   OH256091   0.647   3.108  13.293 -0.0474 -0.6594 -0.4263
11559TIP3    H156092   0.723   3.108  13.235  1.1774 -3.9915  0.9253
11559TIP3    H256093   0.673   3.163  13.367 -0.7725  1.8081 -1.9098
11560TIP3   OH256094   3.962   4.823   0.088 -0.1102  0.5784 -0.8625
11560TIP3    H156095   4.051   4.856   0.096 -0.4809  1.9719 -2.0005
11560TIP3    H256096   3.952   4.805  -0.006 -0.7722 -0.3806 -0.6292
11561TIP3   OH256097   3.035   1.365   3.866  0.4836 -0.3080 -0.3662
11561TIP3    H156098   3.065   1.304   3.933 -1.8325 -1.3772 -0.1834
11561TIP3    H256099   3.008   1.443   3.915 -0.4053 -0.7617 -0.1035
11562TIP3   OH256100   3.739   5.940  11.842  0.4207 -0.2290  0.0902
11562TIP3    H156101   3.697   6.008  11.895 -0.8186 -0.0859 -1.0121
11562TIP3    H256102   3.763   5.873  11.905 -2.2371 -0.6852  0.7707
11563TIP3   OH256103   1.337   1.986   4.396  0.1964  0.2364  0.3093
11563TIP3    H156104   1.402   2.052   4.421  2.1711 -1.8516  1.0723
11563TIP3    H256105   1.261   2.005   4.450  0.5770  2.0260  0.2907
11564TIP3   OH256106   1.609   0.069   0.111 -0.1271  0.4041  0.5242
11564TIP3    H156107   1.589   0.119   0.031 -0.8761  0.8447  0.9711
11564TIP3    H256108   1.677   0.007   0.084 -0.0843  0.8138 -0.3577
11565TIP3   OH256109   2.273   1.220   9.722 -0.0779 -0.0013 -0.2114
11565TIP3    H156110   2.205   1.287   9.729 -0.0543  0.0465 -0.4332
11565TIP3    H256111   2.302   1.205   9.812  1.6871  2.1187 -0.3262
11566TIP3   OH256112   3.642   3.407   2.345  0.0309 -0.2268  0.1457
11566TIP3    H156113   3.650   3.402   2.440 -0.7338 -0.4685  0.2122
11566TIP3    H256114   3.582   3.480   2.330  0.0519 -0.2673 -0.1426
11567TIP3   OH256115   4.737   4.636   4.264  0.0525  0.2846 -0.1425
11567TIP3    H156116   4.769   4.695   4.196  0.9134  1.1969  1.0111
11567TIP3    H256117   4.774   4.551   4.241 -0.9258  0.2164 -1.6350
11568TIP3   OH256118   2.356   4.479  12.419  0.5016 -1.1384  0.2365
11568TIP3    H156119   2.337   4.572  12.412 -0.6042 -1.4411 -1.3332
11568TIP3    H256120   2.380   4.466  12.511 -0.2409  0.5201  0.6976
11569TIP3   OH256121   4.933   6.076   0.609  0.1661  0.5281 -0.3984
11569TIP3    H156122   5.000   6.119   0.555 -0.5917 -0.2292 -2.0045
11569TIP3    H256123   4.872   6.039   0.545 -2.4778  2.2154  0.9658
11570TIP3   OH256124   2.104   5.372   1.973 -0.4525 -0.5143  0.4597
11570TIP3    H156125   2.090   5.457   1.931 -0.1865 -1.0566 -0.7809
11570TIP3    H256126   2.105   5.391   2.067  0.8279  1.0592  0.1807
11571TIP3   OH256127   4.730   1.586   9.629  0.2428 -0.0077  0.1204
11571TIP3    H156128   4.680   1.557   9.553  0.9415 -1.7982  0.3037
11571TIP3    H256129   4.821   1.591   9.598  0.6432 -1.4504  0.9899
11572TIP3   OH256130   5.278   6.399   1.438  0.1849 -0.3513  0.3031
11572TIP3    H156131   5.295   6.437   1.524 -0.1953  0.0598  0.1984
11572TIP3    H256132   5.186   6.372   1.441  0.1872 -0.3902  0.0480
11573TIP3   OH256133   5.381   6.612   1.296 -0.1151 -0.6935  0.2476
11573TIP3    H156134   5.430   6.624   1.378  0.2447  0.2219 -0.1004
11573TIP3    H256135   5.339   6.526   1.307 -0.0822 -0.5819  1.3963
11574TIP3   OH256136   4.422   0.965  13.508  0.4712  0.1785 -0.1336
11574TIP3    H156137   4.468   1.023  13.448 -0.5319  2.4215  1.1081
11574TIP3    H256138   4.435   1.004  13.594 -1.4020 -0.6411  0.5914
11575TIP3   OH256139   3.831   3.679  13.842  0.1648 -0.0115 -0.2187
11575TIP3    H156140   3.742   3.693  13.811  0.4057 -0.0932 -0.9838
11575TIP3    H256141   3.821   3.634  13.925 -0.5086 -0.0183 -0.2983
11576TIP3   OH256142   7.079   2.544   2.339  0.0508 -0.1805 -0.3309
11576TIP3    H156143   7.125   2.543   2.255 -1.2203 -1.3880 -1.0572
11576TIP3    H256144   7.104   2.462   2.382 -0.0811 -0.0318  0.0357
11577TIP3   OH256145   6.002   6.963   4.155  0.0469  0.2820 -0.2790
11577TIP3    H156146   6.089   6.928   4.137  1.2394  2.0397  1.7333
11577TIP3    H256147   6.003   6.984   4.248 -2.3810  0.8405 -0.3101
11578TIP3   OH256148   3.269   0.341  14.443 -0.9468  0.6002 -0.7681
11578TIP3    H156149   3.307   0.309  14.524 -0.3624 -0.3647 -1.3915
11578TIP3    H256150   3.189   0.385  14.469 -1.6496 -1.1474  0.1958
11579TIP3   OH256151   1.273   1.164  13.392 -0.2939 -0.1079  0.0076
11579TIP3    H156152   1.214   1.227  13.431  0.0904 -0.1806  0.7182
11579TIP3    H256153   1.249   1.163  13.299 -0.0048  1.4170 -0.1076
11580TIP3   OH256154   4.085   5.068  14.344  0.4754 -0.1254 -0.0194
11580TIP3    H156155   4.027   5.051  14.270  1.2592 -2.5979 -0.1251
11580TIP3    H256156   4.033   5.122  14.403 -0.4637  1.1884 -1.9448
11581TIP3   OH256157   2.823   5.781  14.304 -0.9654  0.3234 -0.3570
11581TIP3    H156158   2.810   5.739  14.389  0.3038 -1.5179 -1.0128
11581TIP3    H256159   2.850   5.870  14.325 -1.7618  0.2482  1.1328
11582TIP3   OH256160   2.792   6.545  13.490  0.4541 -0.0729 -0.1953
11582TIP3    H156161   2.807   6.504  13.576  0.1970 -0.2303 -0.2229
11582TIP3    H256162   2.731   6.616  13.508  1.3795  0.6983 -0.0476
11583TIP3   OH256163   6.578   3.469  14.210 -0.8849 -0.2189 -0.2053
11583TIP3    H156164   6.629   3.550  14.220 -1.0768 -0.1425  0.1265
11583TIP3    H256165   6.645   3.402  14.194 -0.6504 -0.1780  0.5702
11584TIP3   OH256166   2.838   4.256  14.503  0.2404 -0.7021 -0.4174
11584TIP3    H156167   2.799   4.343  14.513  0.0550 -0.9662  1.8362
11584TIP3    H256168   2.928   4.266  14.535  0.3334 -1.2531 -0.4909
11585TIP3   OH256169   4.588   7.157   3.434 -0.0817  0.4870 -0.2087
11585TIP3    H156170   4.554   7.070   3.456  1.1112  0.1617  0.4197
11585TIP3    H256171   4.645   7.179   3.507  1.5986  0.7076 -1.5288
11586TIP3   OH256172   3.186   4.345   0.116  0.2942 -0.0254  1.0136
11586TIP3    H156173   3.110   4.402   0.111  0.4061  0.1002  0.6958
11586TIP3    H256174   3.178   4.288   0.039  1.4119  1.1202 -0.0033
11587TIP3   OH256175   4.875   0.023  15.455  0.5398  0.5427 -0.0911
11587TIP3    H156176   4.858   0.117  15.446  0.3565  0.3793 -1.8763
11587TIP3    H256177   4.956   0.019  15.506 -0.5181  1.5704  1.7900
11588TIP3   OH256178   5.706   1.196  12.598  0.1474 -0.2203 -0.1374
11588TIP3    H156179   5.653   1.229  12.525 -1.2433 -0.8919  0.5269
11588TIP3    H256180   5.691   1.259  12.668 -1.4883 -1.4690  0.7160
11589TIP3   OH256181   1.410   1.877   0.518 -0.8195 -0.4347  0.2346
11589TIP3    H156182   1.392   1.875   0.424  0.8932  2.0145 -0.2315
11589TIP3    H256183   1.480   1.813   0.531 -2.4973 -2.3621  0.2985
11590TIP3   OH256184   2.636   2.461   3.728  0.4358 -0.2311  0.1067
11590TIP3    H156185   2.625   2.366   3.735 -1.5374 -0.0069  0.7841
11590TIP3    H256186   2.710   2.482   3.785  0.7159 -1.3174  0.1554
11591TIP3   OH256187   2.590   3.900   0.664 -0.0424  0.6591  0.0985
11591TIP3    H156188   2.533   3.958   0.715  0.1845  1.5501 -0.6455
11591TIP3    H256189   2.542   3.885   0.582 -0.6364 -1.1660  0.7172
11592TIP3   OH256190   4.201   0.339  14.403  0.2794 -0.3522  0.3828
11592TIP3    H156191   4.120   0.378  14.436  1.0483  0.2964  1.5667
11592TIP3    H256192   4.264   0.411  14.400  0.6352 -0.6878 -1.2367
11593TIP3   OH256193   6.697   3.122   1.810 -0.1319 -0.6291 -0.3185
11593TIP3    H156194   6.778   3.146   1.856 -0.3524 -0.8801  0.2141
11593TIP3    H256195   6.657   3.056   1.866 -1.1182  0.0909 -0.1637
11594TIP3   OH256196   1.002   1.961  14.247  0.2815  0.5792  0.2559
11594TIP3    H156197   1.059   1.966  14.171  0.4848 -1.2589  0.2493
11594TIP3    H256198   0.964   1.873  14.243 -0.3793  0.7622  1.8032
11595TIP3   OH256199   3.226   2.652   0.910  0.3141 -0.0460 -0.3192
11595TIP3    H156200   3.221   2.640   0.815 -1.0599  0.5021 -0.3389
11595TIP3    H256201   3.256   2.742   0.921 -1.1107  0.4409 -0.2629
11596TIP3   OH256202   2.011   1.797  13.657 -0.5934  0.7325  0.0990
11596TIP3    H156203   2.069   1.769  13.728  0.9894  1.4680 -0.8440
11596TIP3    H256204   2.062   1.862  13.609 -1.4858  0.0542 -1.8835
11597TIP3   OH256205   4.021   3.144   2.266  0.8025  0.3106 -0.4301
11597TIP3    H156206   4.062   3.058   2.259  2.2271  0.7589  1.4410
11597TIP3    H256207   3.927   3.125   2.270  1.1022 -1.2154  0.2917
11598TIP3   OH256208   1.982   1.229   3.637 -0.3813  0.5639 -0.2800
11598TIP3    H156209   2.039   1.287   3.586  1.5472  0.0379  1.1945
11598TIP3    H256210   1.903   1.282   3.653  0.4694  2.0136 -0.7163
11599TIP3   OH256211   1.668   3.538  13.247  0.1903  0.5616 -0.7275
11599TIP3    H156212   1.763   3.550  13.237  0.4924 -0.9212  0.1501
11599TIP3    H256213   1.659   3.482  13.324 -1.5110  2.3249  0.4577
11600TIP3   OH256214   5.677   5.674  13.912  0.1353 -0.0619 -0.3784
11600TIP3    H156215   5.684   5.705  13.822 -1.2036  1.0492 -0.1368
11600TIP3    H256216   5.647   5.751  13.962  3.0969  0.0517  1.4844
11601TIP3   OH256217   0.512   3.115   5.826  0.1657 -0.2872  0.5548
11601TIP3    H156218   0.486   3.044   5.767  1.4532  0.4935 -1.0557
11601TIP3    H256219   0.586   3.079   5.876 -0.0771 -0.5268  0.7423
11602TIP3   OH256220   4.842   6.063  10.958 -0.1674 -0.3236 -0.2733
11602TIP3    H156221   4.769   6.039  10.900 -0.4563  0.1437 -0.1037
11602TIP3    H256222   4.905   6.105  10.900 -0.1930 -0.3923 -0.3524
11603TIP3   OH256223   2.575   2.188   0.319  0.0276 -0.5847 -0.6935
11603TIP3    H156224   2.536   2.201   0.406  1.6135  1.5197 -0.2132
11603TIP3    H256225   2.524   2.117   0.280 -1.6805 -0.5902  1.3791
11604TIP3   OH256226   1.581   1.231  14.796 -0.1139  0.3408 -0.0131
11604TIP3    H156227   1.609   1.320  14.777 -0.8542  0.7215  0.6382
11604TIP3    H256228   1.517   1.211  14.727 -0.9400  0.8108  0.6001
11605TIP3   OH256229   2.478   2.944   1.703  0.1518  0.0972  0.7699
11605TIP3    H156230   2.488   2.994   1.622  1.8841 -0.7510  0.4150
11605TIP3    H256231   2.392   2.970   1.737 -0.8832  0.0270 -1.6274
11606TIP3   OH256232   6.732   2.128   4.558 -0.3227  0.0667 -0.1487
11606TIP3    H156233   6.660   2.155   4.500 -0.1404  0.5647 -0.1499
11606TIP3    H256234   6.811   2.156   4.513 -0.2084  1.1760  0.6826
11607TIP3   OH256235   1.498   3.996  13.909  0.5142  0.2561  0.3653
11607TIP3    H156236   1.467   3.925  13.853  0.7089 -2.6693  3.5969
11607TIP3    H256237   1.431   4.064  13.902 -0.7952 -1.1240 -1.2862
11608TIP3   OH256238   3.836   3.644   4.601  0.0509 -0.6200 -0.3413
11608TIP3    H156239   3.929   3.661   4.615 -0.0650 -0.9073  0.8204
11608TIP3    H256240   3.791   3.691   4.671 -0.6723 -0.7127 -0.7235
11609TIP3   OH256241   2.829   5.019  13.035  0.4935  0.1030 -0.3223
11609TIP3    H156242   2.842   5.049  13.125  0.7295 -0.7034 -0.0749
11609TIP3    H256243   2.903   4.960  13.018  0.5005  0.3109 -1.0776
11610TIP3   OH256244   5.395   6.930   4.140  0.1559  0.1094  0.3132
11610TIP3    H156245   5.336   6.859   4.163 -1.1730  1.7147  2.1107
11610TIP3    H256246   5.344   6.986   4.081  0.3653  0.7989  0.7793
11611TIP3   OH256247   1.976   6.979   0.314  0.7403 -0.0819 -0.5882
11611TIP3    H156248   1.913   7.009   0.380  0.8801  0.0192 -0.5007
11611TIP3    H256249   2.039   6.926   0.362  0.7310 -0.1745 -0.6749
11612TIP3   OH256250   5.553   4.614   5.185  0.5712  0.2780  0.0690
11612TIP3    H156251   5.507   4.642   5.264  1.2065 -0.0435  0.5570
11612TIP3    H256252   5.645   4.619   5.208  0.8411  1.6516 -1.1467
11613TIP3   OH256253   3.385   6.513   5.857 -0.3691 -0.8029 -0.2579
11613TIP3    H156254   3.425   6.591   5.818  1.1360 -1.3554  0.1564
11613TIP3    H256255   3.292   6.536   5.864 -0.2177  0.3643 -1.5674
11614TIP3   OH256256   6.681   6.348   5.344 -0.0618 -0.2189  0.1548
11614TIP3    H156257   6.723   6.314   5.265 -0.3484  1.8655 -0.9501
11614TIP3    H256258   6.753   6.388   5.394 -0.1744  0.2092 -0.0214
11615TIP3   OH256259   1.665   7.022   5.722  0.0649  0.3298 -0.1105
11615TIP3    H156260   1.729   7.090   5.742  0.9032 -0.9379  1.7865
11615TIP3    H256261   1.580   7.063   5.741  0.5366  0.9570  0.7361
11616TIP3   OH256262   2.484   1.321  14.986 -0.1403 -0.7801  0.1701
11616TIP3    H156263   2.394   1.292  15.001 -0.6765 -0.3232 -1.7683
11616TIP3    H256264   2.519   1.258  14.924  0.2748 -0.0124 -0.3980
11617TIP3   OH256265   3.014   5.720   5.406  0.1310 -0.1349  0.2118
11617TIP3    H156266   3.096   5.740   5.452  0.9671 -0.1424 -1.2240
11617TIP3    H256267   3.010   5.625   5.407  0.0947 -0.1324  0.3557
11618TIP3   OH256268   5.216   0.148   9.720  0.6780  0.1418 -0.0515
11618TIP3    H156269   5.208   0.057   9.751  0.6966 -0.3989 -1.5666
11618TIP3    H256270   5.272   0.142   9.643  1.7502  1.6304  0.5719
11619TIP3   OH256271   3.808   0.613  12.686  0.1662  0.8910 -0.1865
11619TIP3    H156272   3.716   0.601  12.662  0.5018 -2.3252 -0.2114
11619TIP3    H256273   3.854   0.620  12.602  0.3235 -1.4099 -0.3434
11620TIP3   OH256274   1.314   3.535   0.780  0.3707  0.0947 -0.5536
11620TIP3    H156275   1.303   3.517   0.686 -0.8308  0.3438 -0.4701
11620TIP3    H256276   1.361   3.459   0.813 -2.9282 -2.1377 -0.5724
11621TIP3   OH256277   2.913   6.789  12.158 -0.3907  0.0345  0.4334
11621TIP3    H156278   2.935   6.753  12.072  1.3453 -0.9567  1.2463
11621TIP3    H256279   2.899   6.712  12.214 -0.9685  0.6646  1.1809
11622TIP3   OH256280   1.292   0.073   4.464  0.3061  0.3573  0.0689
11622TIP3    H156281   1.219   0.061   4.524  0.6733 -1.1641  0.2645
11622TIP3    H256282   1.354   0.004   4.488  1.9204  1.7620  0.0790
11623TIP3   OH256283   3.081   3.621  12.039 -0.4779 -0.1140  0.2084
11623TIP3    H156284   3.083   3.712  12.068  0.5032  0.3189 -1.1070
11623TIP3    H256285   3.088   3.626  11.944  2.1459 -1.5820  0.2070
11624TIP3   OH256286   0.152   4.746   4.193 -0.3899  0.0569  0.1524
11624TIP3    H156287   0.200   4.826   4.214  0.0273 -0.5404  1.5871
11624TIP3    H256288   0.152   4.696   4.275  0.8695 -2.2171 -1.1590
11625TIP3   OH256289   0.532   2.719   4.347 -0.4036  0.4233  0.5808
11625TIP3    H156290   0.605   2.706   4.286 -0.5052  0.1688  0.5129
11625TIP3    H256291   0.569   2.700   4.433 -0.2033  0.9901  0.6261
11626TIP3   OH256292   3.230   6.281   3.126 -0.8249 -0.1414  0.3504
11626TIP3    H156293   3.156   6.294   3.067  0.6609  0.8070 -1.4162
11626TIP3    H256294   3.289   6.354   3.108  1.6360 -2.0718 -0.0635
11627TIP3   OH256295   3.595   5.887   0.979 -0.2528 -0.0219  0.9105
11627TIP3    H156296   3.676   5.889   1.030 -0.3125 -0.8728  1.0539
11627TIP3    H256297   3.618   5.837   0.900  0.2510  2.5182 -0.6494
11628TIP3   OH256298   4.833   3.092  14.254 -0.3900  0.3059  0.1071
11628TIP3    H156299   4.880   3.141  14.187 -0.4818  0.3485  0.0727
11628TIP3    H256300   4.830   3.151  14.329  1.2899 -0.4205  0.7798
11629TIP3   OH256301   5.481   3.727  14.496 -0.2036  0.6145 -0.5300
11629TIP3    H156302   5.419   3.654  14.503  1.2330 -0.5944  0.1514
11629TIP3    H256303   5.459   3.784  14.569  0.9129 -0.9983  1.1643
11630TIP3   OH256304   2.587   6.814  15.401  0.2374 -0.3693 -0.6652
11630TIP3    H156305   2.669   6.771  15.378  1.4049  1.2803  0.1942
11630TIP3    H256306   2.599   6.905  15.374 -0.2928  0.4728  1.7149
11631TIP3   OH256307   1.432   6.964  10.339 -0.2768  0.5607  0.3291
11631TIP3    H156308   1.499   6.989  10.402  1.0546 -0.6933 -0.5228
11631TIP3    H256309   1.393   6.884  10.375 -0.7833  0.8428  0.4264
11632TIP3   OH256310   4.377   6.697   1.811  0.3168  0.3669  0.2457
11632TIP3    H156311   4.312   6.682   1.742  2.6139 -2.2477 -1.5819
11632TIP3    H256312   4.436   6.762   1.774 -0.0436  1.1487  1.0158
11633TIP3   OH256313   3.485   0.477   1.032  0.4134 -0.5629  0.0870
11633TIP3    H156314   3.456   0.559   1.073 -1.4757 -1.5152  0.7565
11633TIP3    H256315   3.468   0.410   1.098  2.8061 -1.4287 -0.0896
11634TIP3   OH256316   2.969   0.701   4.549  0.6709  0.7685  0.3403
11634TIP3    H156317   2.977   0.659   4.635 -0.2508 -0.5699 -0.1966
11634TIP3    H256318   3.059   0.710   4.519  0.9735  0.7238  1.1925
11635TIP3   OH256319   4.561   4.654  15.484  0.5945  0.2309 -0.1889
11635TIP3    H156320   4.631   4.597  15.452  1.0367 -0.4135  1.8025
11635TIP3    H256321   4.604   4.738  15.501  0.7085  0.0939  0.2109
11636TIP3   OH256322   5.854   6.620   1.387  0.2312  0.3483  0.2632
11636TIP3    H156323   5.848   6.556   1.458 -1.5091 -1.1873 -1.1639
11636TIP3    H256324   5.867   6.704   1.431  1.2736 -0.7884  2.2691
11637TIP3   OH256325   6.237   6.532   1.790 -0.1268  0.0331 -0.2763
11637TIP3    H156326   6.290   6.463   1.828  0.2966 -0.3211 -1.4554
11637TIP3    H256327   6.227   6.597   1.860  0.7999 -0.4835  0.3512
11638TIP3   OH256328   5.427   0.591   3.341  0.4455 -0.2236 -0.0081
11638TIP3    H156329   5.388   0.506   3.364  2.6474 -1.1169  0.7224
11638TIP3    H256330   5.353   0.647   3.322 -1.1845 -1.7914  1.3483
11639TIP3   OH256331   0.943   1.467  14.609  0.7230  0.2708  0.2080
11639TIP3    H156332   1.011   1.457  14.675 -0.0913 -0.4380  0.9638
11639TIP3    H256333   0.905   1.553  14.626  0.9348  0.3555  0.2550
11640TIP3   OH256334   5.682   0.398  13.140 -0.5150  0.3873  0.0427
11640TIP3    H156335   5.620   0.367  13.074  0.0982 -1.3912  0.2622
11640TIP3    H256336   5.752   0.440  13.090  0.2894 -1.5572 -0.5215
11641TIP3   OH256337   4.994   5.360  13.420  0.6860  0.6186  0.1236
11641TIP3    H156338   5.071   5.386  13.471  1.5646 -2.2625  0.4562
11641TIP3    H256339   5.029   5.335  13.335 -0.3652  2.3982 -0.8747
11642TIP3   OH256340   7.032   3.496  14.976  0.2351  0.0405 -0.2817
11642TIP3    H156341   6.964   3.563  14.983 -0.5237 -0.1186 -3.7907
11642TIP3    H256342   7.114   3.543  14.987 -0.3543  0.8853  0.6544
11643TIP3   OH256343   3.607   1.131   4.817  0.3178  0.0531 -0.4206
11643TIP3    H156344   3.575   1.221   4.826  0.4385  0.3227 -2.2872
11643TIP3    H256345   3.667   1.135   4.742  2.3655 -1.0564  1.0615
11644TIP3   OH256346   3.456   5.821   3.477 -0.4246 -0.0338  0.1774
11644TIP3    H156347   3.470   5.788   3.389 -0.9255  0.1316  0.0302
11644TIP3    H256348   3.544   5.839   3.511 -0.1736 -0.9607  0.0524
11645TIP3   OH256349   1.604   2.165   5.267 -0.4328  0.1304  0.4679
11645TIP3    H156350   1.657   2.225   5.319 -0.9248  0.4343  0.6291
11645TIP3    H256351   1.519   2.209   5.258 -0.6195 -0.2875  0.1071
11646TIP3   OH256352   3.502   2.915  14.734 -0.4936  0.2668 -0.1874
11646TIP3    H156353   3.521   2.822  14.746  0.6114  0.3342 -1.2265
11646TIP3    H256354   3.448   2.919  14.656 -1.5300  0.4170  0.5226
11647TIP3   OH256355   4.500   3.921  13.728 -0.6865 -0.3555 -0.2518
11647TIP3    H156356   4.457   3.986  13.783 -0.0503  0.0167 -0.1823
11647TIP3    H256357   4.593   3.943  13.733 -0.5691 -0.6420 -1.0588
11648TIP3   OH256358   5.110   3.626   2.838 -0.8943  0.8772  0.4803
11648TIP3    H156359   5.076   3.675   2.763  0.4904  0.0043 -0.8004
11648TIP3    H256360   5.040   3.566   2.862 -0.8294  0.0498 -1.2100
11649TIP3   OH256361   3.242   0.048   4.068 -0.6068 -0.0193 -0.0263
11649TIP3    H156362   3.332   0.077   4.059 -0.5371  0.0129  0.6938
11649TIP3    H256363   3.198   0.079   3.989 -0.2140  0.8559  0.0830
11650TIP3   OH256364   1.200   3.583  10.070 -0.5024  0.0197 -0.4675
11650TIP3    H156365   1.216   3.614   9.980  2.2025  3.1996  0.8917
11650TIP3    H256366   1.277   3.531  10.092 -1.7413 -1.8422 -0.3153
11651TIP3   OH256367   3.715   2.145  15.090  0.3362  0.3729 -0.2857
11651TIP3    H156368   3.623   2.126  15.107  0.7317 -2.5164 -0.7970
11651TIP3    H256369   3.714   2.204  15.015 -1.0994  0.7196 -0.0125
11652TIP3   OH256370   2.651   1.111  13.376 -0.5804 -0.3887 -0.0568
11652TIP3    H156371   2.745   1.101  13.390  0.1740 -0.0065 -3.7177
11652TIP3    H256372   2.618   1.021  13.369  0.2301 -0.5846 -2.0273
11653TIP3   OH256373   4.408   2.472   1.881  0.5062  0.2678 -0.1848
11653TIP3    H156374   4.420   2.512   1.967 -1.7874  0.2780  0.2109
11653TIP3    H256375   4.472   2.401   1.878 -0.3017 -0.6849  2.1911
11654TIP3   OH256376   4.013   0.072  13.131 -0.6695 -0.1204  0.0493
11654TIP3    H156377   3.923   0.042  13.131 -0.9376  0.6461  0.4060
11654TIP3    H256378   4.025   0.112  13.217  0.6395 -1.9890  0.7852
11655TIP3   OH256379   1.434   1.384  10.263 -0.2261  0.0650 -0.7894
11655TIP3    H156380   1.495   1.315  10.237 -0.0133 -0.1452  0.2454
11655TIP3    H256381   1.348   1.341  10.260 -0.4597  0.5795 -3.0418
11656TIP3   OH256382   4.568   5.461   4.485  0.0405  0.1478  0.0883
11656TIP3    H156383   4.620   5.529   4.529  0.9135 -0.2771 -0.2767
11656TIP3    H256384   4.590   5.380   4.530 -1.7806  0.2074  1.2132
11657TIP3   OH256385   4.607   2.563  15.007  0.4547 -0.0183  0.4408
11657TIP3    H156386   4.566   2.477  15.012 -1.5577  0.7750 -0.9823
11657TIP3    H256387   4.534   2.625  15.011  1.6412  1.5560 -0.7531
11658TIP3   OH256388   7.074   3.977  14.756 -0.0081  0.4167  0.8191
11658TIP3    H156389   7.117   3.999  14.838  2.4417  1.6490 -0.6774
11658TIP3    H256390   7.141   3.932  14.705 -1.9223 -1.6723 -0.0010
11659TIP3   OH256391   6.372   6.438   0.081  0.5514  0.1581 -0.2482
11659TIP3    H156392   6.388   6.353   0.040 -0.5180 -0.1686 -0.0148
11659TIP3    H256393   6.308   6.481   0.024  1.8569  1.2568 -0.9397
11660TIP3   OH256394   6.157   6.442   1.175 -0.3317  0.3657 -0.1471
11660TIP3    H156395   6.061   6.440   1.168 -0.4587  0.3094  1.3127
11660TIP3    H256396   6.182   6.519   1.123 -1.1581  0.3436 -0.6050
11661TIP3   OH256397   1.451   3.130   5.026  0.6703  0.2403 -0.1302
11661TIP3    H156398   1.454   3.036   5.046  0.5563  0.0867 -0.8189
11661TIP3    H256399   1.460   3.173   5.111 -0.6889 -0.3966  0.3569
11662TIP3   OH256400   5.323   3.473   1.215 -0.5443  0.5805  0.0459
11662TIP3    H156401   5.326   3.395   1.271 -1.6231  0.6376  0.1897
11662TIP3    H256402   5.301   3.545   1.274  1.9533  1.3146  0.2103
11663TIP3   OH256403   5.556   6.647   1.528  0.2062 -0.0675 -0.2341
11663TIP3    H156404   5.634   6.703   1.522  0.8208 -0.8330  0.3341
11663TIP3    H256405   5.549   6.626   1.621  0.4873 -1.5936 -0.5292
11664TIP3   OH256406   7.116   3.044  12.641  0.5374 -0.5245 -0.1329
11664TIP3    H156407   7.077   3.025  12.726 -0.9982 -0.9129 -0.8943
11664TIP3    H256408   7.155   2.961  12.613 -0.4915 -0.8757 -0.5671
11665TIP3   OH256409   4.876   3.539  11.684  0.5987 -0.0306 -0.3718
11665TIP3    H156410   4.807   3.586  11.730 -0.4737  0.2039 -2.1719
11665TIP3    H256411   4.835   3.458  11.654  1.3188 -0.2448 -0.8068
11666TIP3   OH256412   0.084   2.003   9.754  0.0700 -0.1272  0.1750
11666TIP3    H156413   0.116   1.951   9.827 -0.3367 -0.9271 -0.2053
11666TIP3    H256414   0.053   2.085   9.793  2.9860  0.9315  0.5433
11667TIP3   OH256415   2.061   2.129   3.802 -0.0533  0.0036 -1.2526
11667TIP3    H156416   2.134   2.189   3.817  1.8684 -2.8844  2.5004
11667TIP3    H256417   1.995   2.155   3.866  1.5185 -2.6191  1.7024
11668TIP3   OH256418   5.176   6.057   3.188  0.0839  0.1384 -0.2387
11668TIP3    H156419   5.105   6.121   3.180  0.4937  0.8701  1.5622
11668TIP3    H256420   5.162   6.016   3.273  0.7952 -1.0121 -0.6565
11669TIP3   OH256421   2.290   5.423  13.630  0.3884  0.0519 -0.1449
11669TIP3    H156422   2.254   5.483  13.695 -0.2418 -1.1578  0.6762
11669TIP3    H256423   2.383   5.419  13.649  0.3924  0.5696 -0.0516
11670TIP3   OH256424   4.961   3.930   5.180  0.2565  0.5967 -0.5972
11670TIP3    H156425   4.926   3.955   5.266  0.1472  3.5246 -1.3845
11670TIP3    H256426   4.892   3.877   5.141 -0.2963  0.4224  0.5521
11671TIP3   OH256427   3.411   3.649  15.204  0.5068  0.0909 -0.2723
11671TIP3    H156428   3.362   3.595  15.142  0.6090  0.6655 -0.8615
11671TIP3    H256429   3.460   3.710  15.149  0.7538  0.4787  0.3701
11672TIP3   OH256430   1.776   1.011  14.739  0.3999  0.3077 -0.0302
11672TIP3    H156431   1.819   1.051  14.663  2.8116  1.0558  1.6128
11672TIP3    H256432   1.840   0.950  14.775 -1.3113 -1.2850  0.5097
11673TIP3   OH256433   4.583   6.195  11.981 -0.3004 -0.3588 -0.0440
11673TIP3    H156434   4.506   6.202  12.038  1.5370 -0.3523  2.6335
11673TIP3    H256435   4.560   6.245  11.903 -1.1848  4.2545  2.7928
11674TIP3   OH256436   2.531   2.799  13.498 -0.4065  1.1692  0.2363
11674TIP3    H156437   2.481   2.763  13.571 -0.0558 -2.5851 -1.1542
11674TIP3    H256438   2.618   2.816  13.534  0.0964 -1.6777  0.6265
11675TIP3   OH256439   6.960   5.525   2.603 -0.9945  0.3208 -0.4907
11675TIP3    H156440   7.044   5.500   2.564 -0.7778 -1.7270  1.0859
11675TIP3    H256441   6.972   5.509   2.697 -3.5111 -1.3235 -0.3513
11676TIP3   OH256442   1.430   0.111   0.836 -0.4019  0.2194  0.5025
11676TIP3    H156443   1.336   0.114   0.851 -0.2110  0.2714  1.7928
11676TIP3    H256444   1.448   0.019   0.814 -0.7802  0.2719 -0.0643
11677TIP3   OH256445   4.558   3.517   1.151  0.3447 -0.3479  0.2243
11677TIP3    H156446   4.552   3.468   1.233  1.2722  0.1544  0.6028
11677TIP3    H256447   4.647   3.551   1.149  0.2883 -0.2107 -0.9206
11678TIP3   OH256448   1.687   2.279   3.653  0.4798 -1.1054 -0.6564
11678TIP3    H156449   1.755   2.324   3.704 -0.5416 -0.6670  0.3681
11678TIP3    H256450   1.662   2.343   3.586 -0.1141 -0.5854  0.0424
11679TIP3   OH256451   6.859   2.591  11.944 -0.5062  0.8127 -0.5553
11679TIP3    H156452   6.905   2.655  11.890  2.6017 -0.1158  0.7715
11679TIP3    H256453   6.856   2.511  11.891  0.4955  0.5477 -0.2244
11680TIP3   OH256454   5.738   4.907  11.242 -0.0759  0.2104  0.3678
11680TIP3    H156455   5.706   4.867  11.161 -0.2079  1.1777 -0.0673
11680TIP3    H256456   5.683   4.871  11.311 -0.4857 -0.0064 -0.0724
11681TIP3   OH256457   7.021   3.881  13.063 -0.0305 -0.0539  0.0460
11681TIP3    H156458   7.098   3.936  13.079  0.4444 -0.7930  0.3856
11681TIP3    H256459   6.955   3.941  13.029  0.5402  0.6840  0.2099
11682TIP3   OH256460   4.485   3.089  10.520 -0.1151 -0.1425  0.0585
11682TIP3    H156461   4.477   2.996  10.496 -3.7391  0.4645 -1.5769
11682TIP3    H256462   4.566   3.117  10.476 -0.2721 -1.9329 -1.5338
11683TIP3   OH256463   2.335   2.003  12.220 -0.1369 -0.9066 -0.0934
11683TIP3    H156464   2.297   1.949  12.289  0.9207 -0.6569  0.7142
11683TIP3    H256465   2.301   1.966  12.138  1.8943 -3.9622  0.2757
11684TIP3   OH256466   5.117   3.362   2.567  0.2659 -0.1062  0.6285
11684TIP3    H156467   5.127   3.432   2.502  1.7444  0.8050  1.7827
11684TIP3    H256468   5.195   3.308   2.556 -0.8992 -1.6906 -0.3033
11685TIP3   OH256469   6.441   5.207   4.669  0.0700 -0.0486  0.2658
11685TIP3    H156470   6.519   5.228   4.618 -2.0151  1.2489 -2.6912
11685TIP3    H256471   6.427   5.114   4.652  0.6757 -0.1717  0.3990
11686TIP3   OH256472   6.273   5.746  10.841  0.4180  0.3753 -0.1404
11686TIP3    H156473   6.333   5.818  10.822  1.3509 -0.6036 -0.9682
11686TIP3    H256474   6.259   5.703  10.757 -0.7256  0.0305  0.2054
11687TIP3   OH256475   1.393   6.189  14.524 -0.3836 -0.4897 -0.6302
11687TIP3    H156476   1.458   6.127  14.556  0.0365 -0.1221 -0.7721
11687TIP3    H256477   1.400   6.264  14.584 -2.0376 -1.2240  0.5939
11688TIP3   OH256478   2.472   6.081   1.975  0.3367  0.4216  0.1308
11688TIP3    H156479   2.420   6.100   1.897 -1.4320 -1.3338  0.7752
11688TIP3    H256480   2.562   6.096   1.949 -0.2663  0.6336 -2.0147
11689TIP3   OH256481   4.390   4.039   5.446  0.1678 -0.0829  0.1062
11689TIP3    H156482   4.479   4.074   5.452  0.2040 -0.2974  1.0030
11689TIP3    H256483   4.382   3.981   5.522 -0.0034 -1.7728 -1.1300
11690TIP3   OH256484   4.840   6.163   4.115  0.1912  0.3997  0.3884
11690TIP3    H156485   4.848   6.074   4.081 -0.9990  0.4090  0.0676
11690TIP3    H256486   4.750   6.189   4.096  0.1950  1.2774  1.4418
11691TIP3   OH256487   0.164   1.374  12.987 -0.0149 -0.3408 -0.1443
11691TIP3    H156488   0.251   1.335  12.986  0.0801 -0.1294 -0.9067
11691TIP3    H256489   0.106   1.302  12.962  0.0826 -0.1744 -0.8607
11692TIP3   OH256490   0.910   1.545   1.832  0.3804 -0.0078  0.0173
11692TIP3    H156491   0.896   1.636   1.805  1.7341  0.2327  0.0354
11692TIP3    H256492   1.005   1.537   1.837  0.2670 -1.4018  0.1265
11693TIP3   OH256493   0.630   1.465  11.520 -0.0969  0.5132 -0.4837
11693TIP3    H156494   0.555   1.430  11.472 -2.0916  0.4081  2.4499
11693TIP3    H256495   0.702   1.405  11.499 -1.7783 -1.5832 -0.5838
11694TIP3   OH256496   2.972   3.646  14.823 -0.3117 -0.3883 -0.1632
11694TIP3    H156497   2.963   3.636  14.917 -1.0603 -0.5771 -0.2456
11694TIP3    H256498   2.892   3.607  14.787 -0.0435 -0.3014 -0.8715
11695TIP3   OH256499   5.311   5.517   3.094 -0.0402  0.3744 -0.0641
11695TIP3    H156500   5.324   5.466   3.015  1.3180  1.2365 -0.4236
11695TIP3    H256501   5.370   5.478   3.158  0.0403  0.6769  0.0485
11696TIP3   OH256502   0.990   0.670   2.053  0.2030 -0.2377  0.1046
11696TIP3    H156503   1.007   0.732   1.982  0.2429  0.7978  1.0061
11696TIP3    H256504   1.054   0.599   2.038  2.8208  1.7283  1.2128
11697TIP3   OH256505   3.726   6.805  15.419 -0.1508 -0.2185  0.0262
11697TIP3    H156506   3.783   6.799  15.496 -0.6655  0.4388  0.4685
11697TIP3    H256507   3.748   6.889  15.379 -0.4340 -0.2021 -0.1019
11698TIP3   OH256508   2.923   2.094   3.182  0.3186  0.3330  0.1967
11698TIP3    H156509   2.846   2.041   3.202  0.5564  0.5286  1.8113
11698TIP3    H256510   2.892   2.160   3.121 -0.8451  0.4774  0.9217
11699TIP3   OH256511   5.903   2.275   2.209 -0.1702  0.1259  0.2450
11699TIP3    H156512   5.992   2.299   2.235 -0.2516 -0.3418  1.0083
11699TIP3    H256513   5.874   2.214   2.278 -0.6209 -0.6988 -0.6548
11700TIP3   OH256514   1.526   3.552  10.421  0.4348 -0.0696 -0.2040
11700TIP3    H156515   1.574   3.620  10.468 -0.9250  2.0835 -1.6972
11700TIP3    H256516   1.448   3.537  10.474 -0.3456  1.2284 -0.9300
11701TIP3   OH256517   1.925   2.256   5.191 -0.1719 -0.6501 -0.6515
11701TIP3    H156518   1.891   2.200   5.262 -2.0293  0.9732 -0.1653
11701TIP3    H256519   1.937   2.341   5.232  0.5263 -0.1402 -1.8812
11702TIP3   OH256520   6.287   6.544  15.037 -0.1607 -0.1274  0.4748
11702TIP3    H156521   6.213   6.486  15.053 -0.4611  0.8034  2.8304
11702TIP3    H256522   6.266   6.624  15.085  1.1649  1.1916 -1.0204
11703TIP3   OH256523   5.664   6.506   0.306 -0.3089  0.5013 -0.5907
11703TIP3    H156524   5.723   6.566   0.351 -0.4806 -0.2819  0.7317
11703TIP3    H256525   5.644   6.439   0.371  0.3340 -1.3232 -2.2123
11704TIP3   OH256526   0.849   5.887   0.073 -0.2677  0.4834 -0.2520
11704TIP3    H156527   0.896   5.816   0.030  0.2111  0.9117 -0.4501
11704TIP3    H256528   0.918   5.944   0.108 -0.6441  0.4488  0.5796
11705TIP3   OH256529   5.512   0.556   5.358  0.1696  0.0349 -0.4354
11705TIP3    H156530   5.571   0.597   5.420  0.2692  0.1623 -0.6111
11705TIP3    H256531   5.553   0.472   5.338  1.5827  1.0817 -2.3778
11706TIP3   OH256532   3.849   4.290   0.425  0.1361 -0.0425 -0.1922
11706TIP3    H156533   3.820   4.288   0.334  0.2681  2.7538 -0.3690
11706TIP3    H256534   3.943   4.304   0.420 -0.2791  4.4268  0.1605
11707TIP3   OH256535   1.591   0.495   3.002  0.2899 -0.5974 -0.2076
11707TIP3    H156536   1.506   0.523   2.968  1.3324  2.1738 -0.7961
11707TIP3    H256537   1.634   0.454   2.927 -0.3466 -1.6580 -0.0118
11708TIP3   OH256538   6.329   0.602   4.797 -0.3805 -0.3496  0.0513
11708TIP3    H156539   6.249   0.610   4.850 -1.1941  1.2871 -1.3440
11708TIP3    H256540   6.352   0.692   4.774  2.3135 -0.7105  0.9815
11709TIP3   OH256541   1.001   0.441   2.845  0.6190  0.5851 -0.8252
11709TIP3    H156542   1.091   0.434   2.875  0.4721  0.3223 -0.4472
11709TIP3    H256543   0.975   0.531   2.867 -0.4026 -0.3610  2.4539
11710TIP3   OH256544   0.904   6.115  15.224  0.7284 -0.1835  0.3915
11710TIP3    H156545   0.875   6.027  15.247 -1.7002  0.7628  1.2745
11710TIP3    H256546   0.999   6.114  15.239  0.9111 -2.8410 -0.4514
11711TIP3   OH256547   2.547   6.125  12.021  0.3461  0.1054  0.7747
11711TIP3    H156548   2.630   6.116  11.974 -0.5041  0.3746 -0.8210
11711TIP3    H256549   2.572   6.165  12.105  1.7399  0.8932  0.0273
11712TIP3   OH256550   0.134   2.329  12.220  0.1970 -0.1132  0.6821
11712TIP3    H156551   0.230   2.331  12.226  0.2292 -1.2952  0.7189
11712TIP3    H256552   0.116   2.346  12.128  0.5158 -1.3441  0.3781
11713TIP3   OH256553   7.048   6.008  13.970  0.1673  0.6909  0.3754
11713TIP3    H156554   6.958   6.023  13.943 -0.1806  0.6154  1.4667
11713TIP3    H256555   7.101   6.038  13.895 -0.8108 -2.9436 -2.0371
11714TIP3   OH256556   0.183   5.601  10.939  0.2193  0.2239  0.0599
11714TIP3    H156557   0.225   5.662  10.879  0.3043  1.1528  1.0296
11714TIP3    H256558   0.091   5.598  10.911  0.4417 -0.0704 -0.6679
11715TIP3   OH256559   3.544   1.519  12.934  0.4307 -0.7434 -0.2487
11715TIP3    H156560   3.488   1.515  12.856  0.4810 -0.6408 -0.2910
11715TIP3    H256561   3.615   1.578  12.910 -0.5316  0.7808  0.4913
11716TIP3   OH256562   4.333   5.436  13.524 -0.2717 -0.3794  0.3864
11716TIP3    H156563   4.357   5.528  13.517  0.7117 -0.6875 -0.4536
11716TIP3    H256564   4.301   5.427  13.614 -0.1998  0.7315  0.5415
11717TIP3   OH256565   2.784   1.686  13.473  0.7758 -0.1630 -0.0308
11717TIP3    H156566   2.737   1.693  13.390 -2.0079 -0.7509  1.3722
11717TIP3    H256567   2.723   1.723  13.538  1.4199 -2.7032  2.1836
11718TIP3   OH256568   6.567   3.963   9.850  0.6737  0.2517 -0.4141
11718TIP3    H156569   6.500   4.026   9.823 -0.2324 -0.3926  0.2959
11718TIP3    H256570   6.598   3.925   9.768 -0.5225 -0.1356 -0.7051
11719TIP3   OH256571   6.769   0.793   5.089  0.6391 -0.6946  0.0851
11719TIP3    H156572   6.739   0.732   5.156 -0.9669  1.3108  1.2887
11719TIP3    H256573   6.862   0.808   5.110  0.6493 -1.5294  0.6900
11720TIP3   OH256574   2.689   1.142   3.565 -0.2516 -0.0910  0.9214
11720TIP3    H156575   2.719   1.128   3.655 -0.3678  0.1256  0.9953
11720TIP3    H256576   2.690   1.237   3.554  1.1640 -0.1728  0.2082
11721TIP3   OH256577   1.327   6.352   3.847 -0.3314 -0.1394 -0.2327
11721TIP3    H156578   1.335   6.331   3.940 -1.1529  1.9844  0.3753
11721TIP3    H256579   1.236   6.380   3.837  0.1421  1.0829 -1.3515
11722TIP3   OH256580   0.622   5.942   2.899  0.5013 -0.4193  0.5736
11722TIP3    H156581   0.584   5.925   2.813 -1.2856  0.9619  1.0188
11722TIP3    H256582   0.651   5.856   2.930  0.9083 -0.9842 -1.2597
11723TIP3   OH256583   5.893   1.870   4.354  0.2681 -0.1820  0.2067
11723TIP3    H156584   5.849   1.907   4.430  0.3729 -1.6526  1.0263
11723TIP3    H256585   5.969   1.927   4.340 -0.4410  0.8431  0.3833
11724TIP3   OH256586   0.862   0.814   4.213  0.4105  0.0478  0.0668
11724TIP3    H156587   0.778   0.846   4.180 -0.0771 -1.6047 -0.3825
11724TIP3    H256588   0.861   0.835   4.306  0.1604  1.3508 -0.1989
11725TIP3   OH256589   4.613   1.246   0.499  0.1503 -0.8789 -0.4404
11725TIP3    H156590   4.641   1.154   0.503 -0.0395 -0.9189  0.1473
11725TIP3    H256591   4.518   1.242   0.488  0.0627 -0.7646  0.2122
11726TIP3   OH256592   2.073   4.562  13.474  0.1548 -0.6537 -0.3618
11726TIP3    H156593   2.132   4.550  13.400  0.1233 -0.5887 -0.3970
11726TIP3    H256594   2.014   4.632  13.448  0.2835 -0.4794 -0.1912
11727TIP3   OH256595   5.817   3.409   3.649  0.3072 -0.5171 -0.1434
11727TIP3    H156596   5.787   3.488   3.694 -0.1670 -0.1455 -1.0832
11727TIP3    H256597   5.781   3.336   3.699  0.2292 -0.1237  0.3689
11728TIP3   OH256598   1.356   5.688   9.420  0.1981 -0.3696 -0.1904
11728TIP3    H156599   1.423   5.621   9.436  0.2657 -0.7358 -1.8321
11728TIP3    H256600   1.274   5.642   9.436  0.2823 -0.3635  0.2926
11729TIP3   OH256601   4.569   1.767  13.194  0.6604  0.0385 -0.3520
11729TIP3    H156602   4.605   1.754  13.106  0.6666  0.3046 -0.3888
11729TIP3    H256603   4.621   1.837  13.232  1.1039 -0.5405  0.1217
11730TIP3   OH256604   5.714   2.151   0.351  0.1529  0.2811  0.2640
11730TIP3    H156605   5.647   2.218   0.367 -0.4928  0.1725 -1.7524
11730TIP3    H256606   5.690   2.112   0.268  0.6494 -2.3496  1.2716
11731TIP3   OH256607   2.690   0.954   2.851  0.5049  0.3068 -0.3594
11731TIP3    H156608   2.658   0.987   2.767  1.7419  1.6322 -0.3603
11731TIP3    H256609   2.743   0.878   2.829 -1.5834 -1.2091 -0.4554
11732TIP3   OH256610   6.787   5.004   5.321  0.3774 -0.1709 -0.1285
11732TIP3    H156611   6.877   4.976   5.339  0.6959  1.7458  1.6935
11732TIP3    H256612   6.796   5.067   5.250  0.3901 -0.3958 -0.3284
11733TIP3   OH256613   7.035   0.165  14.081 -0.5409  0.4110 -0.4094
11733TIP3    H156614   7.046   0.131  13.992 -0.7403 -0.3855 -0.1385
11733TIP3    H256615   6.996   0.252  14.069 -2.9474 -0.6819 -1.0339
11734TIP3   OH256616   2.760   2.423  12.745 -0.2408 -0.1431  0.0856
11734TIP3    H156617   2.766   2.336  12.784 -0.2169 -1.5415 -2.7545
11734TIP3    H256618   2.826   2.474  12.792 -0.7175 -1.4201  2.2848
11735TIP3   OH256619   2.112   0.051  10.461  0.4068 -0.3304 -0.0722
11735TIP3    H156620   2.148  -0.023  10.412 -0.5596 -0.6688 -0.2763
11735TIP3    H256621   2.190   0.096  10.496  1.0713 -0.5427 -1.2283
11736TIP3   OH256622   6.055   6.142   0.901 -0.1370  0.3017 -0.7147
11736TIP3    H156623   6.037   6.104   0.987 -1.3652  1.4200 -0.4389
11736TIP3    H256624   6.011   6.227   0.903  1.8811  1.4321 -1.5725
11737TIP3   OH256625   3.169   4.766   4.865  0.3396  0.4621 -0.4014
11737TIP3    H156626   3.092   4.818   4.840 -0.2867  0.0518  0.6214
11737TIP3    H256627   3.190   4.796   4.954  1.1118  0.2722 -0.5157
11738TIP3   OH256628   0.493   0.233   5.342  0.4001 -0.3425  0.1233
11738TIP3    H156629   0.525   0.283   5.418 -1.1692  1.0963 -0.1096
11738TIP3    H256630   0.529   0.145   5.355  1.7475  0.3569  1.5169
11739TIP3   OH256631   1.685   5.809  13.827 -0.4906  0.1737  0.5096
11739TIP3    H156632   1.698   5.886  13.773  0.4647 -0.8818 -0.8134
11739TIP3    H256633   1.632   5.840  13.901 -1.1576  1.8156 -0.6069
11740TIP3   OH256634   6.175   5.077   9.740 -0.2213 -0.0947 -0.0917
11740TIP3    H156635   6.248   5.122   9.783 -0.5365  1.0144 -0.6686
11740TIP3    H256636   6.144   5.015   9.805  0.9426 -0.2711  0.3314
11741TIP3   OH256637   2.479   5.880  15.064  0.2901  0.0415 -0.4245
11741TIP3    H156638   2.574   5.885  15.060  0.2558  2.1179  0.5114
11741TIP3    H256639   2.450   5.970  15.075 -1.5847 -0.8263  3.3547
11742TIP3   OH256640   6.988   6.962   3.476  0.2154 -0.0159  0.0222
11742TIP3    H156641   6.992   6.866   3.476  1.4779  0.0051  0.8339
11742TIP3    H256642   6.964   6.984   3.566 -0.0820  0.4412 -0.1673
11743TIP3   OH256643   3.757   3.862   2.543 -0.0787 -0.4849  0.4419
11743TIP3    H156644   3.833   3.914   2.518 -1.6919  2.1359  0.6577
11743TIP3    H256645   3.702   3.861   2.465 -0.7003 -0.6862  0.8723
11744TIP3   OH256646   6.084   6.289  12.883  1.2318  0.1832 -0.4745
11744TIP3    H156647   6.056   6.366  12.933 -0.3954 -2.5444  3.3172
11744TIP3    H256648   6.170   6.268  12.918  0.6231 -1.0448  0.3420
11745TIP3   OH256649   2.947   5.397   3.756 -0.2530  0.1394  0.1666
11745TIP3    H156650   2.899   5.367   3.833  0.9341  0.0537  0.8941
11745TIP3    H256651   3.003   5.468   3.788  0.8246 -0.4086 -0.4171
11746TIP3   OH256652   3.628   7.137   2.977 -0.0955  0.4069 -0.6691
11746TIP3    H156653   3.623   7.177   2.891 -0.6745  0.2201 -0.7255
11746TIP3    H256654   3.719   7.150   3.004  0.1343  0.3009 -1.3803
11747TIP3   OH256655   4.312   2.234   2.841 -0.7525  0.0629  0.2735
11747TIP3    H156656   4.404   2.227   2.815 -0.9178 -1.5858  0.0517
11747TIP3    H256657   4.314   2.239   2.936 -0.4251  0.3956  0.2524
11748TIP3   OH256658   4.527   2.646  12.417 -0.0789 -0.4039  0.3502
11748TIP3    H156659   4.456   2.706  12.393  0.4064  0.4089  0.9125
11748TIP3    H256660   4.491   2.559  12.400 -0.3027  0.0534 -1.8165
11749TIP3   OH256661   2.546   5.664   1.750  0.1715 -0.3258  0.5060
11749TIP3    H156662   2.544   5.572   1.778 -1.4636 -0.4227  0.1642
11749TIP3    H256663   2.487   5.709   1.810 -0.4096  0.1629 -0.4068
11750TIP3   OH256664   1.213   0.788  11.326 -0.2223 -0.3849  0.0056
11750TIP3    H156665   1.244   0.749  11.407 -1.2496 -2.9788 -0.7313
11750TIP3    H256666   1.129   0.828  11.349 -0.5969 -1.2647  0.2250
11751TIP3   OH256667   4.317   2.910  13.852 -0.2190 -0.3125  0.5323
11751TIP3    H156668   4.357   2.995  13.869 -1.8948  0.1173  2.7298
11751TIP3    H256669   4.388   2.857  13.816  1.6623  1.1410  1.9048
11752TIP3   OH256670   1.240   1.462   4.342  0.6853 -0.2149 -0.0106
11752TIP3    H156671   1.237   1.448   4.437  0.9629  1.1849  0.2295
11752TIP3    H256672   1.234   1.375   4.305 -3.3294 -0.6486  1.1758
11753TIP3   OH256673   2.957   0.364   1.582  0.7467 -0.1183 -0.0718
11753TIP3    H156674   3.003   0.314   1.649  1.3909 -0.0894 -0.4872
11753TIP3    H256675   2.934   0.447   1.625  1.8708  0.2324 -0.1152
11754TIP3   OH256676   0.035   6.208   0.240 -0.5981 -0.2496 -0.2607
11754TIP3    H156677  -0.039   6.227   0.182  0.7144  1.1068 -1.5755
11754TIP3    H256678   0.095   6.157   0.186  0.6762  1.0915 -0.1590
11755TIP3   OH256679   3.824   5.215  15.428  0.1600  0.7173 -0.1548
11755TIP3    H156680   3.859   5.188  15.343  0.5992  1.8612 -0.3588
11755TIP3    H256681   3.884   5.284  15.458 -0.9377  1.5079  0.3000
11756TIP3   OH256682   4.060   1.131   5.547 -0.3281  0.5822 -0.2967
11756TIP3    H156683   4.048   1.143   5.641 -1.2262  0.0041 -0.3293
11756TIP3    H256684   4.114   1.206   5.520  1.6768 -0.3045  1.0145
11757TIP3   OH256685   2.065   6.083   1.202  0.5103 -0.3895  0.2448
11757TIP3    H156686   2.011   6.031   1.143  0.2104 -1.7887  1.6884
11757TIP3    H256687   2.005   6.151   1.235  1.2667  1.9486 -2.7465
11758TIP3   OH256688   1.159   3.211  13.974 -0.0804 -0.0080  0.7582
11758TIP3    H156689   1.080   3.244  13.932  0.5046  0.5119  0.0349
11758TIP3    H256690   1.227   3.274  13.949  0.8640 -1.2387  0.1209
11759TIP3   OH256691   5.138   3.428  11.744 -0.0873 -0.2855 -0.1310
11759TIP3    H156692   5.186   3.356  11.703 -0.7223 -0.4911 -0.5197
11759TIP3    H256693   5.056   3.434  11.695  0.5515  1.6455 -1.0285
11760TIP3   OH256694   5.526   7.110   2.287  0.3881  0.4044 -0.2998
11760TIP3    H156695   5.455   7.150   2.237  0.7518  0.8310 -0.4786
11760TIP3    H256696   5.484   7.036   2.333 -0.2786  0.9567 -0.0016
11761TIP3   OH256697   2.717   2.004   9.733 -0.0579 -0.0868  0.3388
11761TIP3    H156698   2.654   1.958   9.678  1.4846 -0.6590 -1.0452
11761TIP3    H256699   2.703   2.097   9.713  1.7424 -0.3067 -2.6961
11762TIP3   OH256700   0.736   0.126   3.406  0.1496 -0.2491  0.6025
11762TIP3    H156701   0.699   0.196   3.351  1.9890  0.6162  0.3776
11762TIP3    H256702   0.801   0.084   3.349 -0.9215 -2.1885  0.7378
11763TIP3   OH256703   0.219   3.396   3.634  0.0055  0.3230  0.4470
11763TIP3    H156704   0.212   3.492   3.634  1.4208  0.4558  0.1310
11763TIP3    H256705   0.130   3.365   3.619 -0.8030  1.5420  2.3580
11764TIP3   OH256706   0.861   3.915  13.896 -0.1008  0.2068 -0.1195
11764TIP3    H156707   0.933   3.970  13.865  0.7242 -0.9899 -0.3969
11764TIP3    H256708   0.877   3.830  13.855 -1.1136 -0.3523  0.6170
11765TIP3   OH256709   0.288   6.945  13.145 -0.1543 -0.4718  0.5563
11765TIP3    H156710   0.293   6.849  13.146  0.5659 -0.5524 -2.4713
11765TIP3    H256711   0.353   6.971  13.080 -2.9194  1.8252 -1.5370
11766TIP3   OH256712   1.936   3.674   2.192 -0.0847  0.0247  0.3804
11766TIP3    H156713   1.925   3.758   2.238  1.2818  0.3771  0.1052
11766TIP3    H256714   1.891   3.611   2.248 -1.3719  0.9764  0.4592
11767TIP3   OH256715   3.451   6.445  15.296  0.6090 -0.2012 -0.1833
11767TIP3    H156716   3.513   6.373  15.291  0.5515 -0.4372  1.7645
11767TIP3    H256717   3.432   6.454  15.390 -0.5726  1.3292 -0.5290
11768TIP3   OH256718   3.926   3.274  11.874 -0.1386  0.4497 -0.0184
11768TIP3    H156719   4.007   3.245  11.833 -0.0950  0.3777  0.1172
11768TIP3    H256720   3.856   3.234  11.822 -0.1525  2.0790 -1.3587
11769TIP3   OH256721   3.148   2.814  15.304 -0.1367  0.3073  0.5635
11769TIP3    H156722   3.212   2.858  15.360  1.4851 -0.4798 -0.5733
11769TIP3    H256723   3.156   2.721  15.326 -2.0007  0.3124  1.4451
11770TIP3   OH256724   2.302   5.720   2.891  0.3160 -0.5954 -0.3977
11770TIP3    H156725   2.309   5.811   2.865  0.1953  0.3203  2.4664
11770TIP3    H256726   2.392   5.688   2.894  0.4211 -0.3112 -0.5680
11771TIP3   OH256727   1.070   7.012   2.445  0.4742 -0.0969  0.5998
11771TIP3    H156728   1.060   7.019   2.350 -0.0932  1.5150  0.7520
11771TIP3    H256729   1.137   7.077   2.467  0.3440 -0.2032  1.3336
11772TIP3   OH256730   3.684   1.989   5.358 -0.1640 -0.3691  0.0196
11772TIP3    H156731   3.597   2.009   5.394 -1.0997 -0.3298 -2.1010
11772TIP3    H256732   3.666   1.962   5.267  1.7754 -2.9911  0.2961
11773TIP3   OH256733   0.933   6.844  13.794 -0.4026  0.4630  0.2425
11773TIP3    H156734   0.986   6.797  13.859 -0.3005  1.3867  0.8518
11773TIP3    H256735   0.843   6.833  13.825 -0.3326  1.1243  0.7040
11774TIP3   OH256736   6.401   1.459  14.196  0.0333 -0.2836  0.1505
11774TIP3    H156737   6.379   1.535  14.251  0.0733 -0.9152  1.0710
11774TIP3    H256738   6.497   1.454  14.201  0.0180 -0.4932  0.2350
11775TIP3   OH256739   1.190   4.154   4.072  0.2554  0.3220 -0.2900
11775TIP3    H156740   1.117   4.182   4.017  0.2105  0.3215 -0.2320
11775TIP3    H256741   1.184   4.058   4.073 -0.0543  0.3396  0.1261
11776TIP3   OH256742   2.501   1.863  14.854 -0.2074  0.4361 -0.4488
11776TIP3    H156743   2.491   1.877  14.760 -1.3874 -1.1223 -0.5966
11776TIP3    H256744   2.495   1.768  14.866  0.2669  0.5701  1.1676
11777TIP3   OH256745   4.256   4.805   0.009  0.8027  0.1655 -0.1217
11777TIP3    H156746   4.347   4.822  -0.014  1.0905  0.4840  1.1825
11777TIP3    H256747   4.260   4.734   0.073 -0.1001 -1.9811 -2.2911
11778TIP3   OH256748   6.812   2.054   4.098 -0.8621 -0.8044  0.4626
11778TIP3    H156749   6.757   1.981   4.070 -1.3847 -1.0206  1.9400
11778TIP3    H256750   6.891   2.012   4.133 -0.5103 -0.5810 -0.0596
11779TIP3   OH256751   0.960   3.325   1.815  0.2654 -0.2433  0.6798
11779TIP3    H156752   0.911   3.407   1.827  0.1770 -0.2516  0.3756
11779TIP3    H256753   1.044   3.341   1.859  1.1866  0.8475 -1.3506
11780TIP3   OH256754   1.701   1.820   2.263  0.3147 -0.2319 -0.0207
11780TIP3    H156755   1.645   1.858   2.330 -0.6074 -2.3386  0.4926
11780TIP3    H256756   1.657   1.842   2.180  0.4811  0.8167  0.1502
11781TIP3   OH256757   0.085   7.138   3.784 -0.2267 -0.4416 -0.8171
11781TIP3    H156758   0.086   7.227   3.818  0.5306 -0.6470 -0.2719
11781TIP3    H256759   0.142   7.141   3.707  1.0510 -0.7770  0.0909
11782TIP3   OH256760   6.005   2.035   2.615 -0.1350 -0.7289 -0.3425
11782TIP3    H156761   6.070   2.047   2.684 -0.9355 -3.6438  1.1086
11782TIP3    H256762   5.976   2.123   2.593  2.5216  0.4932  0.6815
11783TIP3   OH256763   5.511   6.952   2.547 -0.4802  0.5803 -0.7361
11783TIP3    H156764   5.499   6.896   2.623  0.9374  0.2017 -0.7718
11783TIP3    H256765   5.443   6.924   2.486  0.2277 -1.1544 -0.7815
11784TIP3   OH256766   7.163   6.679   4.060  0.2814 -0.8797 -0.1479
11784TIP3    H156767   7.166   6.648   3.969  0.7600 -0.7091 -0.1928
11784TIP3    H256768   7.229   6.748   4.063 -0.4210 -0.2079  0.0760
11785TIP3   OH256769   3.999   0.767   1.375 -0.0197  0.1746 -0.2012
11785TIP3    H156770   3.951   0.803   1.449  1.3099 -0.9122  1.2510
11785TIP3    H256771   4.086   0.807   1.381 -0.0731  0.5681 -1.5865
11786TIP3   OH256772   4.757   0.339  13.722 -0.3623 -0.0053 -0.2283
11786TIP3    H156773   4.735   0.427  13.751 -0.6675  0.2743 -1.2946
11786TIP3    H256774   4.691   0.283  13.764 -0.5849  0.3457 -0.1091
11787TIP3   OH256775   3.019   0.649  12.169  0.3378  0.4962  0.1802
11787TIP3    H156776   3.017   0.694  12.084 -0.2510 -2.7650 -1.6901
11787TIP3    H256777   2.930   0.614  12.180  0.7968 -0.3432  1.4641
11788TIP3   OH256778   3.220   6.622  14.235  0.0487 -0.1057  0.6404
11788TIP3    H156779   3.207   6.535  14.271 -1.1209  0.0506  0.6217
11788TIP3    H256780   3.156   6.629  14.164 -0.6053  1.1310  1.3070
11789TIP3   OH256781   0.531   5.873  14.306 -0.5945  0.4860  0.0356
11789TIP3    H156782   0.453   5.863  14.360  1.6866  1.4981  3.9569
11789TIP3    H256783   0.582   5.793  14.322  1.6117  2.1756  2.3564
11790TIP3   OH256784   6.971   7.139   0.444 -0.1793  0.1258 -0.1692
11790TIP3    H156785   6.997   7.202   0.377 -1.4744 -0.4909 -1.2978
11790TIP3    H256786   6.944   7.061   0.395  2.4672 -1.8273  1.1813
11791TIP3   OH256787   1.406   0.688  15.102  0.5982 -0.9520 -0.0379
11791TIP3    H156788   1.394   0.633  15.025 -0.0983 -0.6247 -0.1684
11791TIP3    H256789   1.375   0.635  15.175 -2.2524  0.0433 -0.4175
11792TIP3   OH256790   5.222   0.793   5.054  0.2400 -0.1018  0.4869
11792TIP3    H156791   5.308   0.751   5.064  1.0765  1.9551  3.1497
11792TIP3    H256792   5.231   0.849   4.977  0.1033 -2.3489 -1.2563
11793TIP3   OH256793   0.524   1.558  10.824 -0.4629  0.0081  0.3135
11793TIP3    H156794   0.455   1.549  10.890  1.6285 -0.1320  2.6174
11793TIP3    H256795   0.571   1.638  10.849  1.3898 -0.9326  0.0038
11794TIP3   OH256796   0.879   0.054   0.917 -0.6028 -0.0294 -0.5393
11794TIP3    H156797   0.805   0.064   0.978  0.0735  2.6447 -0.0298
11794TIP3    H256798   0.861   0.116   0.847 -0.0598 -1.1899 -1.7373
11795TIP3   OH256799   1.186   7.027   4.891  0.3672  0.6364  0.2823
11795TIP3    H156800   1.164   6.981   4.810  0.7511  3.9581 -1.9337
11795TIP3    H256801   1.277   7.056   4.878  1.2376 -0.5918  2.9396
11796TIP3   OH256802   2.044   1.148  12.334  0.2209 -0.0962 -0.5021
11796TIP3    H156803   2.048   1.221  12.273 -2.1689 -0.6835 -1.4872
11796TIP3    H256804   2.022   1.187  12.418 -0.7479  0.3676 -0.9578
11797TIP3   OH256805   2.042   4.488  10.937  0.1894 -0.3187  0.0583
11797TIP3    H156806   2.126   4.466  10.979 -1.7633 -0.9718  4.0770
11797TIP3    H256807   1.989   4.409  10.948 -1.0117  0.0268 -2.5591
11798TIP3   OH256808   3.388   2.903   1.698  0.2872  0.0369  0.1451
11798TIP3    H156809   3.304   2.860   1.714 -0.6246  1.2875 -1.1318
11798TIP3    H256810   3.449   2.859   1.759 -1.0544 -1.5320  0.4215
11799TIP3   OH256811   2.355   1.408   0.174 -0.0825 -0.0057  0.7088
11799TIP3    H156812   2.283   1.345   0.172  0.1762 -0.2878  0.3809
11799TIP3    H256813   2.334   1.465   0.249  0.5932 -1.5267  2.1011
11800TIP3   OH256814   5.538   5.255  12.922 -0.5940  0.5395  0.6998
11800TIP3    H156815   5.542   5.302  12.838 -2.8252 -1.9305 -0.9603
11800TIP3    H256816   5.484   5.311  12.978 -2.6257  0.4025 -0.9885
11801TIP3   OH256817   0.728   1.976   4.687  0.6023 -0.4013  0.0784
11801TIP3    H156818   0.651   1.999   4.635  0.7050  0.3165  0.2362
11801TIP3    H256819   0.747   2.055   4.737  1.0667 -0.7833  0.5095
11802TIP3   OH256820   3.375   0.120   1.683 -0.6313 -0.5165 -0.4293
11802TIP3    H156821   3.369   0.031   1.647  0.4109 -1.4154  1.4639
11802TIP3    H256822   3.379   0.107   1.777 -0.5821  1.5768 -0.1023
11803TIP3   OH256823   0.863   6.982   1.463  0.2185  0.0452  0.7174
11803TIP3    H156824   0.794   7.006   1.526 -1.3529  0.2051 -0.9857
11803TIP3    H256825   0.855   6.887   1.455  0.4007  0.0288  0.7342
11804TIP3   OH256826   3.333   5.780   1.022 -0.1239  0.6994  0.2887
11804TIP3    H156827   3.420   5.816   1.039  0.0672  0.1781  0.4212
11804TIP3    H256828   3.340   5.740   0.935 -0.1416  0.3984  0.4222
11805TIP3   OH256829   6.759   2.306   2.431  0.5805  0.0893  0.2602
11805TIP3    H156830   6.829   2.296   2.367  0.1758  1.4173 -0.4286
11805TIP3    H256831   6.678   2.296   2.379  0.2481  1.2750  0.5158
11806TIP3   OH256832   0.456   6.758   4.859 -0.3207 -0.1255  0.1192
11806TIP3    H156833   0.371   6.714   4.858  0.1822 -1.4508  3.3557
11806TIP3    H256834   0.439   6.843   4.901 -0.1591 -0.0834  0.1031
11807TIP3   OH256835   0.196   0.200   3.907  0.1913 -0.0040 -0.0064
11807TIP3    H156836   0.284   0.165   3.898 -0.2059 -0.7708 -0.9998
11807TIP3    H256837   0.203   0.290   3.875  0.5876 -0.0926 -0.1735
11808TIP3   OH256838   3.575   2.702   4.828  0.0404  0.0069 -0.1027
11808TIP3    H156839   3.550   2.766   4.894 -0.3927 -0.2457 -0.0181
11808TIP3    H256840   3.519   2.721   4.753  0.3755  0.1507 -0.3186
11809TIP3   OH256841   7.146   1.571  15.359 -0.6934 -0.3190  0.0605
11809TIP3    H156842   7.095   1.562  15.439 -0.5626  0.0431  0.1892
11809TIP3    H256843   7.232   1.536  15.381 -1.2824 -2.2729 -0.5847
11810TIP3   OH256844   6.486   1.414   4.530  0.0683  0.1937  0.4913
11810TIP3    H156845   6.526   1.494   4.565 -0.1487  0.9699 -0.9513
11810TIP3    H256846   6.559   1.368   4.487  0.5542 -1.2590  2.6901
11811TIP3   OH256847   4.633   0.984   0.487  0.1731 -0.3260 -0.5410
11811TIP3    H156848   4.544   0.989   0.524 -0.7836  0.0150 -2.7204
11811TIP3    H256849   4.675   0.914   0.536 -1.9515 -1.7790 -0.6522
11812TIP3   OH256850   3.651   2.240   4.118 -0.2876 -0.2110 -0.1528
11812TIP3    H156851   3.648   2.203   4.206 -0.1357  2.6810  1.1889
11812TIP3    H256852   3.721   2.191   4.074  0.5269 -0.8958  1.7646
11813TIP3   OH256853   0.534   6.178  14.644  0.5446 -0.1422 -0.1614
11813TIP3    H156854   0.576   6.093  14.660 -0.2404 -0.3724  0.7768
11813TIP3    H256855   0.467   6.159  14.579  0.3725 -0.2530  0.0439
11814TIP3   OH256856   0.292   0.709  10.333 -0.4700  0.3431 -0.5362
11814TIP3    H156857   0.252   0.786  10.373  3.1625  0.7411  2.9009
11814TIP3    H256858   0.358   0.744  10.273  1.0540  0.0349  0.8881
11815TIP3   OH256859   0.641   0.362  14.216  0.4366  0.3336  0.0370
11815TIP3    H156860   0.631   0.305  14.140  0.5348 -0.8633  0.8951
11815TIP3    H256861   0.583   0.436  14.198 -0.4794 -0.5237 -0.6441
11816TIP3   OH256862   6.214   4.143  12.043  0.4903 -0.4841 -0.3543
11816TIP3    H156863   6.157   4.096  11.982  0.4528  0.8714 -1.4071
11816TIP3    H256864   6.155   4.196  12.096  0.7166  0.8762 -1.4064
11817TIP3   OH256865   0.154   4.386  14.961 -0.3721 -0.3894  0.2148
11817TIP3    H156866   0.135   4.389  15.054 -0.9247 -0.1101  0.0975
11817TIP3    H256867   0.229   4.444  14.949 -0.3500 -0.3662  0.4696
11818TIP3   OH256868   4.364   0.444   4.008 -0.3551 -0.3439 -0.2441
11818TIP3    H156869   4.452   0.465   3.976  0.3461 -0.0814  1.6991
11818TIP3    H256870   4.333   0.525   4.047 -1.2431 -0.5953 -0.4019
11819TIP3   OH256871   6.509   0.887  14.046  0.1395 -0.3435 -0.0684
11819TIP3    H156872   6.471   0.953  14.103 -0.3346 -0.1488 -0.6032
11819TIP3    H256873   6.558   0.937  13.980  2.2661 -0.6124  1.2369
11820TIP3   OH256874   4.771   5.062  12.688 -0.0804  0.2495 -0.2218
11820TIP3    H156875   4.785   4.992  12.624  0.5466  0.4092 -0.2721
11820TIP3    H256876   4.846   5.121  12.675 -1.1552  1.4990 -0.9191
11821TIP3   OH256877   5.544   1.179   1.423  0.5849 -0.0566 -0.0783
11821TIP3    H156878   5.571   1.095   1.387 -0.4498  0.1420 -1.3857
11821TIP3    H256879   5.550   1.240   1.349  1.8805  1.1647  0.9826
11822TIP3   OH256880   3.938   4.274  15.255  0.1330 -0.0270 -0.6508
11822TIP3    H156881   4.030   4.301  15.260  0.2959 -0.4588 -1.2106
11822TIP3    H256882   3.942   4.181  15.232 -0.4275 -0.3175  0.3486
11823TIP3   OH256883   4.306   3.659   5.008  0.2305 -0.2982  0.0741
11823TIP3    H156884   4.360   3.637   5.084  0.1626 -1.8964 -0.2995
11823TIP3    H256885   4.223   3.614   5.023 -0.2284  0.3675 -0.3815
11824TIP3   OH256886   1.182   3.955   2.148 -0.3815 -0.5636  0.1137
11824TIP3    H156887   1.125   3.998   2.085  0.4220  0.1212 -0.1668
11824TIP3    H256888   1.189   3.864   2.116 -0.6683 -0.4460 -0.2939
11825TIP3   OH256889   0.031   1.452   0.294 -0.1486  0.3724 -0.3216
11825TIP3    H156890  -0.031   1.395   0.248 -0.8860 -0.5429  1.7197
11825TIP3    H256891   0.117   1.425   0.260 -0.6722 -0.0042 -1.4131
11826TIP3   OH256892   1.894   1.735   1.253 -0.1270  0.6552  0.0031
11826TIP3    H156893   1.963   1.788   1.214  0.1076  1.1226  1.0300
11826TIP3    H256894   1.880   1.772   1.340 -0.2894 -0.6675  0.5779
11827TIP3   OH256895   1.777   1.762   3.865  0.4220  0.2094 -0.3535
11827TIP3    H156896   1.788   1.711   3.785 -0.8326  0.2874 -0.5830
11827TIP3    H256897   1.852   1.735   3.920 -1.0002 -3.1733  0.2071
11828TIP3   OH256898   5.381   0.618   4.668  0.0233 -0.2757 -0.2587
11828TIP3    H156899   5.421   0.650   4.748 -0.1129 -1.6939  0.3992
11828TIP3    H256900   5.316   0.685   4.645 -0.0904  0.0337  0.9301
11829TIP3   OH256901   5.837   0.854  13.289 -0.5347  0.3644 -0.4195
11829TIP3    H156902   5.876   0.909  13.357 -0.2766 -1.4154  0.9454
11829TIP3    H256903   5.895   0.865  13.213  0.1228  1.1036  0.1640
11830TIP3   OH256904   0.804   6.214  14.558 -0.1609 -0.0839  0.3580
11830TIP3    H156905   0.746   6.140  14.576  0.1319  0.3502  3.7765
11830TIP3    H256906   0.749   6.291  14.572  0.6903  0.3154  1.7057
11831TIP3   OH256907   1.906   2.107   2.087  0.0345  0.1461  0.0269
11831TIP3    H156908   1.863   2.184   2.123 -0.9253  0.0309 -0.8048
11831TIP3    H256909   1.998   2.117   2.109 -0.4968  0.0416  2.5168
11832TIP3   OH256910   6.908   4.789   5.936  0.5167  0.3815 -0.2911
11832TIP3    H156911   6.828   4.765   5.889 -0.8403  1.1554  1.5042
11832TIP3    H256912   6.954   4.706   5.949 -1.2423 -0.4968  0.7717
11833TIP3   OH256913   0.262   1.757  12.054 -0.3665 -0.5281 -0.3450
11833TIP3    H156914   0.306   1.807  12.123 -0.8410  0.0361 -0.4438
11833TIP3    H256915   0.194   1.708  12.100  0.0510 -1.0358 -0.2585
11834TIP3   OH256916   5.833   4.007  10.281  0.2217  0.0594  0.2204
11834TIP3    H156917   5.790   4.087  10.251 -0.0325 -0.0291  0.3447
11834TIP3    H256918   5.771   3.937  10.260  0.9703 -0.2712 -1.0746
11835TIP3   OH256919   6.337   4.922   2.846 -0.4133  0.1157 -0.2445
11835TIP3    H156920   6.285   4.998   2.873  0.1717  0.2178  0.6405
11835TIP3    H256921   6.272   4.861   2.811 -0.9381  0.8583 -0.6105
11836TIP3   OH256922   5.533   1.832   2.606  0.1333  0.0542 -0.0569
11836TIP3    H156923   5.585   1.908   2.633  0.5983 -0.2745 -0.0170
11836TIP3    H256924   5.573   1.802   2.525 -0.2579  0.0542 -0.2511
11837TIP3   OH256925   0.204   4.232   0.623  0.0609 -0.0650 -0.1459
11837TIP3    H156926   0.260   4.158   0.648 -0.6353 -0.7756 -0.6052
11837TIP3    H256927   0.168   4.263   0.706  1.9012  1.0869  0.2855
11838TIP3   OH256928   5.109   6.677  13.085  0.0040  0.5322  0.1998
11838TIP3    H156929   5.060   6.645  13.161  0.2302  0.8132  0.4672
11838TIP3    H256930   5.147   6.598  13.046 -1.5318  0.1711 -0.6472
11839TIP3   OH256931   5.290   6.599   2.432  0.9079 -0.2908 -0.4260
11839TIP3    H156932   5.249   6.527   2.385  1.7180 -2.3543  1.8049
11839TIP3    H256933   5.258   6.591   2.522 -0.8834  3.6870 -0.4568
11840TIP3   OH256934   7.116   3.821  14.481 -0.0287  0.2911 -0.4817
11840TIP3    H156935   7.083   3.759  14.416 -1.3724  0.1542  0.2959
11840TIP3    H256936   7.184   3.870  14.435 -0.6404 -0.1045 -1.8629
11841TIP3   OH256937   1.641   2.953  10.392 -0.1396  0.2836  0.2628
11841TIP3    H156938   1.627   3.030  10.446 -0.1798  0.6536 -0.2682
11841TIP3    H256939   1.595   2.972  10.310  1.0341  0.3049 -0.4165
11842TIP3   OH256940   2.350   1.636   1.055 -0.4609  0.4774  0.1329
11842TIP3    H156941   2.352   1.638   1.150  0.8309  1.6914  0.1150
11842TIP3    H256942   2.304   1.555   1.033  0.8581 -0.7895  1.7830
11843TIP3   OH256943   3.834   6.937  14.455 -0.1156 -0.5810 -0.2079
11843TIP3    H156944   3.750   6.899  14.430 -1.1640  1.3960  0.0835
11843TIP3    H256945   3.819   7.032  14.453  1.8581 -0.1908  0.7134
11844TIP3   OH256946   1.320   4.598   5.683  0.1171 -0.1483  0.3219
11844TIP3    H156947   1.407   4.596   5.643 -0.8114  0.1799 -1.8959
11844TIP3    H256948   1.275   4.669   5.636 -1.6240 -0.9263  0.7708
11845TIP3   OH256949   0.832   3.064   1.312  0.5771  0.2948  0.2208
11845TIP3    H156950   0.893   3.015   1.256  0.0311 -0.4342  0.2479
11845TIP3    H256951   0.828   3.013   1.393 -1.1932 -0.4985 -0.3153
11846TIP3   OH256952   3.027   2.812  14.644  0.3293  0.6215 -0.5359
11846TIP3    H156953   2.972   2.755  14.698 -0.0772 -1.2008 -2.7273
11846TIP3    H256954   3.058   2.879  14.704 -3.1158  0.9290  1.1146
11847TIP3   OH256955   3.107   5.937   0.763  0.0634 -0.1524  0.0143
11847TIP3    H156956   3.129   5.874   0.833 -0.5849 -0.1549  0.2238
11847TIP3    H256957   3.033   5.897   0.718  0.0142  0.1983 -0.2180
11848TIP3   OH256958   4.856   0.862   1.847 -0.0180  0.1300 -0.2287
11848TIP3    H156959   4.768   0.840   1.817 -1.1271  1.6624  1.6396
11848TIP3    H256960   4.844   0.941   1.900  2.4259  0.1280  0.4433
11849TIP3   OH256961   6.561   6.115   0.045  0.4254  0.3800 -0.1242
11849TIP3    H156962   6.624   6.175   0.085  0.0738 -0.7024  2.2830
11849TIP3    H256963   6.525   6.066   0.120 -2.5604  0.2815 -1.4976
11850TIP3   OH256964   0.829   4.136   2.662 -0.0883 -0.0407  0.6285
11850TIP3    H156965   0.754   4.089   2.627  0.2775 -0.9500  1.0303
11850TIP3    H256966   0.905   4.085   2.634  0.5368  1.7610 -1.2083
11851TIP3   OH256967   5.784   3.003  11.459 -0.2525 -0.3395  0.9585
11851TIP3    H156968   5.760   3.093  11.438 -0.5196 -0.0889  2.2608
11851TIP3    H256969   5.719   2.975  11.523  0.9109 -0.7962  2.0030
11852TIP3   OH256970   2.681   4.287  10.122 -0.5660  0.4508  0.1241
11852TIP3    H156971   2.697   4.202  10.081  0.7845  0.4133  0.7070
11852TIP3    H256972   2.611   4.270  10.185  0.1202 -0.3741  0.6826
11853TIP3   OH256973   0.794   6.543   1.225 -0.0767 -0.5352  0.2187
11853TIP3    H156974   0.790   6.485   1.149  1.7510  0.4908 -0.7336
11853TIP3    H256975   0.852   6.498   1.287  0.4670 -0.2344 -0.0661
11854TIP3   OH256976   5.421   5.560   5.164  0.7189 -0.2490 -0.0714
11854TIP3    H156977   5.332   5.539   5.135  0.7274 -1.1884  0.5481
11854TIP3    H256978   5.413   5.648   5.200 -0.3847 -1.0027  1.6594
11855TIP3   OH256979   5.623   0.324   1.443 -0.1407 -0.2044  0.3923
11855TIP3    H156980   5.647   0.356   1.530  0.7492  0.0222  0.0706
11855TIP3    H256981   5.695   0.351   1.387  0.8835 -3.0965  0.1498
11856TIP3   OH256982   3.052   2.864  10.544  0.0115 -0.5642 -0.4117
11856TIP3    H156983   3.042   2.799  10.474 -1.5213 -1.1939  0.3405
11856TIP3    H256984   2.967   2.865  10.587 -0.1353  2.2582 -0.6245
11857TIP3   OH256985   5.749   4.954   0.238  0.3228  0.1469 -0.0782
11857TIP3    H156986   5.796   4.990   0.314  0.7837 -1.1189  0.2687
11857TIP3    H256987   5.774   5.011   0.166  0.0419  1.2597  0.6691
11858TIP3   OH256988   2.256   4.681   4.734 -0.1700 -0.1700 -0.4435
11858TIP3    H156989   2.216   4.721   4.656  0.5631 -1.8114 -1.7220
11858TIP3    H256990   2.183   4.642   4.781 -0.4891 -0.2410 -0.9845
11859TIP3   OH256991   1.557   5.852   1.189 -0.3719 -0.4441 -0.1674
11859TIP3    H156992   1.644   5.852   1.228 -1.4085 -0.7339  2.3283
11859TIP3    H256993   1.553   5.772   1.137  0.1646 -1.5636  1.4388
11860TIP3   OH256994   6.041   0.132   3.343 -0.2111 -0.1872 -0.2640
11860TIP3    H156995   6.007   0.205   3.291  2.7527  0.4731 -1.4936
11860TIP3    H256996   6.111   0.171   3.396  0.9799 -1.9453 -0.4314
11861TIP3   OH256997   4.487   3.147  15.394 -0.3351 -0.1324 -0.1762
11861TIP3    H156998   4.481   3.187  15.481 -0.2623 -3.1257  1.3441
11861TIP3    H256999   4.476   3.053  15.410 -3.0435 -0.6550 -3.7309
11862TIP3   OH257000   6.650   0.892  13.552  0.5139  0.2909 -0.4111
11862TIP3    H157001   6.651   0.965  13.491 -2.3961  2.5045  1.8782
11862TIP3    H257002   6.612   0.819  13.503 -1.6080  1.9407 -1.3508
11863TIP3   OH257003   5.662   4.688   5.743  0.2579  0.0809 -0.0425
11863TIP3    H157004   5.718   4.676   5.820 -0.1277  0.4663  0.2997
11863TIP3    H257005   5.718   4.735   5.681  0.0569  1.2812  0.6370
11864TIP3   OH257006   5.421   4.358   5.100  0.1975 -0.3137 -0.3818
11864TIP3    H157007   5.421   4.442   5.146  0.6840 -0.9382  0.7918
11864TIP3    H257008   5.330   4.345   5.075  0.4065  1.4487 -2.2915
11865TIP3   OH257009   2.242   3.260  10.446 -0.6472  0.4473 -0.2356
11865TIP3    H157010   2.287   3.261  10.362  1.6317 -0.4474  0.8858
11865TIP3    H257011   2.275   3.337  10.492 -0.8229  0.1841  0.3418
11866TIP3   OH257012   3.308   5.570   2.212  0.0506 -0.1846 -0.3287
11866TIP3    H157013   3.274   5.660   2.217 -0.7061 -0.3920 -1.3189
11866TIP3    H257014   3.355   5.557   2.294 -0.6286  0.8036  0.2381
11867TIP3   OH257015   6.698   4.426  12.728  0.4866  0.2968 -0.0938
11867TIP3    H157016   6.660   4.422  12.816 -1.0148 -1.1463 -0.7414
11867TIP3    H257017   6.712   4.519  12.711  0.4463  0.6145  1.5089
11868TIP3   OH257018   2.506   3.885   4.264  0.3906 -0.1008  0.1027
11868TIP3    H157019   2.555   3.802   4.261 -1.4927 -1.2461 -0.8298
11868TIP3    H257020   2.445   3.879   4.192  0.4307  2.3166 -0.2159
11869TIP3   OH257021   6.623   6.173   4.418 -0.5569 -0.4994 -0.0754
11869TIP3    H157022   6.692   6.113   4.445  0.5493  0.8781  0.2626
11869TIP3    H257023   6.623   6.168   4.323  2.1997  1.7386 -0.3072
11870TIP3   OH257024   0.073   2.025  14.364 -0.1525  0.0593  0.1309
11870TIP3    H157025   0.036   1.968  14.297 -0.7789  0.6513 -0.0409
11870TIP3    H257026   0.168   2.019  14.352 -0.2729  1.0597 -1.5833
11871TIP3   OH257027   5.076   4.740   5.769 -0.2560 -0.5198  0.3207
11871TIP3    H157028   5.063   4.835   5.763  0.5454 -0.3941  0.4637
11871TIP3    H257029   5.134   4.728   5.844 -0.2571 -1.1168  0.2314
11872TIP3   OH257030   5.348   3.480   2.835 -0.0546 -0.3051 -0.2286
11872TIP3    H157031   5.261   3.492   2.799  0.4100  1.5008 -0.8371
11872TIP3    H257032   5.348   3.531   2.916  0.4034 -0.3776 -0.1797
11873TIP3   OH257033   3.649   6.279  12.636  0.0327  0.4872 -0.6623
11873TIP3    H157034   3.563   6.320  12.644 -0.1810 -0.0246 -0.3653
11873TIP3    H257035   3.709   6.342  12.677 -0.3088  0.4568 -0.1053
11874TIP3   OH257036   4.884   1.711   1.192  0.2356 -0.1217 -0.0894
11874TIP3    H157037   4.830   1.773   1.142  0.2034 -0.1116 -0.0424
11874TIP3    H257038   4.975   1.737   1.171  0.2251 -0.4447 -0.5450
11875TIP3   OH257039   6.339   2.680   0.483 -0.0525 -0.4500 -0.1867
11875TIP3    H157040   6.308   2.690   0.573 -1.8032 -2.0067 -0.5316
11875TIP3    H257041   6.316   2.763   0.441 -0.2376 -0.1228  0.5319
11876TIP3   OH257042   3.056   2.763  12.284 -0.3028 -0.2459  0.1362
11876TIP3    H157043   3.151   2.755  12.292 -0.3181  0.3233  1.0961
11876TIP3    H257044   3.030   2.818  12.359 -1.3949 -0.4639 -0.0599
11877TIP3   OH257045   0.494   0.691  13.658 -0.4696  0.0282  0.1176
11877TIP3    H157046   0.540   0.708  13.740  1.4009 -0.2177 -0.8312
11877TIP3    H257047   0.472   0.779  13.625 -1.5372  0.1213  1.0023
11878TIP3   OH257048   6.409   6.549   0.361  0.0858  0.3557 -0.4698
11878TIP3    H157049   6.358   6.520   0.286 -0.6522  0.5934 -0.0684
11878TIP3    H257050   6.436   6.468   0.405 -0.0324  0.2299 -0.6293
11879TIP3   OH257051   2.498   2.803  12.651 -0.0578  0.3631  0.5946
11879TIP3    H157052   2.409   2.807  12.616  0.4101  1.0890 -0.5525
11879TIP3    H257053   2.512   2.889  12.691 -0.1838 -0.0698  1.5995
11880TIP3   OH257054   4.059   5.492  12.076 -0.2000  0.1234 -0.0830
11880TIP3    H157055   4.141   5.522  12.038 -0.3804 -0.3742 -0.8899
11880TIP3    H257056   3.991   5.532  12.022 -0.4538 -1.1454 -0.7418
11881TIP3   OH257057   1.851   0.486  15.487 -0.3333  0.2217 -0.0902
11881TIP3    H157058   1.841   0.574  15.450  0.0179  0.3279  0.0641
11881TIP3    H257059   1.879   0.432  15.413  1.6261  0.6919  0.2625
11882TIP3   OH257060   2.528   3.016   0.096 -0.0255 -0.0398  0.0424
11882TIP3    H157061   2.585   2.974   0.161 -0.5238 -0.2244  0.3619
11882TIP3    H257062   2.566   2.992   0.012  0.0811 -0.5824  0.2390
11883TIP3   OH257063   0.427   1.041   2.938 -0.0400 -0.6732  0.1157
11883TIP3    H157064   0.486   1.034   2.863 -1.0422 -1.3083 -0.6516
11883TIP3    H257065   0.369   1.113   2.915 -1.8662 -2.3559 -0.8798
11884TIP3   OH257066   3.748   6.433   2.570  0.0370 -0.5541  0.2621
11884TIP3    H157067   3.744   6.518   2.613  0.3156 -0.2768 -0.2504
11884TIP3    H257068   3.674   6.433   2.509  2.3843  1.0955 -2.8980
11885TIP3   OH257069   3.497   1.159   3.721  1.0544  0.0061 -0.3093
11885TIP3    H157070   3.470   1.115   3.640  0.9041  2.7305 -1.8809
11885TIP3    H257071   3.419   1.155   3.777 -0.9468  2.7341 -2.5372
11886TIP3   OH257072   2.450   6.701   2.906 -0.1654  0.4638  0.0392
11886TIP3    H157073   2.460   6.789   2.871  0.0719  0.2222 -0.5063
11886TIP3    H257074   2.534   6.681   2.946  0.5223 -0.3111 -1.6860
11887TIP3   OH257075   5.860   3.184  10.281 -0.3197 -0.0002 -0.0403
11887TIP3    H157076   5.859   3.131  10.201  0.3089 -0.8026  0.4602
11887TIP3    H257077   5.949   3.217  10.287 -0.6991  1.1111 -0.3254
11888TIP3   OH257078   6.638   6.817   0.848 -0.0752 -0.0480  0.2560
11888TIP3    H157079   6.635   6.901   0.802 -3.4360  0.0162  0.3630
11888TIP3    H257080   6.670   6.755   0.783 -2.4012  0.4794 -1.5394
11889TIP3   OH257081   0.869   7.054   0.310  0.1005  0.0901 -0.0182
11889TIP3    H157082   0.899   7.144   0.299  0.8290  0.0374  1.3556
11889TIP3    H257083   0.794   7.060   0.369  1.2790 -0.3165  1.6176
11890TIP3   OH257084   3.316   2.342  13.045 -0.4377 -0.0436  0.4993
11890TIP3    H157085   3.323   2.421  13.098 -2.9414 -1.0935  2.5774
11890TIP3    H257086   3.399   2.296  13.060 -0.3484  0.5790  2.0234
11891TIP3   OH257087   2.844   5.983  12.917 -0.1345  0.0487 -0.3827
11891TIP3    H157088   2.883   5.896  12.927  1.0667  0.4715 -1.1475
11891TIP3    H257089   2.759   5.976  12.960  0.2125 -1.3108  0.1443
11892TIP3   OH257090   3.045   1.381  12.965 -0.5330 -0.3884 -0.2597
11892TIP3    H157091   3.058   1.409  12.875 -0.7961 -0.3509 -0.2868
11892TIP3    H257092   2.977   1.314  12.960 -1.3130  0.3554  0.0292
11893TIP3   OH257093   3.445   7.100   4.506  0.7234 -0.2268 -0.0327
11893TIP3    H157094   3.434   7.036   4.436 -0.7916 -0.1232  0.0783
11893TIP3    H257095   3.368   7.157   4.499  1.8339  1.3553  0.1172
11894TIP3   OH257096   5.558   2.525   3.634 -0.2669  0.2466  0.3456
11894TIP3    H157097   5.498   2.453   3.654 -1.3264  0.9317 -0.3032
11894TIP3    H257098   5.625   2.485   3.578 -1.9515  0.1507 -1.7377
11895TIP3   OH257099   3.333   3.435  12.337 -0.0743 -0.2124 -0.0766
11895TIP3    H157100   3.357   3.404  12.251 -2.1165  0.0844 -0.8268
11895TIP3    H257101   3.294   3.359  12.381 -0.2498 -0.0442  0.0673
11896TIP3   OH257102   0.823   2.898  13.538 -0.5752 -0.9021  0.2275
11896TIP3    H157103   0.801   2.890  13.445  1.1918  0.7793 -0.3995
11896TIP3    H257104   0.743   2.872  13.584 -1.7573 -0.9715 -1.7673
11897TIP3   OH257105   2.456   0.578  10.183  0.8415  0.1397 -0.4943
11897TIP3    H157106   2.438   0.606  10.273  1.2898  0.7657 -0.5938
11897TIP3    H257107   2.432   0.485  10.182 -1.0213  0.5796 -0.2597
11898TIP3   OH257108   4.858   0.271  12.772 -0.0207  0.4124  0.2922
11898TIP3    H157109   4.853   0.362  12.800 -0.9539  0.4687 -0.0189
11898TIP3    H257110   4.848   0.220  12.853 -0.8455  0.5803  0.2992
11899TIP3   OH257111   6.686   3.965  12.535  0.0727 -0.4909 -0.2392
11899TIP3    H157112   6.729   3.972  12.450  1.0697 -0.3781  0.2615
11899TIP3    H257113   6.735   4.025  12.591 -1.1713  0.1642  0.1915
11900TIP3   OH257114   7.077   1.173   2.740 -0.2987  0.0556 -0.3590
11900TIP3    H157115   7.164   1.136   2.725  0.1814  0.6423  0.9133
11900TIP3    H257116   7.046   1.131   2.820 -0.5112  1.0376  0.0819
11901TIP3   OH257117   4.177   1.169  14.343 -0.8124 -0.0224 -0.2704
11901TIP3    H157118   4.197   1.195  14.433 -0.8183 -0.2842 -0.1929
11901TIP3    H257119   4.112   1.234  14.313  0.4549  1.1126 -0.6780
11902TIP3   OH257120   5.802   4.809   5.065  0.2027 -0.2986 -0.3269
11902TIP3    H157121   5.757   4.877   5.116  1.5210  0.4227 -0.0855
11902TIP3    H257122   5.817   4.738   5.127  1.6999  0.5321  0.3121
11903TIP3   OH257123   6.698   6.075  10.524 -0.5018 -0.2695  0.0709
11903TIP3    H157124   6.760   6.064  10.597  0.5088  4.6333  0.3202
11903TIP3    H257125   6.746   6.047  10.447  1.0093  0.7330  0.6058
11904TIP3   OH257126   5.512   6.221   9.613  0.3338 -0.4802  0.0506
11904TIP3    H157127   5.439   6.229   9.551  0.6064 -0.4476 -0.2757
11904TIP3    H257128   5.560   6.303   9.603  0.4953 -0.5622  0.1592
11905TIP3   OH257129   1.417   6.662   5.032  0.2972 -0.0809 -0.0936
11905TIP3    H157130   1.461   6.737   4.993 -1.2629  0.3168 -1.1482
11905TIP3    H257131   1.406   6.687   5.124 -0.0867  0.9341 -0.4001
11906TIP3   OH257132   0.868   3.969   2.415  0.2908 -0.0332 -0.2718
11906TIP3    H157133   0.899   3.878   2.405  0.8280  0.0629  0.4260
11906TIP3    H257134   0.861   4.001   2.325 -3.0000 -1.7435 -0.7682
11907TIP3   OH257135   2.599   3.178  13.895  0.0593 -0.0112  0.1405
11907TIP3    H157136   2.666   3.110  13.906  0.9169  0.9495  1.0664
11907TIP3    H257137   2.648   3.256  13.869 -0.8552  0.3971 -0.4012
11908TIP3   OH257138   3.583   1.149  13.592  0.2005  0.1168 -0.2038
11908TIP3    H157139   3.566   1.133  13.499  0.8417  1.0859 -0.4927
11908TIP3    H257140   3.668   1.108  13.608 -0.5293 -1.2404  0.2931
11909TIP3   OH257141   5.677   5.553   3.557 -0.1612 -0.0081 -0.1425
11909TIP3    H157142   5.597   5.603   3.543 -0.1260  0.4078  1.0731
11909TIP3    H257143   5.652   5.463   3.538 -0.6074  0.2597 -0.8918
11910TIP3   OH257144   4.904   7.077   2.869 -0.2201  0.4118 -0.8532
11910TIP3    H157145   4.883   6.996   2.914 -1.7424  0.1163 -2.0098
11910TIP3    H257146   4.834   7.138   2.895  1.0351  1.4702  0.2041
11911TIP3   OH257147   6.773   2.121  14.321 -0.4225 -0.2517 -0.8437
11911TIP3    H157148   6.775   2.180  14.245 -1.5413 -1.6098 -1.9989
11911TIP3    H257149   6.694   2.146  14.369 -0.5584 -0.3835 -0.9951
11912TIP3   OH257150   2.682   2.263  15.252 -0.6332  0.1220 -0.1751
11912TIP3    H157151   2.703   2.175  15.220 -1.7953 -0.2000 -0.1016
11912TIP3    H257152   2.766   2.302  15.273 -0.0453 -0.6851 -0.9696
11913TIP3   OH257153   0.203   4.589  10.405 -0.5044  0.2888 -0.3483
11913TIP3    H157154   0.155   4.507  10.391 -2.6737  1.2767  0.7211
11913TIP3    H257155   0.255   4.572  10.483 -1.9683  0.2694  0.6792
11914TIP3   OH257156   4.734   5.438   1.052  0.8947 -0.5254  0.4615
11914TIP3    H157157   4.782   5.520   1.048  0.3065 -0.1614  0.7313
11914TIP3    H257158   4.667   5.452   1.118 -0.1512 -0.7142 -0.5298
11915TIP3   OH257159   4.671   2.075  11.268  0.0437 -0.1702 -0.4246
11915TIP3    H157160   4.752   2.081  11.319  0.1798 -0.7730 -0.5617
11915TIP3    H257161   4.694   2.020  11.193 -0.7638 -1.2524  0.0881
11916TIP3   OH257162   6.833   3.900   0.069 -0.3918  0.0973  0.0241
11916TIP3    H157163   6.815   3.968   0.134  0.4866 -0.4491  0.8869
11916TIP3    H257164   6.787   3.927  -0.009  0.6941  2.1710  0.0505
11917TIP3   OH257165   2.200   2.836  11.146  0.4215  0.1573 -1.0683
11917TIP3    H157166   2.147   2.810  11.071 -0.6329  0.5118 -0.4709
11917TIP3    H257167   2.142   2.823  11.222  1.1086  0.7805 -0.4226
11918TIP3   OH257168   6.209   2.709   2.684 -0.2982  0.1430  0.3199
11918TIP3    H157169   6.165   2.762   2.617  2.1657  2.4493  0.3462
11918TIP3    H257170   6.209   2.764   2.762  1.8178 -0.0620  0.5308
11919TIP3   OH257171   2.983   1.027   5.827  0.6149  0.4793 -0.4067
11919TIP3    H157172   2.972   0.935   5.801  1.4507  0.4695 -0.7441
11919TIP3    H257173   2.897   1.067   5.810  0.0057 -0.3937  0.4491
11920TIP3   OH257174   4.873   6.763   1.471 -0.1882 -0.7397 -0.1473
11920TIP3    H157175   4.820   6.697   1.425 -2.2742  1.5825 -1.3789
11920TIP3    H257176   4.833   6.769   1.558 -1.0908  0.0328 -0.6026
11921TIP3   OH257177   2.815   5.378  13.099 -0.1028 -0.5143  0.0539
11921TIP3    H157178   2.806   5.284  13.114 -1.0206 -0.2577  1.2340
11921TIP3    H257179   2.751   5.418  13.158  0.3438  0.8577 -0.3618
11922TIP3   OH257180   5.725   6.007   4.625 -0.2095  0.0613 -0.1432
11922TIP3    H157181   5.757   5.917   4.614 -0.9430 -0.2308  0.0188
11922TIP3    H257182   5.631   5.996   4.640 -0.4356  0.8991 -0.8709
11923TIP3   OH257183   2.963   4.097   0.137 -0.4059 -0.3165 -0.4895
11923TIP3    H157184   3.014   4.111   0.056  0.0087  3.3199  0.2155
11923TIP3    H257185   2.876   4.131   0.116 -0.9292 -1.3528 -0.0217
11924TIP3   OH257186   2.077   2.902   0.077 -0.2029 -0.3526  0.0856
11924TIP3    H157187   1.991   2.943   0.069 -0.3575 -0.8282 -1.0466
11924TIP3    H257188   2.059   2.816   0.114  0.0725  0.4047  2.0596
11925TIP3   OH257189   6.946   3.275  15.143 -0.4084  0.5776 -0.3773
11925TIP3    H157190   6.853   3.276  15.162 -0.4708  0.8955 -0.6745
11925TIP3    H257191   6.958   3.345  15.079  0.2426  1.3912  0.6081
11926TIP3   OH257192   2.340   2.302   2.291 -0.2010  0.0006 -0.2616
11926TIP3    H157193   2.305   2.375   2.343 -1.0441 -0.5201 -0.0729
11926TIP3    H257194   2.414   2.270   2.342  0.3740  0.9168 -0.4992
11927TIP3   OH257195   6.278   2.336  11.057 -0.1857 -0.0057  0.1520
11927TIP3    H157196   6.272   2.429  11.036 -1.4815 -0.5457 -2.3177
11927TIP3    H257197   6.187   2.307  11.064  0.1694 -1.2490 -0.0729
11928TIP3   OH257198   3.005   1.962  11.837  0.6287  0.0196 -0.0445
11928TIP3    H157199   3.077   1.907  11.807  0.4600  0.2050 -0.8075
11928TIP3    H257200   2.927   1.921  11.800  0.1332 -1.1388  2.1160
11929TIP3   OH257201   2.939   3.638   3.230  0.9617 -0.3089  0.9468
11929TIP3    H157202   2.970   3.647   3.140 -0.7062  0.9844  0.4488
11929TIP3    H257203   2.844   3.639   3.223  0.7898  0.1694  2.7643
11930TIP3   OH257204   3.542   6.385   0.595  0.1211 -0.3857  0.3281
11930TIP3    H157205   3.624   6.416   0.635 -0.0545  0.5011  0.0380
11930TIP3    H257206   3.519   6.307   0.645  0.9758 -0.4690  0.6227
11931TIP3   OH257207   3.775   5.577  13.115 -0.3039  0.1709  0.3436
11931TIP3    H157208   3.774   5.582  13.019 -0.6739 -1.4855  0.2385
11931TIP3    H257209   3.841   5.511  13.135  1.6445  2.2829  1.3818
11932TIP3   OH257210   1.307   1.761   1.749  0.2436 -0.1366 -0.6765
11932TIP3    H157211   1.367   1.812   1.805  1.7290 -1.0226 -1.4016
11932TIP3    H257212   1.258   1.827   1.700  1.3665  0.6226 -0.8121
11933TIP3   OH257213   4.057   3.446   0.863  0.6422  0.1500 -0.4476
11933TIP3    H157214   4.055   3.532   0.905  1.6362  0.6769 -1.4314
11933TIP3    H257215   3.978   3.402   0.895 -1.2125  2.2864 -1.7904
11934TIP3   OH257216   4.561   4.751   3.966  0.5374 -0.5875 -0.3913
11934TIP3    H157217   4.628   4.820   3.967  0.5950 -0.5699 -1.9218
11934TIP3    H257218   4.482   4.794   3.999  0.0295  0.8915 -3.2019
11935TIP3   OH257219   3.474   0.664  10.455  0.0097  0.2576 -0.0866
11935TIP3    H157220   3.444   0.740  10.505 -2.1259  0.4397 -1.5040
11935TIP3    H257221   3.416   0.593  10.481  1.2471 -0.6305  0.3679
11936TIP3   OH257222   0.260   4.713  10.814  0.1627 -0.3499 -0.0112
11936TIP3    H157223   0.230   4.760  10.892 -0.7400 -0.5341 -0.2362
11936TIP3    H257224   0.222   4.626  10.822 -0.8996 -0.0346 -1.2037
11937TIP3   OH257225   0.476   5.801   0.489 -0.0711 -0.3839 -0.2320
11937TIP3    H157226   0.433   5.884   0.469 -0.2739 -0.1345  1.0911
11937TIP3    H257227   0.562   5.809   0.450 -1.0476 -0.7316 -2.5941
11938TIP3   OH257228   4.469   0.116   5.282  0.5725  0.3594  0.1587
11938TIP3    H157229   4.422   0.032   5.279  1.0863  0.0652  0.3063
11938TIP3    H257230   4.458   0.153   5.195  0.9552 -0.1987 -0.1350
11939TIP3   OH257231   3.693   0.597  14.819  0.2819 -0.5782  0.3362
11939TIP3    H157232   3.714   0.504  14.811  3.5034 -0.0915  1.7414
11939TIP3    H257233   3.616   0.599  14.876  0.9962 -2.3470  1.4326
11940TIP3   OH257234   6.313   2.026  15.069 -0.4139 -0.0240  0.1572
11940TIP3    H157235   6.348   1.985  15.148 -2.0556 -0.1522  0.8386
11940TIP3    H257236   6.259   2.098  15.101 -0.8549  0.1062 -0.8568
11941TIP3   OH257237   0.626   3.922   1.282  0.3960 -0.0996 -0.3261
11941TIP3    H157238   0.715   3.918   1.316  1.1266  2.8150 -1.5864
11941TIP3    H257239   0.574   3.957   1.355  0.8311  0.7728 -0.4303
11942TIP3   OH257240   4.353   1.478   2.110 -0.3559 -0.8339  0.0179
11942TIP3    H157241   4.356   1.571   2.092 -0.3457 -1.1165 -1.5092
11942TIP3    H257242   4.269   1.464   2.153  0.4860  0.1594  2.1268
11943TIP3   OH257243   7.094   6.099  11.997  0.5752  0.2951  0.8709
11943TIP3    H157244   7.085   6.018  12.047  2.5729  0.5153  1.6828
11943TIP3    H257245   7.115   6.071  11.908  0.4075 -0.0893  0.9528
11944TIP3   OH257246   1.781   3.458  14.156 -0.0939  0.0683  0.1826
11944TIP3    H157247   1.816   3.425  14.073  0.8575  1.8568 -0.1918
11944TIP3    H257248   1.833   3.415  14.223  2.1696  1.8145 -0.3322
11945TIP3   OH257249   1.571   0.428   4.132  0.0425 -0.6272 -0.2880
11945TIP3    H157250   1.521   0.366   4.186  2.0208 -1.0970  1.1209
11945TIP3    H257251   1.595   0.378   4.055  0.0052 -1.0092 -0.0548
11946TIP3   OH257252   4.927   1.034   5.775 -0.2096 -0.2236 -0.1689
11946TIP3    H157253   4.913   1.129   5.780  3.4915  0.4246  1.4326
11946TIP3    H257254   4.890   1.000   5.856 -2.1078 -0.3164 -1.0314
11947TIP3   OH257255   4.625   5.750   0.847 -0.4189 -0.1258  0.0338
11947TIP3    H157256   4.700   5.762   0.905 -0.1078  0.4650 -0.4788
11947TIP3    H257257   4.646   5.670   0.797 -0.6066 -0.5325  0.6006
11948TIP3   OH257258   6.128   5.426  15.473  0.2220 -0.5108  0.4093
11948TIP3    H157259   6.131   5.518  15.447 -0.0665 -0.5233  0.3250
11948TIP3    H257260   6.181   5.381  15.408 -0.2536 -0.5027  0.0064
11949TIP3   OH257261   3.308   4.316   4.523 -0.3681 -0.5192 -0.4705
11949TIP3    H157262   3.215   4.296   4.533 -1.3565  1.7229 -3.6059
11949TIP3    H257263   3.343   4.241   4.476 -0.7003 -1.1204  0.2222
11950TIP3   OH257264   2.291   3.446   2.425  0.0427  0.3620 -0.1010
11950TIP3    H157265   2.283   3.394   2.505 -1.7757  1.2975  0.3763
11950TIP3    H257266   2.313   3.534   2.456 -0.7428  0.7506 -0.6260
11951TIP3   OH257267   2.575   1.120  14.815  0.3601 -0.6155  0.0004
11951TIP3    H157268   2.509   1.072  14.765 -1.2810  1.8440 -0.3255
11951TIP3    H257269   2.649   1.128  14.755  0.3161 -1.8967 -0.2579
11952TIP3   OH257270   4.246   1.701   1.211  0.0497  0.2222  0.2830
11952TIP3    H157271   4.181   1.767   1.189  0.7569  0.1036 -2.4338
11952TIP3    H257272   4.323   1.751   1.237 -0.3747  0.3681  1.3568
11953TIP3   OH257273   3.367   2.416  10.274 -1.1361  0.1346 -0.6709
11953TIP3    H157274   3.393   2.500  10.311  0.7662 -0.4930 -0.4809
11953TIP3    H257275   3.364   2.356  10.350 -2.5719  0.0242 -0.7843
11954TIP3   OH257276   4.703   5.006   1.848 -0.0319  0.2817 -0.4515
11954TIP3    H157277   4.735   5.058   1.921 -1.1057  0.0536  0.2006
11954TIP3    H257278   4.619   5.045   1.825 -0.8086 -1.0829 -0.0137
11955TIP3   OH257279   5.699   2.585   3.367 -0.2591  1.0598 -0.6861
11955TIP3    H157280   5.749   2.667   3.362  0.5579  0.6789  0.6718
11955TIP3    H257281   5.623   2.600   3.311  1.4765  1.5766 -3.0438
11956TIP3   OH257282   1.232   4.591  11.542 -0.9270 -0.3373 -0.4347
11956TIP3    H157283   1.236   4.497  11.527  1.6892 -0.3248 -0.2829
11956TIP3    H257284   1.229   4.600  11.637  0.7942 -0.2913 -0.3604
11957TIP3   OH257285   1.697   0.730  13.860  0.1820 -0.1620  0.3423
11957TIP3    H157286   1.612   0.745  13.901 -0.3065 -0.3879 -0.5534
11957TIP3    H257287   1.740   0.816  13.862  0.0255 -0.0979  0.9984
11958TIP3   OH257288   0.297   5.716   4.853  0.2965  0.9195  0.0585
11958TIP3    H157289   0.231   5.656   4.887  0.1007  0.8197 -0.4829
11958TIP3    H257290   0.295   5.703   4.758  2.0586 -0.0856  0.1185
11959TIP3   OH257291   2.592   7.114  14.904  0.3145  0.1121  0.0003
11959TIP3    H157292   2.592   7.095  14.810  3.0183 -0.7671  0.0901
11959TIP3    H257293   2.605   7.029  14.946 -0.4250  0.5515  1.1823
11960TIP3   OH257294   0.923   2.285   0.929 -0.3107 -0.4139  0.3439
11960TIP3    H157295   0.868   2.318   1.001  0.9428  1.5663  0.4939
11960TIP3    H257296   0.877   2.311   0.850 -0.9729 -1.2888  0.4369
11961TIP3   OH257297   5.431   4.628   0.489  0.0736 -0.6778 -0.4184
11961TIP3    H157298   5.363   4.629   0.421  0.1338 -0.4305 -0.4773
11961TIP3    H257299   5.510   4.600   0.443  0.6778  1.7492 -1.0113
11962TIP3   OH257300   2.550   2.472   4.649  0.3566  0.0057 -0.3988
11962TIP3    H157301   2.560   2.446   4.741 -1.3468 -2.3481 -0.7733
11962TIP3    H257302   2.589   2.401   4.600  0.6280  0.9067 -1.5186
11963TIP3   OH257303   3.087   6.630  13.986 -0.1089 -0.1082 -0.1631
11963TIP3    H157304   3.134   6.572  13.926  3.1793  1.3243  0.7619
11963TIP3    H257305   3.077   6.712  13.938 -0.3336  0.0412  0.1368
11964TIP3   OH257306   0.703   0.138   4.158  0.5357  0.6889 -0.6031
11964TIP3    H157307   0.726   0.208   4.097 -0.2811  0.8825 -0.7062
11964TIP3    H257308   0.701   0.059   4.104  2.2881  0.4178 -0.3256
11965TIP3   OH257309   4.517   1.594   3.658  0.3358 -0.4598  0.5406
11965TIP3    H157310   4.600   1.610   3.704  0.5165  2.4325 -0.5946
11965TIP3    H257311   4.543   1.573   3.568 -0.0706  2.1901 -0.2871
11966TIP3   OH257312   6.733   2.593  12.835 -0.4213  0.3340  0.8773
11966TIP3    H157313   6.807   2.598  12.775 -0.4451 -1.0175  0.7015
11966TIP3    H257314   6.671   2.658  12.802 -1.7416 -2.3303 -2.4158
11967TIP3   OH257315   0.718   3.765   1.802 -0.0021  0.1549 -0.1304
11967TIP3    H157316   0.673   3.701   1.747  1.6940  0.7553 -2.3666
11967TIP3    H257317   0.804   3.726   1.818  0.9581  1.6862 -1.3066
11968TIP3   OH257318   3.224   6.730   3.491 -0.4344  0.4163  0.0347
11968TIP3    H157319   3.153   6.765   3.545 -0.7609 -1.1870  0.7139
11968TIP3    H257320   3.195   6.642   3.468  1.0664 -0.0470 -0.1733
11969TIP3   OH257321   4.985   1.896   3.266 -0.2627 -0.5577  0.2495
11969TIP3    H157322   5.005   1.926   3.178  2.4097 -1.2075  0.5476
11969TIP3    H257323   4.898   1.857   3.259 -0.3860 -0.0176 -1.9422
11970TIP3   OH257324   6.575   4.200   2.316 -0.7554 -0.4608 -0.1212
11970TIP3    H157325   6.633   4.131   2.282 -0.0397  1.0220 -2.1667
11970TIP3    H257326   6.503   4.204   2.253  0.5963  2.3668 -1.7157
11971TIP3   OH257327   4.298   6.228   1.237 -0.1758  0.1081  0.2700
11971TIP3    H157328   4.370   6.172   1.266  0.2158  0.2420 -0.4445
11971TIP3    H257329   4.225   6.204   1.295 -0.1187 -1.3874 -0.2465
11972TIP3   OH257330   4.413   0.763  11.623  0.4838 -0.2156 -0.3734
11972TIP3    H157331   4.348   0.747  11.691  0.6430 -0.0040 -0.1666
11972TIP3    H257332   4.477   0.692  11.634  0.6996  0.0224 -0.0642
11973TIP3   OH257333   2.356   1.976   3.288 -0.2754  0.2797  0.3115
11973TIP3    H157334   2.423   1.983   3.220  0.7956  0.6698  1.3799
11973TIP3    H257335   2.374   2.049   3.347  0.1367 -1.2236  2.1573
11974TIP3   OH257336   1.032   1.699   5.534 -0.1705 -0.2888  0.0443
11974TIP3    H157337   1.044   1.728   5.444 -3.7064  2.6446  0.2783
11974TIP3    H257338   1.112   1.725   5.579  1.0083 -0.3608 -1.8959
11975TIP3   OH257339   0.174   2.606  14.479 -0.2604 -0.5483  0.1927
11975TIP3    H157340   0.267   2.613  14.499  0.2920 -0.0835 -2.2088
11975TIP3    H257341   0.163   2.518  14.444 -0.7870 -0.7006  0.7255
11976TIP3   OH257342   2.478   3.767   3.407  0.1409 -0.5784 -0.0698
11976TIP3    H157343   2.461   3.698   3.342 -1.2438 -0.6670  0.3493
11976TIP3    H257344   2.416   3.836   3.384 -0.0390 -0.4204  0.8899
11977TIP3   OH257345   6.427   3.024   0.766 -0.4255 -0.3213  0.2905
11977TIP3    H157346   6.475   3.027   0.684 -0.7399 -0.6415  0.0946
11977TIP3    H257347   6.366   3.098   0.762  0.7359  0.7087  0.9715
11978TIP3   OH257348   2.351   3.734  15.392 -0.7173 -0.7563 -0.4383
11978TIP3    H157349   2.365   3.778  15.308 -3.2869 -1.9666 -1.6356
11978TIP3    H257350   2.326   3.644  15.367 -1.5036 -1.1623  1.6185
11979TIP3   OH257351   3.321   3.465   2.571 -0.0430 -0.0550  0.0397
11979TIP3    H157352   3.243   3.517   2.555  0.9785  1.5099 -0.1000
11979TIP3    H257353   3.292   3.393   2.626 -1.3063  1.3214  1.2274
11980TIP3   OH257354   1.305   2.312   3.857  0.0373 -0.0408 -0.0014
11980TIP3    H157355   1.316   2.218   3.841 -0.6883 -0.0402 -0.5746
11980TIP3    H257356   1.253   2.317   3.937 -0.9739 -0.1567 -0.6444
11981TIP3   OH257357   2.987   6.656   1.907  0.2825 -0.2231  0.3940
11981TIP3    H157358   3.072   6.656   1.863  0.8712 -0.4737  1.5057
11981TIP3    H257359   2.924   6.668   1.836  1.1696 -1.1322 -0.5864
11982TIP3   OH257360   1.985   6.336   1.282 -0.0954  0.2967  0.0032
11982TIP3    H157361   1.903   6.332   1.233 -0.2993  0.4455  0.3269
11982TIP3    H257362   1.960   6.375   1.366  0.4705  1.2600 -0.2571
11983TIP3   OH257363   4.343   2.628   3.686 -0.4425  0.4815  0.5104
11983TIP3    H157364   4.292   2.569   3.632 -0.5823  1.2848 -0.2656
11983TIP3    H257365   4.400   2.674   3.624 -0.5426  1.3520  1.0436
11984TIP3   OH257366   6.187   6.578   3.045 -0.1701  0.1131 -0.2568
11984TIP3    H157367   6.241   6.532   3.110 -2.4582 -0.2461  1.4939
11984TIP3    H257368   6.183   6.668   3.077 -1.3741 -0.0825  0.1703
11985TIP3   OH257369   2.285   3.058   4.238  0.0644  0.0680 -0.3838
11985TIP3    H157370   2.204   3.097   4.206  0.8413  0.1184 -2.4790
11985TIP3    H257371   2.264   2.965   4.248 -0.6157  0.3012  0.4489
11986TIP3   OH257372   0.916   1.122   3.927  0.1167  0.2501 -0.0135
11986TIP3    H157373   0.824   1.104   3.907  0.0750 -0.1964  0.5436
11986TIP3    H257374   0.962   1.113   3.844 -0.2377 -0.2312 -0.1573
11987TIP3   OH257375   3.979   6.017   3.305  0.4842  0.1500  0.1883
11987TIP3    H157376   4.048   6.017   3.371  1.0180 -2.5049 -0.2731
11987TIP3    H257377   3.898   6.013   3.355  0.8889 -2.1237  0.7712
11988TIP3   OH257378   3.004   1.106   1.382  0.0288  0.0138 -0.3114
11988TIP3    H157379   3.081   1.107   1.438  0.8728  1.5904 -1.4123
11988TIP3    H257380   2.958   1.188   1.403 -0.3804 -0.0477 -0.9315
11989TIP3   OH257381   5.757   0.800   2.406 -0.5327 -0.1787  0.0642
11989TIP3    H157382   5.793   0.717   2.436 -0.0222 -0.3147 -0.9167
11989TIP3    H257383   5.692   0.823   2.473 -0.9946 -1.5673  0.1218
11990TIP3   OH257384   4.836   4.480   3.860  0.5072 -0.0702 -0.6122
11990TIP3    H157385   4.853   4.532   3.939  1.8213 -0.7670 -0.4109
11990TIP3    H257386   4.782   4.407   3.891  1.4193 -0.6024 -0.2479
11991TIP3   OH257387   5.422   4.126   4.275 -0.1939 -1.1822  0.5396
11991TIP3    H157388   5.502   4.173   4.253 -1.4661  0.7912 -0.0973
11991TIP3    H257389   5.414   4.137   4.370 -0.4265 -0.1563  0.4124
11992TIP3   OH257390   5.126   0.786  13.495  0.3274 -0.4487 -0.0221
11992TIP3    H157391   5.097   0.776  13.586 -1.3079  1.8017 -0.2031
11992TIP3    H257392   5.131   0.697  13.461 -1.2954 -1.2208  1.6028
11993TIP3   OH257393   2.236   4.324  15.068 -0.3832 -0.0506  0.2839
11993TIP3    H157394   2.241   4.403  15.015 -1.8057 -0.9044 -1.2299
11993TIP3    H257395   2.250   4.354  15.158 -0.6857  1.8802 -0.2732
11994TIP3   OH257396   4.257   1.112   0.159  0.1517  0.7266 -0.4399
11994TIP3    H157397   4.293   1.107   0.071 -1.6800 -1.5097 -1.1671
11994TIP3    H257398   4.201   1.189   0.158 -0.4243  0.3053 -1.4735
11995TIP3   OH257399   3.759   0.278   3.916  0.2274 -0.2445 -0.1103
11995TIP3    H157400   3.855   0.279   3.918  0.2170  0.6575  0.7948
11995TIP3    H257401   3.736   0.338   3.844  0.3358 -0.3913 -0.2688
11996TIP3   OH257402   3.897   1.973  12.707  0.0690 -0.2617 -0.0675
11996TIP3    H157403   3.973   1.914  12.702 -0.9169 -1.6192  0.2983
11996TIP3    H257404   3.829   1.928  12.658 -0.2877  1.3297 -1.0947
11997TIP3   OH257405   5.917   6.252   0.434 -0.2590  0.0731  0.2176
11997TIP3    H157406   5.976   6.311   0.388 -1.5995  0.9451 -0.4373
11997TIP3    H257407   5.948   6.252   0.525  0.4292  0.8950 -0.0109
11998TIP3   OH257408   4.225   2.518  14.840  0.5085 -0.5116  0.0684
11998TIP3    H157409   4.151   2.458  14.844  0.7348 -0.9086 -1.3591
11998TIP3    H257410   4.263   2.504  14.754  1.5133  0.5674  0.3129
11999TIP3   OH257411   6.255   5.192   2.774 -0.7198  0.3471  0.3646
11999TIP3    H157412   6.299   5.210   2.857 -0.7023 -0.5021  0.5401
11999TIP3    H257413   6.317   5.220   2.707 -0.0754 -0.4757  0.6143
12000TIP3   OH257414   5.853   0.555   1.035  0.4984 -0.0342 -0.1692
12000TIP3    H157415   5.869   0.508   0.953  2.6150 -0.0629  0.1972
12000TIP3    H257416   5.940   0.574   1.069 -0.3256  1.1036  1.4548
12001TIP3   OH257417   1.659   6.782   3.906 -0.4368  0.1813  0.0089
12001TIP3    H157418   1.656   6.758   3.813 -3.2058  0.3530 -0.0114
12001TIP3    H257419   1.637   6.875   3.908 -3.0060 -0.3758  0.9424
12002TIP3   OH257420   2.082   5.241   3.184  0.1464  0.8155  0.1268
12002TIP3    H157421   2.152   5.224   3.247  1.5693  2.9318 -0.7319
12002TIP3    H257422   2.106   5.189   3.107  2.4460  3.4529 -1.1576
12003TIP3   OH257423   4.744   5.425   3.856  0.4906 -0.1923  0.0249
12003TIP3    H157424   4.725   5.514   3.884  0.7631  0.2484 -1.1499
12003TIP3    H257425   4.667   5.375   3.882 -0.3621  0.6981 -0.7299
12004TIP3   OH257426   5.968   7.059   0.256  0.0827 -0.2189 -0.0422
12004TIP3    H157427   5.884   7.047   0.213  0.7456 -0.0695 -1.4658
12004TIP3    H257428   6.018   6.981   0.233  1.0867  0.7033 -1.1726
12005TIP3   OH257429   5.884   0.305   2.677  0.5456  0.5233  0.4583
12005TIP3    H157430   5.864   0.229   2.623  1.5827  0.2808  0.3992
12005TIP3    H257431   5.813   0.308   2.741 -0.2874  0.3736 -0.4431
12006TIP3   OH257432   3.706   5.176  11.019 -0.1895  0.6146  0.0362
12006TIP3    H157433   3.700   5.141  11.108 -1.5982 -0.0665 -0.2861
12006TIP3    H257434   3.780   5.131  10.980 -2.2644 -2.6501 -0.5553
12007TIP3   OH257435   4.527   5.124   1.383  0.1460 -0.2216 -0.0909
12007TIP3    H157436   4.496   5.081   1.303 -1.1151  0.1830  0.1605
12007TIP3    H257437   4.620   5.103   1.387  0.3324  0.1216 -1.9049
12008TIP3   OH257438   2.516   2.427   1.828 -0.5979  0.1658  0.5356
12008TIP3    H157439   2.447   2.461   1.885 -1.0282  1.4023 -0.6801
12008TIP3    H257440   2.473   2.416   1.743  0.2428 -0.8463  0.2235
12009TIP3   OH257441   6.835   1.550   4.213  0.2640  0.1187 -0.2732
12009TIP3    H157442   6.747   1.538   4.178 -0.0606 -2.5935  1.2500
12009TIP3    H257443   6.822   1.571   4.306  1.2170  0.3043 -0.1700
12010TIP3   OH257444   4.161   5.951   2.607 -0.4424 -0.0771  0.2984
12010TIP3    H157445   4.101   5.966   2.534 -2.5201  1.1846  2.1470
12010TIP3    H257446   4.104   5.941   2.683  1.6677 -0.2316  1.9503
12011TIP3   OH257447   0.902   1.067   5.056 -0.2979 -0.7577 -0.0520
12011TIP3    H157448   0.983   1.040   5.100 -0.2599 -0.1486  0.2683
12011TIP3    H257449   0.849   0.988   5.053 -0.5214 -0.7152  1.6079
12012TIP3   OH257450   1.021   6.127   3.874 -0.0029 -0.1486 -0.9939
12012TIP3    H157451   1.097   6.082   3.835  0.5739 -0.4331  0.3961
12012TIP3    H257452   0.962   6.056   3.899 -0.1188 -0.0040 -0.8617
12013TIP3   OH257453   4.957   4.180   1.209  0.0491 -0.1575 -0.0454
12013TIP3    H157454   4.924   4.096   1.242 -3.5842  1.7198  1.7712
12013TIP3    H257455   5.002   4.219   1.284  1.3876 -0.2977 -0.7608
12014TIP3   OH257456   4.295   1.676  10.578 -0.3680  0.4613  0.1033
12014TIP3    H157457   4.286   1.643  10.667  0.6077 -0.0706  0.0141
12014TIP3    H257458   4.224   1.632  10.530 -0.4136  0.1466  0.4515
12015TIP3   OH257459   5.878   6.004   0.298 -0.0801 -0.0191  0.6147
12015TIP3    H157460   5.908   6.075   0.354 -2.4775  1.7236 -0.1762
12015TIP3    H257461   5.836   5.943   0.358  1.3564 -0.4867  1.2021
12016TIP3   OH257462   4.165   4.199   2.870  0.4620 -0.2131 -0.0738
12016TIP3    H157463   4.243   4.230   2.824  1.4985 -0.1294  1.6330
12016TIP3    H257464   4.092   4.223   2.814  1.5978  0.6384 -1.2359
12017TIP3   OH257465   6.203   5.027  12.045 -0.2868  0.1696  0.9692
12017TIP3    H157466   6.172   5.008  11.956 -2.2022 -0.7368  1.7859
12017TIP3    H257467   6.178   5.119  12.059  0.9540  0.6544  0.2522
12018TIP3   OH257468   2.229   1.482  12.915 -0.1446  0.2523  0.3961
12018TIP3    H157469   2.243   1.482  12.820  1.0811  0.2320  0.5612
12018TIP3    H257470   2.140   1.448  12.926 -0.6159  1.0483 -0.7820
12019TIP3   OH257471   3.041   0.628   5.052 -0.2385 -0.1359 -0.3379
12019TIP3    H157472   3.023   0.638   5.145 -1.5290  0.2858 -0.6031
12019TIP3    H257473   3.134   0.650   5.042  0.1807 -1.2031  0.9772
12020TIP3   OH257474   3.422   1.970   1.994  0.0062  0.0117 -0.0983
12020TIP3    H157475   3.447   2.041   1.935  0.3611  0.1897  0.2631
12020TIP3    H257476   3.336   1.996   2.028 -1.1777 -1.0458 -2.0627
12021TIP3   OH257477   6.383   0.357  14.563  0.0736 -0.2274 -0.1015
12021TIP3    H157478   6.459   0.300  14.576 -0.3727 -0.3800  2.4836
12021TIP3    H257479   6.312   0.297  14.541  0.1609 -0.4089  0.0966
12022TIP3   OH257480   3.510   4.133  13.836  0.3443  0.4013 -0.4948
12022TIP3    H157481   3.548   4.221  13.834  0.3316  0.4217 -0.0265
12022TIP3    H257482   3.569   4.080  13.782  0.2445  0.7358 -0.9365
12023TIP3   OH257483   5.721   2.600  12.024 -0.6051  0.0106 -0.3672
12023TIP3    H157484   5.726   2.629  11.932  0.3393 -0.5607 -0.5082
12023TIP3    H257485   5.741   2.679  12.074  0.3322 -0.0118 -0.6964
12024TIP3   OH257486   0.865   3.995  10.847 -0.0658  1.1282  0.5743
12024TIP3    H157487   0.829   3.936  10.781  1.2667 -0.3185  1.0767
12024TIP3    H257488   0.789   4.038  10.885 -0.8880  1.9775 -1.8291
12025TIP3   OH257489   4.778   2.230   2.576  0.5252  0.1782 -0.1297
12025TIP3    H157490   4.796   2.137   2.563  1.3546  0.1841  0.8273
12025TIP3    H257491   4.840   2.275   2.520 -0.7296  0.1750 -1.5847
12026TIP3   OH257492   6.259   2.663   1.687  0.4276  0.1570  0.1333
12026TIP3    H157493   6.321   2.619   1.745  0.5199  1.9776  1.4995
12026TIP3    H257494   6.296   2.654   1.599  1.6202 -0.4440  0.6874
12027TIP3   OH257495   6.141   5.342  13.724  0.6136  0.0798  0.7036
12027TIP3    H157496   6.201   5.283  13.679 -0.1587 -0.9419  0.9903
12027TIP3    H257497   6.063   5.289  13.742 -0.8433  1.6455 -0.6323
12028TIP3   OH257498   0.911   5.323  15.157 -0.7739 -0.0730  0.0912
12028TIP3    H157499   0.904   5.338  15.251 -0.0892  0.6762  0.0324
12028TIP3    H257500   0.938   5.408  15.121 -0.7430 -0.4257 -0.7443
12029TIP3   OH257501   6.791   5.918   1.620  0.1756  0.4364  0.3340
12029TIP3    H157502   6.734   5.845   1.595 -0.9228  1.5813 -0.6237
12029TIP3    H257503   6.791   5.916   1.716 -0.2991 -0.4521  0.3307
12030TIP3   OH257504   5.458   2.671   2.408  0.7018  0.0824  0.3527
12030TIP3    H157505   5.444   2.679   2.314  0.6319  1.5080  0.4628
12030TIP3    H257506   5.426   2.583   2.430  1.5542 -0.6174 -1.0761
12031TIP3   OH257507   2.860   4.418   3.298  0.0255  0.1344  0.7237
12031TIP3    H157508   2.926   4.374   3.352  0.1862 -0.5035  0.0311
12031TIP3    H257509   2.778   4.407   3.346  0.1194 -0.6605  0.7262
12032TIP3   OH257510   5.058   1.334  10.225 -0.1900 -0.3855 -0.1129
12032TIP3    H157511   4.994   1.282  10.177  1.2102 -1.8363 -0.4950
12032TIP3    H257512   5.043   1.312  10.317 -0.7557 -0.0859 -0.1281
12033TIP3   OH257513   4.379   3.313  10.737 -0.3822 -0.0617  0.0339
12033TIP3    H157514   4.325   3.284  10.663 -1.5109  1.4054  0.2290
12033TIP3    H257515   4.468   3.286  10.714 -0.8366 -0.3965 -1.4569
12034TIP3   OH257516   3.150   0.945   1.222  0.1534 -0.0736 -0.0289
12034TIP3    H157517   3.085   1.005   1.257 -0.4743 -0.4129 -0.5986
12034TIP3    H257518   3.169   0.885   1.295  1.4743  1.3364  0.8512
12035TIP3   OH257519   6.710   2.604   5.533  0.3297 -0.8158  0.1032
12035TIP3    H157520   6.700   2.509   5.543 -0.9487 -0.5788  1.4041
12035TIP3    H257521   6.750   2.615   5.447  2.3609 -2.6327  0.7220
12036TIP3   OH257522   6.905   4.454  12.300  0.0233  0.1903 -0.1138
12036TIP3    H157523   6.937   4.479  12.387  2.7607  0.7233 -1.2010
12036TIP3    H257524   6.869   4.366  12.313  0.3827  0.2537  1.5508
12037TIP3   OH257525   6.628   4.855   2.417 -0.3787  0.0195  0.5259
12037TIP3    H157526   6.647   4.849   2.510 -1.8486 -0.2400  0.8385
12037TIP3    H257527   6.534   4.871   2.413 -0.7224 -1.9567 -0.9474
12038TIP3   OH257528   5.871   0.326   3.216 -0.0146 -0.1900  0.1283
12038TIP3    H157529   5.927   0.391   3.174 -0.5616  0.7518  0.8192
12038TIP3    H257530   5.827   0.281   3.144  0.6637 -0.0593 -0.3690
12039TIP3   OH257531   1.035   7.009   2.140  0.3202 -0.3012  0.2743
12039TIP3    H157532   0.987   7.078   2.094 -2.0661 -0.1728  2.7082
12039TIP3    H257533   1.127   7.037   2.136 -0.4448  2.5064  0.3311
12040TIP3   OH257534   5.967   5.850   3.987 -0.4640  1.0294 -0.4252
12040TIP3    H157535   5.988   5.789   4.058 -0.1147  1.1883 -0.3890
12040TIP3    H257536   5.887   5.815   3.948  0.3183 -0.0556 -1.0923
12041TIP3   OH257537   2.659   2.235  13.812  0.3597 -0.3285  0.4564
12041TIP3    H157538   2.575   2.208  13.848  0.6168  0.1341  1.4301
12041TIP3    H257539   2.638   2.274  13.728 -0.3926 -0.2634  0.6708
12042TIP3   OH257540   1.064   0.972  12.182 -0.2812 -0.2948  0.0973
12042TIP3    H157541   1.045   0.960  12.275  1.1038  0.1618  0.4649
12042TIP3    H257542   1.078   1.066  12.173  0.5952 -0.4559 -0.3566
12043TIP3   OH257543   3.565   3.504  10.512 -0.3896  0.3690 -0.1954
12043TIP3    H157544   3.535   3.414  10.498 -0.6570  0.3219  0.5995
12043TIP3    H257545   3.650   3.508  10.470 -1.1291  0.2490 -1.7576
12044TIP3   OH257546   1.634   1.519  13.775  0.0767 -0.0163 -0.3780
12044TIP3    H157547   1.710   1.471  13.808 -0.8536 -1.1922  0.1281
12044TIP3    H257548   1.564   1.453  13.772 -0.8645  0.9931 -1.0254
12045TIP3   OH257549   0.173   4.557   2.598  0.4543 -0.2779 -0.6945
12045TIP3    H157550   0.121   4.512   2.531 -1.5355 -1.1174  1.2893
12045TIP3    H257551   0.134   4.645   2.603 -0.9093 -0.9353  0.8542
12046TIP3   OH257552   1.539   1.610   3.051 -0.1619  0.3024 -0.3191
12046TIP3    H157553   1.563   1.518   3.036 -1.0331 -0.3079  1.7706
12046TIP3    H257554   1.456   1.620   3.006 -0.7201 -0.3322  0.5387
12047TIP3   OH257555   0.470   1.938   0.330  0.3579 -0.6784  0.1851
12047TIP3    H157556   0.389   1.894   0.355  0.6315 -0.9261  0.6653
12047TIP3    H257557   0.489   1.907   0.242 -0.4238 -0.0955 -0.2020
12048TIP3   OH257558   4.046   0.578   0.134 -0.4099  0.2734  0.4335
12048TIP3    H157559   3.994   0.547   0.060 -0.6736  0.0992  0.6910
12048TIP3    H257560   4.123   0.521   0.135 -1.3044 -0.9869  1.4381
12049TIP3   OH257561   6.203   0.032   4.216 -0.3373  0.1563  0.4968
12049TIP3    H157562   6.255  -0.046   4.193 -1.1028  0.0831 -1.1741
12049TIP3    H257563   6.113  -0.001   4.225 -0.6325  0.8021 -0.0057
12050TIP3   OH257564   4.135   6.979   0.599 -0.0552 -0.2309 -0.1066
12050TIP3    H157565   4.152   7.015   0.511  2.0714  1.6350  0.9607
12050TIP3    H257566   4.201   6.911   0.610  1.4752  1.3493  0.9614
12051TIP3   OH257567   5.788   2.735   5.105 -0.4935 -0.2106 -0.0794
12051TIP3    H157568   5.726   2.710   5.173 -0.5143  0.4622  0.1582
12051TIP3    H257569   5.742   2.801   5.053 -1.2689 -2.1564 -2.0461
12052TIP3   OH257570   7.119   1.956   0.944  0.1246  0.1192 -0.2004
12052TIP3    H157571   7.107   2.050   0.933  0.3438  0.1647 -0.0562
12052TIP3    H257572   7.152   1.925   0.860  0.4624  0.2390 -0.1102
12053TIP3   OH257573   1.695   5.081   1.774 -0.2531  0.5190  0.2948
12053TIP3    H157574   1.623   5.120   1.825 -0.1836 -0.6078  1.3213
12053TIP3    H257575   1.774   5.105   1.823 -0.2943 -1.8349  1.6691
12054TIP3   OH257576   6.007   3.157   3.568 -0.4758  0.0342  0.2368
12054TIP3    H157577   5.932   3.215   3.573 -1.9207 -1.7126 -0.1807
12054TIP3    H257578   5.972   3.070   3.586  1.0664 -1.1382 -1.8886
12055TIP3   OH257579   5.135   3.065  11.471 -0.3896 -0.6529 -0.3005
12055TIP3    H157580   5.177   3.146  11.500  0.2815 -1.0913 -0.0335
12055TIP3    H257581   5.116   3.081  11.378  1.5340 -0.8977 -0.7890
12056TIP3   OH257582   6.824   5.525  13.545  0.3991  0.4404 -0.2968
12056TIP3    H157583   6.784   5.611  13.537 -0.5009 -0.0602 -1.5901
12056TIP3    H257584   6.876   5.515  13.464 -1.3396 -1.0872 -1.3143
12057TIP3   OH257585   0.256   6.870  10.823  0.1635  0.1038 -0.7801
12057TIP3    H157586   0.263   6.785  10.867 -1.7884 -0.0906 -0.7656
12057TIP3    H257587   0.162   6.880  10.805  0.2252  2.6026 -0.0900
12058TIP3   OH257588   4.537   0.991   1.875  0.2329 -0.4904 -0.1025
12058TIP3    H157589   4.543   1.027   1.786 -1.8249  1.0056  0.2956
12058TIP3    H257590   4.505   1.064   1.928 -2.0092 -2.2785  1.1756
12059TIP3   OH257591   4.449   6.787   5.244  0.0758  0.4112  0.1321
12059TIP3    H157592   4.536   6.802   5.280  1.0424 -1.7503 -1.1567
12059TIP3    H257593   4.454   6.702   5.201 -2.5296  0.4595 -0.4625
12060TIP3   OH257594   2.230   0.494  13.668  0.1972  0.4864 -0.0566
12060TIP3    H157595   2.214   0.400  13.660  1.9263  0.2845 -2.6210
12060TIP3    H257596   2.320   0.500  13.701  1.0333  1.0695 -2.1970
12061TIP3   OH257597   2.758   3.908  12.684 -0.5975  0.8096  0.5137
12061TIP3    H157598   2.781   3.856  12.607  0.0604  2.4041 -0.4171
12061TIP3    H257599   2.729   3.844  12.748 -0.8864 -0.5987 -0.9562
12062TIP3   OH257600   2.009   2.533   0.983  0.2551  0.4748 -0.0543
12062TIP3    H157601   2.013   2.509   0.891  1.4794  1.1310 -0.1799
12062TIP3    H257602   1.934   2.483   1.017  1.6361 -2.2123 -0.6822
12063TIP3   OH257603   0.998   3.034  10.625  0.1288  0.0335 -0.4637
12063TIP3    H157604   1.003   3.085  10.544  1.2741 -0.7436 -0.9042
12063TIP3    H257605   1.086   3.037  10.661  0.1079 -1.2514 -0.2721
12064TIP3   OH257606   3.251   1.391   0.278 -0.4067  1.1692 -0.6763
12064TIP3    H157607   3.281   1.409   0.189  1.2296  1.2562 -0.1353
12064TIP3    H257608   3.330   1.365   0.326 -1.2407  1.1575  0.7645
12065TIP3   OH257609   0.025   2.602  14.765  0.1260 -0.3858 -0.2139
12065TIP3    H157610   0.113   2.572  14.743 -0.1357 -1.6368  0.3475
12065TIP3    H257611  -0.008   2.641  14.684  0.6832 -1.1761 -0.8375
12066TIP3   OH257612   1.885   1.555   4.945 -0.0738 -0.7719 -0.2467
12066TIP3    H157613   1.876   1.612   5.022 -1.5267  1.6972 -2.0900
12066TIP3    H257614   1.867   1.467   4.978  0.3105  0.0506  2.3912
12067TIP3   OH257615   1.437   2.144   3.285 -0.2224 -0.6664  0.0708
12067TIP3    H157616   1.456   2.210   3.218  2.0734 -0.9579  0.3521
12067TIP3    H257617   1.389   2.191   3.353  1.9022  0.9389  0.5528
12068TIP3   OH257618   3.230   2.225   1.816  0.2886 -0.5725  0.5845
12068TIP3    H157619   3.159   2.184   1.866 -0.0205 -1.5057 -0.5716
12068TIP3    H257620   3.250   2.162   1.746  1.2032  0.3595 -0.0275
12069TIP3   OH257621   2.940   4.230  14.886 -0.2381  0.3480 -0.3969
12069TIP3    H157622   3.033   4.236  14.863 -0.1426 -0.4947 -0.2756
12069TIP3    H257623   2.895   4.224  14.802  0.1190 -2.8681 -0.4902
12070TIP3   OH257624   4.140   3.849   5.266  0.5529  0.2669  0.6280
12070TIP3    H157625   4.135   3.843   5.361 -0.2117 -1.7703  0.4983
12070TIP3    H257626   4.063   3.900   5.242 -1.3006 -2.2151  0.9321
12071TIP3   OH257627   0.163   3.729  15.368 -0.6687 -0.5327 -0.0640
12071TIP3    H157628   0.175   3.796  15.436 -0.8414 -1.6740  1.1497
12071TIP3    H257629   0.205   3.766  15.290 -1.8383  1.4917  0.2004
12072TIP3   OH257630   4.758   3.457  10.570 -0.2444 -0.1009  0.4994
12072TIP3    H157631   4.808   3.443  10.489  0.1130 -2.3785  1.0332
12072TIP3    H257632   4.675   3.495  10.541  0.3415  0.2420 -0.8067
12073TIP3   OH257633   3.221   1.464  12.473  0.1740  0.0855 -0.3704
12073TIP3    H157634   3.179   1.380  12.490 -0.6198  0.5077 -0.2222
12073TIP3    H257635   3.312   1.441  12.453  0.0455 -0.7798 -0.0150
12074TIP3   OH257636   5.806   4.648  12.700  0.1487 -0.0916  0.0772
12074TIP3    H157637   5.831   4.736  12.673 -3.0490  0.4402 -1.6117
12074TIP3    H257638   5.855   4.591  12.640  1.8300  0.4838  0.8373
12075TIP3   OH257639   6.384   6.428   5.176 -0.3262  0.2876  0.7345
12075TIP3    H157640   6.411   6.373   5.103  0.0972  0.6286  0.6327
12075TIP3    H257641   6.295   6.454   5.155  0.2404  1.4748 -0.3226
12076TIP3   OH257642   4.460   6.248   2.467  0.5661 -0.1697  0.0397
12076TIP3    H157643   4.394   6.183   2.491  0.6422 -1.0410 -1.8727
12076TIP3    H257644   4.526   6.242   2.535 -0.8081  0.0133  1.4647
12077TIP3   OH257645   5.222   4.014   3.628  0.3258  0.2218 -0.7492
12077TIP3    H157646   5.218   4.066   3.708  0.0422  0.9128 -1.2025
12077TIP3    H257647   5.293   4.052   3.578  0.4256 -0.1343 -0.8822
12078TIP3   OH257648   3.784   1.908   1.044 -0.6916 -0.7319  0.3506
12078TIP3    H157649   3.744   1.910   1.131  0.0460 -0.2277  0.6885
12078TIP3    H257650   3.713   1.885   0.985 -1.4142 -0.1184  0.9681
12079TIP3   OH257651   3.328   6.016   5.006 -0.1662 -0.4162  0.1654
12079TIP3    H157652   3.323   6.032   4.912 -2.0292 -0.1016  0.2850
12079TIP3    H257653   3.366   6.096   5.042 -0.3368 -0.1585 -0.2280
12080TIP3   OH257654   2.115   1.851   0.663  0.1736  0.3835 -0.7450
12080TIP3    H157655   2.193   1.886   0.620  2.1691 -1.3762  1.1988
12080TIP3    H257656   2.078   1.926   0.709  1.6737  0.9588 -0.4016
12081TIP3   OH257657   5.179   3.196  10.013  0.0365 -0.1970  0.0837
12081TIP3    H157658   5.253   3.190   9.952 -0.5063  1.7757 -0.8396
12081TIP3    H257659   5.195   3.277  10.062 -1.5761  0.3610 -0.2577
12082TIP3   OH257660   0.225   6.961   3.497  0.2697  0.6739  0.7367
12082TIP3    H157661   0.236   6.908   3.576  2.6362 -1.7080 -1.0181
12082TIP3    H257662   0.278   7.039   3.513  3.6195 -1.3201  0.3969
12083TIP3   OH257663   1.699   5.483  14.639 -0.5847  0.5968 -0.2145
12083TIP3    H157664   1.789   5.455  14.622  0.3676 -0.0536  4.4018
12083TIP3    H257665   1.651   5.401  14.650 -0.7932  0.8533  0.9438
12084TIP3   OH257666   1.214   6.323   1.330 -0.2535 -0.0599 -0.3910
12084TIP3    H157667   1.301   6.351   1.358  0.1175 -0.8021 -0.7719
12084TIP3    H257668   1.215   6.228   1.341 -1.2355 -0.0170  0.1923
12085TIP3   OH257669   6.845   6.439   2.999  0.2929 -0.5460 -0.5259
12085TIP3    H157670   6.890   6.379   3.059  0.0071  0.5133  0.8064
12085TIP3    H257671   6.760   6.455   3.041 -0.3529 -0.5867 -1.7619
12086TIP3   OH257672   3.458   1.148   0.525 -0.0406  0.1300 -0.0989
12086TIP3    H157673   3.508   1.078   0.566 -0.9877 -0.5354 -0.0628
12086TIP3    H257674   3.479   1.143   0.432  0.7348  0.5112  0.0441
12087TIP3   OH257675   6.993   2.387   4.920  0.5584  0.4117  0.0747
12087TIP3    H157676   6.992   2.293   4.901 -0.0076  0.3580  0.3446
12087TIP3    H257677   7.086   2.410   4.924  0.7113  0.2167 -1.6594
12088TIP3   OH257678   1.160   0.380   2.591 -0.3717  0.6574  0.2131
12088TIP3    H157679   1.121   0.307   2.640 -0.4150  0.4145 -0.1753
12088TIP3    H257680   1.090   0.445   2.585 -0.6055  0.3771 -0.1621
12089TIP3   OH257681   6.201   0.868  10.387 -0.1158 -0.3254  0.1194
12089TIP3    H157682   6.149   0.804  10.434  0.0389  1.5458  3.1031
12089TIP3    H257683   6.184   0.951  10.432  1.0432  1.4344 -2.4144
12090TIP3   OH257684   0.872   4.018   2.142 -0.7849 -0.2089  0.1669
12090TIP3    H157685   0.822   3.937   2.149 -0.6868 -0.4228 -1.2246
12090TIP3    H257686   0.935   4.000   2.072  0.9152  0.2245  1.5182
12091TIP3   OH257687   3.194   6.431   4.465  0.0235  0.2607  0.2229
12091TIP3    H157688   3.164   6.471   4.384  0.5796 -0.3107 -0.2758
12091TIP3    H257689   3.141   6.351   4.472 -1.3284  1.2135  1.3880
12092TIP3   OH257690   0.588   5.695   4.944  0.8678  0.3482 -0.1260
12092TIP3    H157691   0.497   5.705   4.916  0.0220 -0.9954  1.9559
12092TIP3    H257692   0.597   5.751   5.021  1.4219 -0.4785  0.4295
12093TIP3   OH257693   0.545   3.911   2.222  0.6118  0.3447 -0.0773
12093TIP3    H157694   0.584   3.998   2.229  0.9879  0.0366  3.2786
12093TIP3    H257695   0.452   3.924   2.240  0.8082  0.0366  1.3404
12094TIP3   OH257696   4.477   1.091  14.623  0.0815 -0.7988  0.0496
12094TIP3    H157697   4.459   1.013  14.569 -0.8858 -1.9192  1.9004
12094TIP3    H257698   4.401   1.147  14.609  0.9630  0.0537 -1.5991
12095TIP3   OH257699   6.250   7.055  12.548 -0.4251 -0.4956  0.6203
12095TIP3    H157700   6.214   7.066  12.636 -0.6395 -0.5012  0.5346
12095TIP3    H257701   6.224   7.135  12.502 -1.9852 -1.3127 -0.0021
12096TIP3   OH257702   3.104   4.474   4.791  0.0217 -0.3382 -0.6423
12096TIP3    H157703   3.026   4.528   4.785 -0.0699 -0.5316 -1.2757
12096TIP3    H257704   3.161   4.506   4.721  1.4665  1.2780  1.1387
12097TIP3   OH257705   3.385   2.549   4.614 -0.7304 -0.0291 -0.2976
12097TIP3    H157706   3.397   2.529   4.522 -0.7570 -0.0457 -0.2973
12097TIP3    H257707   3.396   2.466   4.659  0.3518  0.1563 -0.1862
12098TIP3   OH257708   1.622   3.702   1.638  0.4436  0.0437  0.4521
12098TIP3    H157709   1.679   3.739   1.705 -2.3525  0.8512  2.5826
12098TIP3    H257710   1.634   3.759   1.562  1.4863  0.9598  1.2622
12099TIP3   OH257711   3.572   5.539   4.865  0.3359  0.0131  0.5830
12099TIP3    H157712   3.538   5.626   4.884 -1.7703 -0.5458 -0.3083
12099TIP3    H257713   3.556   5.489   4.945 -1.3790 -0.3263  0.0743
12100TIP3   OH257714   0.331   6.925  11.577  0.3780  0.2155  0.3198
12100TIP3    H157715   0.249   6.960  11.614 -0.2228 -1.6510  0.8430
12100TIP3    H257716   0.386   6.908  11.653 -0.7106 -3.2593  0.5182
12101TIP3   OH257717   1.125   5.373   3.581  0.1414 -0.1020 -0.1795
12101TIP3    H157718   1.210   5.340   3.611 -0.5933 -0.7714  1.2524
12101TIP3    H257719   1.139   5.393   3.488  1.5266 -1.3983 -0.2956
12102TIP3   OH257720   0.878   6.999  11.507 -0.3884  0.3576 -0.3158
12102TIP3    H157721   0.848   6.947  11.582  0.2870 -0.9058 -0.8753
12102TIP3    H257722   0.799   7.012  11.454 -1.0685  2.0905  1.0480
12103TIP3   OH257723   6.090   2.247   3.041 -0.1500 -0.4386 -0.5767
12103TIP3    H157724   6.008   2.288   3.070 -1.4540 -0.8063 -3.4252
12103TIP3    H257725   6.157   2.288   3.096 -1.8341  2.5375 -0.5191
12104TIP3   OH257726   2.319   6.557   1.345 -0.2035 -0.1818 -0.1848
12104TIP3    H157727   2.404   6.572   1.388  0.1318 -1.3010 -0.4232
12104TIP3    H257728   2.333   6.479   1.291 -1.3969 -0.3870 -0.2180
12105TIP3   OH257729   1.406   6.282   1.609  0.6787 -0.2182 -0.0294
12105TIP3    H157730   1.481   6.296   1.666  0.9241 -0.7653 -0.2177
12105TIP3    H257731   1.376   6.194   1.629  0.3539 -0.1654 -0.2717
12106TIP3   OH257732   2.330   4.942  13.416 -0.0013 -0.2222  0.2460
12106TIP3    H157733   2.373   4.893  13.346  0.2508  0.6683 -0.2441
12106TIP3    H257734   2.238   4.917  13.410  0.1268 -0.6533  0.0350
12107TIP3   OH257735   3.308   2.200   5.924  0.2095  0.5295  0.4220
12107TIP3    H157736   3.333   2.218   6.014  0.1772  0.5625  0.4245
12107TIP3    H257737   3.243   2.129   5.931  1.7579 -0.9576  0.2855
12108TIP3   OH257738   0.722   6.061  11.109  0.0512 -0.5974  0.1130
12108TIP3    H157739   0.755   6.007  11.037  1.7082  0.7961 -0.2496
12108TIP3    H257740   0.663   6.123  11.066  0.5407 -0.1763  0.0404
12109TIP3   OH257741   5.070   3.095  12.064 -0.1152  0.0957  0.2713
12109TIP3    H157742   5.157   3.056  12.060 -0.2900 -0.7183  2.7659
12109TIP3    H257743   5.085   3.189  12.056  0.6748 -0.1546 -1.9238
12110TIP3   OH257744   0.878   5.196  12.101  0.1356 -0.3039 -0.4725
12110TIP3    H157745   0.861   5.150  12.019 -0.0524 -0.2258 -0.4779
12110TIP3    H257746   0.887   5.288  12.075 -0.4509 -0.2041 -0.3409
12111TIP3   OH257747   1.953   6.936   2.521 -0.4127  0.5750 -0.3027
12111TIP3    H157748   1.959   6.989   2.443 -0.2628  0.3532 -0.4444
12111TIP3    H257749   2.028   6.962   2.575 -0.5805  0.8081 -0.1827
12112TIP3   OH257750   1.852   7.130  14.061 -0.2463 -0.2150  0.1616
12112TIP3    H157751   1.757   7.134  14.062 -0.2917 -0.7061 -1.0700
12112TIP3    H257752   1.874   7.064  14.127 -0.6508  0.9717  1.5679
12113TIP3   OH257753   6.342   3.915   4.543 -0.4936  0.0444 -0.0673
12113TIP3    H157754   6.336   3.941   4.635 -2.6170 -0.7361  0.0727
12113TIP3    H257755   6.251   3.903   4.516  0.1253 -0.4003 -2.0883
12114TIP3   OH257756   6.800   7.018  11.256 -0.6267  0.1390  0.0606
12114TIP3    H157757   6.835   7.007  11.344 -0.0343 -0.4916 -0.2451
12114TIP3    H257758   6.855   6.962  11.201 -0.9396  0.5848 -0.7236
12115TIP3   OH257759   0.822   2.815   4.760 -0.0988 -0.1361  0.2230
12115TIP3    H157760   0.912   2.833   4.787 -0.0347 -0.6492  0.3513
12115TIP3    H257761   0.769   2.871   4.816  0.1610  0.4730 -0.1285
12116TIP3   OH257762   3.746   3.676   0.419  0.1129 -0.8228 -0.0864
12116TIP3    H157763   3.689   3.693   0.494  0.3778  0.1954 -0.1003
12116TIP3    H257764   3.818   3.623   0.455 -0.8405 -2.1642 -0.0828
12117TIP3   OH257765   4.791   0.288  14.664 -0.8358  0.2777  0.7493
12117TIP3    H157766   4.858   0.350  14.692 -0.3102 -0.2542  0.6922
12117TIP3    H257767   4.720   0.343  14.631 -1.2096  0.9145  2.4928
12118TIP3   OH257768   0.316   6.856   1.120  0.7412 -0.1101 -0.3590
12118TIP3    H157769   0.287   6.775   1.077  2.2182 -0.8784  0.0367
12118TIP3    H257770   0.275   6.853   1.207 -0.5106  0.3967 -0.8991
12119TIP3   OH257771   6.585   2.093  13.423 -0.6919  0.1865  0.1368
12119TIP3    H157772   6.582   2.151  13.499  0.5818  3.0874 -1.8619
12119TIP3    H257773   6.602   2.006  13.460 -3.5936  0.7820  3.3690
12120TIP3   OH257774   6.035   4.487   2.179  0.4261 -0.2343 -0.1443
12120TIP3    H157775   6.103   4.488   2.112  0.0209  1.2946 -0.5508
12120TIP3    H257776   6.031   4.577   2.211 -2.2993  0.0671 -1.0686
12121TIP3   OH257777   3.402   2.736   3.128 -0.5969  0.4049 -0.2555
12121TIP3    H157778   3.470   2.685   3.085  0.7645 -0.6138  2.8787
12121TIP3    H257779   3.437   2.825   3.130 -0.0230  0.1785  0.0061
12122TIP3   OH257780   0.229   3.124  12.794  0.4309 -0.0129  0.0455
12122TIP3    H157781   0.196   3.200  12.843  0.4547  0.2803 -0.3806
12122TIP3    H257782   0.170   3.053  12.818 -1.2230  0.7349 -1.4855
12123TIP3   OH257783   3.313   6.124  11.757 -0.1067 -0.0694  0.2967
12123TIP3    H157784   3.366   6.135  11.836  0.6487  0.0899 -0.2214
12123TIP3    H257785   3.375   6.098  11.689 -0.8421 -0.8379 -0.1011
12124TIP3   OH257786   4.102   2.999  11.346  0.0455 -0.2487 -0.4238
12124TIP3    H157787   4.029   2.986  11.406  0.3595 -1.5234 -0.2957
12124TIP3    H257788   4.104   2.920  11.292  1.6463 -0.4877 -0.0643
12125TIP3   OH257789   2.765   2.334   2.503 -0.0430 -0.2128  0.4778
12125TIP3    H157790   2.840   2.373   2.458  0.2223 -0.8956  0.3262
12125TIP3    H257791   2.692   2.392   2.482  0.6146  1.0244  1.4171
12126TIP3   OH257792   3.120   4.933  12.603  0.4090  0.0926  0.4168
12126TIP3    H157793   3.114   4.982  12.521 -0.6659 -0.4476  0.1470
12126TIP3    H257794   3.078   4.988  12.668  0.1144 -0.0204  0.3260
12127TIP3   OH257795   1.334   3.918  10.566  0.0942  0.1094  0.1226
12127TIP3    H157796   1.240   3.932  10.584 -0.4469 -0.6426 -1.9142
12127TIP3    H257797   1.369   3.885  10.649 -1.6908 -0.7087  0.6103
12128TIP3   OH257798   6.029   0.082   4.894  0.5511 -0.1091 -0.7585
12128TIP3    H157799   5.941   0.070   4.931  1.6285 -0.4729  1.9042
12128TIP3    H257800   6.017   0.065   4.801 -1.9515 -1.5603 -0.2940
12129TIP3   OH257801   6.624   5.052  11.911  0.0518 -0.1796  0.1555
12129TIP3    H157802   6.571   5.116  11.862  0.4571  0.3415  0.3918
12129TIP3    H257803   6.676   5.008  11.843 -1.0015 -1.0134 -0.1338
12130TIP3   OH257804   0.228   3.771  10.621  0.1027  0.4911 -0.1057
12130TIP3    H157805   0.311   3.809  10.647  0.5411 -0.4382 -0.1321
12130TIP3    H257806   0.251   3.697  10.564 -0.6898 -0.5066  0.8231
12131TIP3   OH257807   1.546   6.258  13.226 -0.1339  0.2046  0.5897
12131TIP3    H157808   1.571   6.166  13.236  3.5606  1.2467  2.7349
12131TIP3    H257809   1.577   6.283  13.139  2.5563  0.3214  1.5148
12132TIP3   OH257810   6.129   2.370   5.172  0.0168  0.0501 -0.2449
12132TIP3    H157811   6.200   2.374   5.108 -0.3827  0.9862 -0.6546
12132TIP3    H257812   6.157   2.430   5.242  0.4313 -0.9322  0.4467
12133TIP3   OH257813   0.664   4.281  12.202 -0.0605 -0.2364 -0.1032
12133TIP3    H157814   0.607   4.212  12.168 -2.8834  1.0813  1.6157
12133TIP3    H257815   0.662   4.269  12.297  0.2991  1.4990  0.1595
12134TIP3   OH257816   2.005   3.867   0.439 -0.2349 -0.0549  0.3536
12134TIP3    H157817   1.949   3.936   0.475  0.7348 -0.1029  2.0495
12134TIP3    H257818   2.030   3.814   0.515  1.8117 -0.2243 -0.3830
12135TIP3   OH257819   4.792   2.720   3.395  0.3820 -0.3307 -0.2193
12135TIP3    H157820   4.765   2.783   3.328  1.9155 -0.4515 -0.9818
12135TIP3    H257821   4.878   2.689   3.366  0.7840 -0.8855  1.4599
12136TIP3   OH257822   2.748   0.128  14.700  0.2831 -0.2214 -0.0047
12136TIP3    H157823   2.726   0.106  14.791 -1.0620 -0.5787 -0.3887
12136TIP3    H257824   2.692   0.071  14.648  1.9598 -0.9481 -1.0945
12137TIP3   OH257825   4.738   0.262   0.755 -0.1300  0.5758 -0.3239
12137TIP3    H157826   4.711   0.268   0.664 -1.3429 -3.0076 -0.3451
12137TIP3    H257827   4.657   0.262   0.805  0.3419 -0.4052  0.4856
12138TIP3   OH257828   4.811   6.713   4.474 -0.1440 -0.3323 -0.3921
12138TIP3    H157829   4.881   6.742   4.415  0.4910 -0.6033  0.2163
12138TIP3    H257830   4.743   6.679   4.416  0.5908 -0.8648 -0.9646
12139TIP3   OH257831   1.179   1.213   1.868 -0.0385 -0.5976 -0.1265
12139TIP3    H157832   1.185   1.268   1.790 -0.1082  1.3204  1.1570
12139TIP3    H257833   1.268   1.209   1.902 -0.6405  3.1018  2.5446
12140TIP3   OH257834   1.429   1.531   0.284 -0.1646 -0.1837 -0.5492
12140TIP3    H157835   1.485   1.491   0.350 -0.8755 -2.1793 -1.0982
12140TIP3    H257836   1.353   1.564   0.333  0.5559  0.7951 -0.0589
12141TIP3   OH257837   4.099   5.694   2.285  0.0434  0.1573 -0.2071
12141TIP3    H157838   4.051   5.708   2.204 -0.3631  1.2140  0.1910
12141TIP3    H257839   4.181   5.653   2.258  0.2947  1.2928 -1.2563
12142TIP3   OH257840   6.170   3.551   1.101 -0.2632 -0.1392  0.0944
12142TIP3    H157841   6.140   3.494   1.172  0.9390  0.9002  1.5081
12142TIP3    H257842   6.098   3.551   1.038 -1.2269 -1.3994  1.1374
12143TIP3   OH257843   1.433   3.650  12.564  0.0151 -0.1421  0.6173
12143TIP3    H157844   1.473   3.567  12.537  1.2595  1.1461 -1.9388
12143TIP3    H257845   1.358   3.661  12.505  1.5093  1.7641 -1.0836
12144TIP3   OH257846   2.691   3.594   1.024  0.2805  0.5664  0.3113
12144TIP3    H157847   2.782   3.588   1.053  1.0127  3.0043 -1.1353
12144TIP3    H257848   2.694   3.568   0.932  0.0274  2.8625 -0.4061
12145TIP3   OH257849   2.793   2.652   3.208  0.1111  0.3459 -0.0730
12145TIP3    H157850   2.859   2.686   3.268 -0.7737  2.6926 -0.3177
12145TIP3    H257851   2.728   2.722   3.201 -0.9568 -0.7364 -2.0349
12146TIP3   OH257852   0.735   7.039   9.083  0.2381 -0.2273 -0.2779
12146TIP3    H157853   0.825   7.031   9.113 -1.0438 -1.7390  3.8053
12146TIP3    H257854   0.701   7.117   9.127 -0.5784  0.1103 -1.4591
12147TIP3   OH257855   4.732   3.504   4.259 -0.0674 -0.5297 -0.3558
12147TIP3    H157856   4.713   3.410   4.253 -1.2025 -0.3109 -0.4307
12147TIP3    H257857   4.703   3.539   4.174  0.8056 -0.1748 -0.5191
12148TIP3   OH257858   1.963   0.936  13.635 -0.1867  0.2238 -0.1025
12148TIP3    H157859   2.033   0.957  13.697 -0.4291  0.4805  0.0853
12148TIP3    H257860   1.991   0.854  13.594  0.8551  0.9600 -0.9563
12149TIP3   OH257861   3.627   3.647   5.030 -0.1576 -0.1225  0.6019
12149TIP3    H157862   3.619   3.695   4.948  1.0282 -0.4698  0.2637
12149TIP3    H257863   3.554   3.586   5.029 -0.6393  0.4526  0.2007
12150TIP3   OH257864   4.047   3.513   1.238 -0.0687  0.4344 -0.2484
12150TIP3    H157865   4.089   3.588   1.279  2.3482 -0.0850 -1.5694
12150TIP3    H257866   4.063   3.524   1.144  0.7122 -1.8742 -0.4624
12151TIP3   OH257867   6.599   5.543  15.349  0.7265  0.4541  0.0075
12151TIP3    H157868   6.536   5.582  15.288  1.0706  2.5983  0.9158
12151TIP3    H257869   6.597   5.602  15.425  0.5103 -1.9590  1.9870
12152TIP3   OH257870   5.912   4.034  15.432  0.4787  0.2297 -0.2060
12152TIP3    H157871   5.975   4.102  15.457  2.3012 -1.9634  1.5378
12152TIP3    H257872   5.933   3.959  15.487 -0.0804 -2.5194 -3.4106
12153TIP3   OH257873   1.459   4.710  15.289  0.5478  0.2218  0.2428
12153TIP3    H157874   1.489   4.647  15.355 -0.2908 -1.1947 -0.6505
12153TIP3    H257875   1.366   4.721  15.308  0.7304  1.4167  0.5248
12154TIP3   OH257876   2.755   2.164   2.934  0.6896  0.2783 -0.2510
12154TIP3    H157877   2.672   2.117   2.924  1.4406 -1.5082  1.3615
12154TIP3    H257878   2.737   2.227   3.004  0.6536 -0.0399  0.0296
12155TIP3   OH257879   0.194   2.697   2.360  0.1382 -0.1593 -0.5551
12155TIP3    H157880   0.108   2.721   2.394  0.9516  3.2248 -0.4792
12155TIP3    H257881   0.238   2.655   2.434 -1.3749 -1.8618 -0.5798
12156TIP3   OH257882   5.756   0.865  10.148 -0.0171 -0.1655  0.3390
12156TIP3    H157883   5.697   0.795  10.121  0.3621 -0.6280  0.6824
12156TIP3    H257884   5.839   0.821  10.166  0.1454  0.3292  0.8407
12157TIP3   OH257885   4.963   1.763  14.232  0.6044 -0.1870 -0.2921
12157TIP3    H157886   4.907   1.707  14.178  2.2753 -0.4725 -1.8143
12157TIP3    H257887   5.022   1.806  14.170  1.9877  0.2066  1.2193
12158TIP3   OH257888   5.925   2.001   0.443  0.4412 -0.1836  0.5817
12158TIP3    H157889   5.869   2.079   0.439  1.8374  0.8677  1.0083
12158TIP3    H257890   5.998   2.020   0.384 -0.5694 -2.3757 -1.5809
12159TIP3   OH257891   2.779   6.587   3.875 -0.3185  0.9384 -0.0263
12159TIP3    H157892   2.732   6.634   3.944 -1.5790  0.3676 -0.4701
12159TIP3    H257893   2.728   6.507   3.861 -0.0852  1.0286 -1.5988
12160TIP3   OH257894   1.897   1.484  10.588  0.4000 -0.4321  0.3703
12160TIP3    H157895   1.860   1.560  10.542 -1.5037 -1.9099 -0.6647
12160TIP3    H257896   1.821   1.438  10.623  1.5515 -1.6862  1.3293
12161TIP3   OH257897   4.922   3.934   1.311  0.2057  0.2974  0.2671
12161TIP3    H157898   4.992   3.928   1.246  0.5398  0.9796  0.5507
12161TIP3    H257899   4.894   3.844   1.326  0.8842  0.0414 -0.0068
12162TIP3   OH257900   3.670   1.563   0.885 -0.0641 -0.1293  0.3652
12162TIP3    H157901   3.663   1.529   0.795 -1.1366 -1.3430  0.8847
12162TIP3    H257902   3.581   1.588   0.908  0.0542 -0.6513  1.4112
12163TIP3   OH257903   1.502   1.751   4.944  0.9218 -0.5548 -0.5222
12163TIP3    H157904   1.530   1.755   4.853  0.6920 -0.5081 -0.5913
12163TIP3    H257905   1.406   1.744   4.940  0.7684  1.0260 -0.2657
12164TIP3   OH257906   2.799   0.383  10.452  0.0549  0.1606 -0.2071
12164TIP3    H157907   2.781   0.384  10.358 -0.6599  1.9422 -0.1061
12164TIP3    H257908   2.862   0.454  10.464  0.1267 -0.0464  0.6618
12165TIP3   OH257909   1.362   4.673  14.778 -0.1035  0.1385  0.0544
12165TIP3    H157910   1.447   4.636  14.799  0.1588  1.0524  0.6816
12165TIP3    H257911   1.380   4.764  14.755 -0.9641  0.5004  0.7383
12166TIP3   OH257912   4.583   2.488   1.132  0.0980  0.4558 -0.2645
12166TIP3    H157913   4.496   2.522   1.114 -1.6744 -2.1247  2.3600
12166TIP3    H257914   4.597   2.507   1.225  0.5666 -2.4725  0.3681
12167TIP3   OH257915   3.769   2.477   2.069 -0.1029  0.9194  0.0255
12167TIP3    H157916   3.704   2.529   2.023  1.7502  1.5808 -2.0023
12167TIP3    H257917   3.776   2.519   2.155 -2.3179  0.7891  0.3235
12168TIP3   OH257918   1.109   6.053   2.389  0.1840 -0.4222 -0.3672
12168TIP3    H157919   1.106   5.969   2.436  0.1188 -0.3083 -0.1665
12168TIP3    H257920   1.183   6.100   2.427 -1.3402  0.6864  1.3806
12169TIP3   OH257921   0.700   6.867  12.477  0.3685 -0.7153 -0.3764
12169TIP3    H157922   0.707   6.772  12.465  0.8175 -0.5305 -1.7633
12169TIP3    H257923   0.747   6.904  12.402  0.6844  0.6091  0.4382
12170TIP3   OH257924   4.218   3.229   4.251 -0.1055  0.1980  0.0558
12170TIP3    H157925   4.150   3.251   4.314 -0.5694 -2.1681  0.4742
12170TIP3    H257926   4.287   3.188   4.303  1.3792  1.8671 -0.4743
12171TIP3   OH257927   0.214   0.684   4.891  0.3367 -0.0594  0.2225
12171TIP3    H157928   0.137   0.665   4.944  0.2361 -1.7737 -0.4919
12171TIP3    H257929   0.184   0.750   4.828 -0.0497  0.5791  1.0522
12172TIP3   OH257930   5.499   5.044  14.263 -0.4772  0.2471  0.3899
12172TIP3    H157931   5.557   5.112  14.229 -0.2985  0.1273  0.4586
12172TIP3    H257932   5.519   5.039  14.356  1.4100 -1.7508 -0.0661
12173TIP3   OH257933   7.092   7.100   2.504  0.1463 -0.3980  0.2603
12173TIP3    H157934   7.105   7.170   2.567 -0.2391  0.4792 -0.6023
12173TIP3    H257935   7.048   7.031   2.553 -3.4690  1.6240  0.2073
12174TIP3   OH257936   2.005   0.770   0.181 -0.2151  0.3190  0.1395
12174TIP3    H157937   2.018   0.851   0.132 -1.2585  0.9001  0.7912
12174TIP3    H257938   2.009   0.701   0.115 -1.1382  1.0515 -0.7046
12175TIP3   OH257939   4.788   4.649  13.561  0.7690  1.0799  0.2358
12175TIP3    H157940   4.780   4.688  13.474 -0.2643  0.5207  0.0672
12175TIP3    H257941   4.766   4.557  13.548  2.5705  0.5493  0.7357
12176TIP3   OH257942   3.860   0.257   9.713 -0.2702  0.5691  0.0764
12176TIP3    H157943   3.866   0.181   9.771 -1.0293  1.2461  1.0961
12176TIP3    H257944   3.916   0.236   9.639  0.0054 -0.7245  0.6278
12177TIP3   OH257945   3.707   3.136   0.467 -0.3733 -0.8312 -0.0583
12177TIP3    H157946   3.770   3.207   0.461  1.1742 -2.2532 -3.0665
12177TIP3    H257947   3.623   3.177   0.444  0.0198  0.4592  0.7004
12178TIP3   OH257948   6.292   3.148  12.484  0.0356 -0.0621 -0.2921
12178TIP3    H157949   6.278   3.103  12.567  0.4683  1.1356  0.4680
12178TIP3    H257950   6.244   3.231  12.494  2.4245  1.3942 -0.0405
12179TIP3   OH257951   1.959   5.458  12.279 -0.0893  0.6650  0.5140
12179TIP3    H157952   2.051   5.474  12.300  0.1370 -0.1130  0.1553
12179TIP3    H257953   1.912   5.533  12.316  0.3937 -0.1555  2.9742
12180TIP3   OH257954   2.664   5.368   1.573  0.2437  0.0926  0.1117
12180TIP3    H157955   2.743   5.417   1.593  1.4730 -0.9706 -1.7867
12180TIP3    H257956   2.597   5.436   1.557  1.4510  1.1288 -0.7956
12181TIP3   OH257957   7.056   1.913  12.968 -1.2768  0.3402 -0.4372
12181TIP3    H157958   7.071   1.993  12.918 -2.1744  0.5144 -0.4408
12181TIP3    H257959   7.143   1.887  12.999 -1.0079  1.3927 -0.2980
12182TIP3   OH257960   3.304   4.888   4.299  0.2640 -0.5066  0.1573
12182TIP3    H157961   3.377   4.829   4.282  1.6501  1.4382 -0.9362
12182TIP3    H257962   3.337   4.975   4.277 -2.3910  0.4432 -0.4677
12183TIP3   OH257963   6.596   0.800   2.424 -0.3176  0.0825 -0.5515
12183TIP3    H157964   6.599   0.866   2.355 -2.0805 -0.0459 -0.8067
12183TIP3    H257965   6.612   0.717   2.379  1.1976  0.2356 -0.3426
12184TIP3   OH257966   5.787   1.843   5.465  0.1974  0.4024  0.7914
12184TIP3    H157967   5.698   1.878   5.473 -0.6358 -1.8551  2.2953
12184TIP3    H257968   5.814   1.867   5.376 -3.7102 -2.6842 -1.5595
12185TIP3   OH257969   2.860   0.871  11.439 -0.0884 -0.2031 -0.1731
12185TIP3    H157970   2.954   0.876  11.459 -0.5000 -0.6746  2.1959
12185TIP3    H257971   2.828   0.960  11.455 -0.2650 -0.3671  0.4109
12186TIP3   OH257972   3.753   3.035   5.171 -0.2081  0.5200 -0.2766
12186TIP3    H157973   3.720   3.119   5.139 -0.6452  0.8296  0.9387
12186TIP3    H257974   3.835   3.057   5.214 -0.4443  0.3712  0.2576
12187TIP3   OH257975   1.636   0.537   0.575  0.1895 -0.0187 -0.6672
12187TIP3    H157976   1.560   0.484   0.551  1.8558 -1.8128 -2.3205
12187TIP3    H257977   1.689   0.540   0.496  1.7392  1.3898  0.3610
12188TIP3   OH257978   6.402   5.658   3.821 -0.4718 -0.3812  0.4328
12188TIP3    H157979   6.368   5.697   3.902 -2.5225 -1.7092  0.3065
12188TIP3    H257980   6.464   5.591   3.851  0.2839  0.4588  0.7913
12189TIP3   OH257981   4.083   0.185  11.734  0.0281 -0.2608  0.0038
12189TIP3    H157982   4.103   0.109  11.680  1.8263 -0.4933  0.9413
12189TIP3    H257983   3.990   0.176  11.755  0.3421 -2.5737  0.6349
12190TIP3   OH257984   1.569   5.959  13.204  0.8846 -0.2867 -0.0051
12190TIP3    H157985   1.512   5.894  13.245  0.5187  0.5500  0.8489
12190TIP3    H257986   1.640   5.973  13.267  0.7469  0.4238  0.0032
12191TIP3   OH257987   1.118   2.256   2.721  0.0422 -0.0095  0.1206
12191TIP3    H157988   1.072   2.314   2.661 -0.4517 -1.1349 -0.6288
12191TIP3    H257989   1.049   2.207   2.765  0.3716  1.1412  2.0222
12192TIP3   OH257990   3.985   7.017   2.118  0.2834 -0.9750 -0.2457
12192TIP3    H157991   3.974   6.970   2.035 -1.7028 -1.8097  0.4353
12192TIP3    H257992   3.990   6.948   2.184 -0.8737 -0.2839  0.5942
12193TIP3   OH257993   2.970   3.661   0.940  0.8986 -0.0656 -0.0747
12193TIP3    H157994   3.058   3.689   0.913  0.2544  1.3793 -0.7477
12193TIP3    H257995   2.914   3.682   0.865  0.0977 -1.7777  0.0010
12194TIP3   OH257996   6.935   6.877   9.320 -0.3237  0.5003  0.7903
12194TIP3    H157997   6.964   6.837   9.403  1.2875 -1.1875 -0.5008
12194TIP3    H257998   6.854   6.830   9.300 -0.3254  0.3823  1.0563
12195TIP3   OH257999   5.168   4.425   2.746 -0.1545 -0.2707 -0.0432
12195TIP3    H158000   5.158   4.330   2.744  0.6488 -0.3838  0.5163
12195TIP3    H258001   5.236   4.444   2.681 -0.3190 -0.0808 -0.1599
12196TIP3   OH258002   6.791   6.583   1.446  0.2993 -0.6748  0.2202
12196TIP3    H158003   6.706   6.624   1.430  0.1226 -1.0106  0.2836
12196TIP3    H258004   6.851   6.629   1.387  0.4291  0.7263  1.3762
12197TIP3   OH258005   5.979   1.665   0.144 -0.0709  0.2229  0.0243
12197TIP3    H158006   5.985   1.680   0.239 -0.1736 -0.3400  0.1273
12197TIP3    H258007   6.070   1.662   0.115 -0.0524  1.1395 -0.0217
12198TIP3   OH258008   4.453   6.913   1.638  0.4356 -0.3473 -0.0547
12198TIP3    H158009   4.443   6.835   1.585 -1.1124 -0.0436 -0.2717
12198TIP3    H258010   4.458   6.985   1.575 -0.2135 -0.0966  0.1678
12199TIP3   OH258011   3.537   2.684   2.793 -0.4949  0.2810 -0.1121
12199TIP3    H158012   3.587   2.692   2.874 -1.0534  0.0989  0.2590
12199TIP3    H258013   3.561   2.598   2.758 -1.6583 -0.4624  0.8454
12200TIP3   OH258014   0.994   6.471   1.383  0.2827 -0.2552  0.3649
12200TIP3    H158015   1.015   6.556   1.343 -2.3274  0.3903  0.1762
12200TIP3    H258016   1.078   6.424   1.385  1.3206  1.2930 -1.9827
12201TIP3   OH258017   4.567   6.639   0.689 -0.2574  0.1081  0.5451
12201TIP3    H158018   4.591   6.565   0.745  0.3138 -1.5199 -1.7118
12201TIP3    H258019   4.621   6.628   0.611 -0.6752  2.5513 -0.1726
12202TIP3   OH258020   2.723   1.233  11.833 -0.7007  0.0285  0.5859
12202TIP3    H158021   2.809   1.241  11.875 -1.2885 -0.4704  1.9394
12202TIP3    H258022   2.729   1.289  11.756  1.1398 -0.6993  0.1401
12203TIP3   OH258023   0.314   6.179   2.029 -0.7725  0.0319 -0.3524
12203TIP3    H158024   0.381   6.117   2.058 -0.2603 -0.0850 -1.7074
12203TIP3    H258025   0.249   6.125   1.985 -1.3238  0.2521  0.1734
12204TIP3   OH258026   5.081   1.714  15.313  0.1723  0.3204  0.1631
12204TIP3    H158027   5.131   1.778  15.262  1.3535 -0.8508 -0.1798
12204TIP3    H258028   5.078   1.636  15.258  0.2224 -0.4938  1.2822
12205TIP3   OH258029   1.392   5.118  15.046  0.2429  0.1091  0.2488
12205TIP3    H158030   1.304   5.095  15.076 -0.0272  1.2712  0.4022
12205TIP3    H258031   1.449   5.051  15.083 -0.3818  0.2058  1.4168
12206TIP3   OH258032   2.970   6.665  13.347  0.5234 -0.1718 -0.2272
12206TIP3    H158033   3.035   6.671  13.417 -0.6698  1.0261  0.8246
12206TIP3    H258034   2.898   6.614  13.384  0.9733 -1.8281 -1.5179
12207TIP3   OH258035   3.107   4.643   3.150  0.1863  0.0003 -0.2498
12207TIP3    H158036   3.094   4.600   3.235  1.8655 -0.7977 -0.3520
12207TIP3    H258037   3.018   4.656   3.116 -0.5237  0.4002  1.6400
12208TIP3   OH258038   6.887   5.014  10.431 -0.1758  0.0017 -0.4462
12208TIP3    H158039   6.940   4.978  10.501 -0.1094  1.3559  0.2276
12208TIP3    H258040   6.949   5.057  10.372 -0.1382 -1.8104 -1.8132
12209TIP3   OH258041   4.296   1.570  11.336 -0.2182 -0.1816  0.2799
12209TIP3    H158042   4.344   1.564  11.254 -1.3367 -1.3181 -0.3220
12209TIP3    H258043   4.208   1.538  11.315 -0.7525  0.2354  1.7418
12210TIP3   OH258044   2.715   3.829   1.221  0.2262 -0.0391 -0.0103
12210TIP3    H158045   2.641   3.770   1.208  1.5734 -1.6370 -0.7618
12210TIP3    H258046   2.715   3.886   1.144  0.1964 -0.5094 -0.3609
12211TIP3   OH258047   5.576   0.905   2.590  0.5491 -0.0601  0.2838
12211TIP3    H158048   5.587   0.969   2.660 -0.8474 -0.2557  0.7113
12211TIP3    H258049   5.482   0.899   2.577  0.4830 -3.0329  1.2251
12212TIP3   OH258050   4.281   4.967   3.185  0.4170  0.2606 -0.1555
12212TIP3    H158051   4.328   4.886   3.166  0.2751  0.3830 -1.0861
12212TIP3    H258052   4.194   4.954   3.146  0.4541  0.9170 -0.4742
12213TIP3   OH258053   2.324   1.899  15.239 -0.5833 -0.0680  0.5639
12213TIP3    H158054   2.319   1.824  15.180  0.7593  0.8573 -0.8030
12213TIP3    H258055   2.417   1.912  15.255 -0.7385  1.5940  0.3506
12214TIP3   OH258056   0.529   6.452   0.869  0.4878 -0.2966 -0.0121
12214TIP3    H158057   0.439   6.451   0.902  0.5228  0.8086  0.1669
12214TIP3    H258058   0.579   6.402   0.934 -0.0688 -1.3444 -0.3729
12215TIP3   OH258059   6.087   5.821   4.267  0.7162 -0.4260  0.1194
12215TIP3    H158060   6.151   5.780   4.325  1.0753 -0.2497 -0.1491
12215TIP3    H258061   6.045   5.888   4.321  0.0409 -1.2188  0.5983
12216TIP3   OH258062   4.344   6.441   2.325  0.6631 -0.3024 -0.4263
12216TIP3    H158063   4.324   6.524   2.368  2.2991  0.8039 -1.7056
12216TIP3    H258064   4.370   6.383   2.396 -1.2935 -0.0355  0.5853
12217TIP3   OH258065   0.722   5.964  14.673  0.5197 -0.0416 -0.5850
12217TIP3    H158066   0.799   5.952  14.617 -0.0694 -2.8079 -0.9716
12217TIP3    H258067   0.753   5.942  14.761  0.5270  0.4255 -0.4674
12218TIP3   OH258068   5.794   5.655   1.055  0.3537  0.1612  0.0549
12218TIP3    H158069   5.782   5.701   1.138  0.8672 -0.6382  0.5786
12218TIP3    H258070   5.853   5.583   1.075  1.1595  0.4384 -1.1835
12219TIP3   OH258071   1.950   5.686   4.226  0.1222 -0.5180  0.0032
12219TIP3    H158072   1.905   5.633   4.161  0.1167  0.8002 -1.0950
12219TIP3    H258073   1.954   5.630   4.304 -1.8673 -1.2958 -0.4077
12220TIP3   OH258074   5.181   6.260   1.036  0.2367 -1.1023  0.0374
12220TIP3    H158075   5.176   6.204   0.959  1.9994 -0.6553 -0.4457
12220TIP3    H258076   5.103   6.239   1.087 -1.1050 -1.2221 -1.9789
12221TIP3   OH258077   4.022   3.733  14.577  0.5641 -0.2323 -0.3341
12221TIP3    H158078   4.062   3.743  14.663  0.4580  1.3692 -0.4400
12221TIP3    H258079   4.050   3.646  14.547  2.1051 -0.0666  0.5320
12222TIP3   OH258080   3.910   1.785  14.737 -0.4290 -0.4943  0.5247
12222TIP3    H158081   3.824   1.788  14.697 -1.1343  0.3459  2.0086
12222TIP3    H258082   3.900   1.725  14.812  0.1841 -0.1655  0.8806
12223TIP3   OH258083   1.968   6.648   0.506  0.4389 -0.2615 -0.1942
12223TIP3    H158084   2.022   6.705   0.450  0.4673 -0.6960 -0.6128
12223TIP3    H258085   1.956   6.699   0.586  0.2434  0.4503 -0.6624
12224TIP3   OH258086   6.712   6.476  11.669 -0.1081  0.1968  0.1433
12224TIP3    H158087   6.669   6.555  11.637  0.8319  0.7502  0.2059
12224TIP3    H258088   6.771   6.507  11.738  0.2044 -0.5624  0.2292
12225TIP3   OH258089   1.591   1.426  14.597 -0.8381  0.5373  0.0187
12225TIP3    H158090   1.617   1.516  14.578 -1.7288  0.4901 -1.5081
12225TIP3    H258091   1.497   1.431  14.613 -0.6354  0.0915  1.5273
12226TIP3   OH258092   4.285   6.515   1.264 -0.5501  1.0045  0.0380
12226TIP3    H158093   4.316   6.429   1.236  0.6874  1.2803  0.5086
12226TIP3    H258094   4.218   6.538   1.200 -2.4563 -1.2253  1.0606
12227TIP3   OH258095   5.163   1.897  15.158  0.0513 -0.8592 -0.1834
12227TIP3    H158096   5.155   1.887  15.063  1.2929 -0.0538 -0.3979
12227TIP3    H258097   5.140   1.989  15.174 -0.1173 -0.9825  0.2912
12228TIP3   OH258098   2.117   3.087   1.199  0.3980 -0.2793  0.2563
12228TIP3    H158099   2.032   3.106   1.161  0.6415  0.2263 -0.0409
12228TIP3    H258100   2.106   3.001   1.240  0.9718 -2.4534 -3.6541
12229TIP3   OH258101   2.583   4.315   4.258  0.4739  0.4248  0.2349
12229TIP3    H158102   2.630   4.367   4.323 -0.7386  1.4610  0.3142
12229TIP3    H258103   2.643   4.308   4.184  1.6075 -0.1938  1.1761
12230TIP3   OH258104   4.099   2.354  12.820 -0.3989 -0.2513  0.0507
12230TIP3    H158105   4.178   2.303  12.839  0.2693  0.7545  0.0305
12230TIP3    H258106   4.083   2.338  12.727  0.9848  1.1215 -0.4697
12231TIP3   OH258107   5.864   6.381  14.118  0.0013  0.2136  0.2526
12231TIP3    H158108   5.782   6.397  14.164  0.0372 -1.3330  0.9183
12231TIP3    H258109   5.907   6.313  14.169  2.0994  1.5560  0.3870
12232TIP3   OH258110   3.390   3.584   1.760 -0.3541  0.0864 -0.0257
12232TIP3    H158111   3.439   3.535   1.825  0.6816  1.2088  0.0684
12232TIP3    H258112   3.316   3.527   1.737  1.0196 -1.6928 -0.2463
12233TIP3   OH258113   6.136   5.156  14.004 -0.5629 -0.3481  0.1115
12233TIP3    H158114   6.046   5.165  13.975 -0.6743 -0.1502  0.5139
12233TIP3    H258115   6.134   5.176  14.098  0.2134  1.5590 -0.2312
12234TIP3   OH258116   5.225   6.934   5.305 -0.3018 -0.3695  0.4202
12234TIP3    H158117   5.303   6.969   5.348 -0.5508 -0.2058  0.7446
12234TIP3    H258118   5.231   6.966   5.215  0.6154 -1.3436  0.1179
12235TIP3   OH258119   6.700   1.648  13.202  0.4990 -0.5622 -0.8844
12235TIP3    H158120   6.663   1.734  13.222 -1.2113 -1.4853  0.1991
12235TIP3    H258121   6.636   1.608  13.143  0.2882 -1.8001  0.1491
12236TIP3   OH258122   4.560   1.236   1.401  0.6468 -0.2199  0.4366
12236TIP3    H158123   4.552   1.322   1.360  2.0368 -0.3570 -0.1566
12236TIP3    H258124   4.506   1.179   1.347 -0.3143  0.2701  0.8557
12237TIP3   OH258125   1.993   4.330   1.970 -0.5022 -0.7485 -0.4140
12237TIP3    H158126   2.049   4.384   2.026  1.3867 -1.8357 -1.1598
12237TIP3    H258127   1.923   4.389   1.941  0.0815  0.5896  0.7630
12238TIP3   OH258128   5.237   5.893  13.214 -0.2564  0.6911  0.4772
12238TIP3    H158129   5.227   5.901  13.309  0.5593 -0.5643  0.6876
12238TIP3    H258130   5.164   5.944  13.178  0.0421  2.0701  1.7423
12239TIP3   OH258131   1.535   3.440  10.734 -0.1060  0.1040  0.3001
12239TIP3    H158132   1.457   3.458  10.786 -0.3838 -0.1682 -0.0190
12239TIP3    H258133   1.533   3.504  10.664 -0.8794 -0.8819 -0.6017
12240TIP3   OH258134   6.889   0.416   9.867  0.3006 -0.2374 -0.5262
12240TIP3    H158135   6.900   0.488   9.806  0.7678  0.8849  0.8397
12240TIP3    H258136   6.826   0.358   9.824  1.3287 -0.0030 -2.4856
12241TIP3   OH258137   4.621   7.109   1.768 -0.2992 -0.7102 -0.2595
12241TIP3    H158138   4.603   7.201   1.783 -0.5041 -0.3241 -2.4907
12241TIP3    H258139   4.535   7.067   1.766 -0.2388 -0.8596  0.2229
12242TIP3   OH258140   5.885   4.074   1.873  0.8548 -0.4494 -0.0921
12242TIP3    H158141   5.807   4.115   1.911  0.2560 -2.3869  0.9172
12242TIP3    H258142   5.879   3.982   1.901  0.9586 -1.7936 -3.9693
12243TIP3   OH258143   1.060   1.462  11.090 -0.0172  0.4259 -1.2014
12243TIP3    H158144   1.015   1.388  11.131  0.6560  1.0214  0.7059
12243TIP3    H258145   0.989   1.514  11.051 -0.5658 -0.7972 -1.8655
12244TIP3   OH258146   1.101   4.034   3.251  0.3774 -0.6069  0.3999
12244TIP3    H158147   1.108   3.951   3.205 -0.5536  0.2049 -1.2899
12244TIP3    H258148   1.125   4.013   3.342  1.0290 -2.5095 -0.1642
12245TIP3   OH258149   0.372   3.650  10.114 -1.2357  1.0888 -0.0996
12245TIP3    H158150   0.358   3.578  10.053 -0.4642  0.0148  0.9586
12245TIP3    H258151   0.460   3.681  10.095  0.0287 -0.8943  2.0515
12246TIP3   OH258152   4.965   3.796  15.102 -0.2045  0.5542  0.5126
12246TIP3    H158153   5.059   3.787  15.114 -0.1014  2.1564  1.1110
12246TIP3    H258154   4.955   3.815  15.008 -0.0233 -0.4821  0.2735
12247TIP3   OH258155   3.906   6.011   0.921 -0.1990  0.4678  0.4367
12247TIP3    H158156   3.965   6.037   0.991 -1.0668  1.7817  0.7013
12247TIP3    H258157   3.907   6.084   0.860 -1.0563  0.2361  0.1308
12248TIP3   OH258158   0.980   2.737  15.121  0.6070  0.0836  0.2255
12248TIP3    H158159   0.940   2.657  15.156 -1.2440  0.6120 -0.5335
12248TIP3    H258160   1.021   2.710  15.039  1.5313 -0.3980  0.8302
12249TIP3   OH258161   3.306   5.141  14.042  0.4419  0.7248 -0.1105
12249TIP3    H158162   3.214   5.163  14.058 -1.2504 -2.2240 -4.0836
12249TIP3    H258163   3.327   5.076  14.108 -0.8554  0.3485 -0.0380
12250TIP3   OH258164   6.642   0.994   4.952  0.0565 -0.0344  0.2440
12250TIP3    H158165   6.610   1.061   5.013 -0.5908  0.4118 -0.5633
12250TIP3    H258166   6.672   0.923   5.008 -0.9931  0.1583  1.0879
12251TIP3   OH258167   2.667   7.052  14.575 -0.1099 -0.2507 -0.2128
12251TIP3    H158168   2.757   7.022  14.581 -0.6891 -2.0511  0.1211
12251TIP3    H258169   2.644   7.044  14.483  0.2956  1.0122 -0.4482
12252TIP3   OH258170   1.206   3.609   2.478 -0.0578  0.1524 -0.1161
12252TIP3    H158171   1.171   3.535   2.529  1.9659  0.3891  1.7463
12252TIP3    H258172   1.132   3.639   2.426 -1.3880 -2.1338  0.3200
12253TIP3   OH258173   0.288   2.455   0.076  0.2960  0.3657 -0.0320
12253TIP3    H158174   0.228   2.481   0.006 -1.5102 -0.2124  1.2373
12253TIP3    H258175   0.281   2.524   0.141  0.4349 -0.0725  0.4581
12254TIP3   OH258176   3.543   6.828  12.087  0.3734  0.2448 -0.0016
12254TIP3    H158177   3.559   6.797  12.176  2.1321 -0.5995 -0.5718
12254TIP3    H258178   3.598   6.906  12.079  0.5863  0.0446 -0.5006
12255TIP3   OH258179   1.425   4.131  12.018 -0.2022  0.1376  0.5650
12255TIP3    H158180   1.402   4.088  12.100 -1.0720 -1.6068 -0.5267
12255TIP3    H258181   1.509   4.093  11.994 -0.6108 -0.4091 -0.0259
12256TIP3   OH258182   6.965   4.582  11.552  0.5166  0.3971 -0.1803
12256TIP3    H158183   7.055   4.561  11.529 -0.1196 -0.9502 -1.6164
12256TIP3    H258184   6.944   4.521  11.623  0.3195 -0.2721 -0.7982
12257TIP3   OH258185   5.555   5.685  13.375 -1.0624 -0.2419  0.2547
12257TIP3    H158186   5.613   5.755  13.405 -1.2338 -0.0451  0.1211
12257TIP3    H258187   5.580   5.671  13.284  0.2462 -1.6144  0.7777
12258TIP3   OH258188   5.593   5.260   3.511  0.2493  0.2083  0.5430
12258TIP3    H158189   5.615   5.196   3.444  0.9803 -0.7405  1.6500
12258TIP3    H258190   5.498   5.268   3.507  0.2933  0.2802 -0.6822
12259TIP3   OH258191   5.568   4.266  12.430 -0.5143  0.1288 -0.4899
12259TIP3    H158192   5.614   4.344  12.400 -0.2003 -0.8602 -2.7723
12259TIP3    H258193   5.475   4.286  12.415 -0.6748  1.0146  1.4075
12260TIP3   OH258194   4.291   3.056   3.864  0.1419 -0.3630  0.4876
12260TIP3    H158195   4.241   3.137   3.855 -1.3509 -1.4518 -1.7736
12260TIP3    H258196   4.371   3.071   3.814  0.3376  0.0348  0.9093
12261TIP3   OH258197   0.672   6.808   0.304 -0.6983 -0.0579 -0.6433
12261TIP3    H158198   0.669   6.728   0.251 -1.2228  0.1273 -0.9015
12261TIP3    H258199   0.754   6.802   0.352 -1.9532 -2.1383  1.4970
12262TIP3   OH258200   1.048   4.665   2.843 -0.3911  0.1570  0.4282
12262TIP3    H158201   0.963   4.704   2.864 -1.2990 -1.4246 -0.1507
12262TIP3    H258202   1.028   4.574   2.821  1.3267  0.0368 -0.8134
12263TIP3   OH258203   4.379   4.652   0.921 -0.4188 -0.3989 -0.3789
12263TIP3    H158204   4.467   4.640   0.885  0.4330  0.9823  1.1106
12263TIP3    H258205   4.374   4.590   0.993  0.0453  0.7448  0.6709
12264TIP3   OH258206   1.181   3.979   1.090 -0.3895  0.4255  0.6960
12264TIP3    H158207   1.086   3.991   1.083 -0.4436 -0.6133 -1.1059
12264TIP3    H258208   1.192   3.884   1.095  0.6011  0.4217 -0.9824
12265TIP3   OH258209   5.388   3.607  14.013  0.0837  0.4102  0.6723
12265TIP3    H158210   5.441   3.677  14.050 -0.0957  0.4246  0.8981
12265TIP3    H258211   5.451   3.536  13.997 -0.1081 -0.2456  2.6195
12266TIP3   OH258212   4.011   4.327   9.619 -0.0008  0.2678 -0.2351
12266TIP3    H158213   3.967   4.246   9.593  0.3507  0.1401 -0.4358
12266TIP3    H258214   4.024   4.375   9.537 -1.2681  1.0715  0.0127
12267TIP3   OH258215   5.953   4.611   9.908  0.3640  0.6184  0.2209
12267TIP3    H158216   5.863   4.617   9.941  0.3326  1.0712  0.0506
12267TIP3    H258217   6.003   4.668   9.966  0.3984  1.0096 -0.1911
12268TIP3   OH258218   3.033   4.281   4.504  0.0333  0.3063 -0.0280
12268TIP3    H158219   2.966   4.220   4.473 -0.0782  0.8062 -0.8004
12268TIP3    H258220   2.992   4.327   4.577  1.0048 -2.3388  2.3588
12269TIP3   OH258221   2.530   1.172   3.352 -0.1929  0.7088  0.0558
12269TIP3    H158222   2.488   1.206   3.431  0.9143  0.7642  0.6468
12269TIP3    H258223   2.588   1.103   3.383 -1.4894 -0.9106 -1.0058
12270TIP3   OH258224   0.808   6.096   4.454 -0.3452 -0.3813  0.8026
12270TIP3    H158225   0.900   6.091   4.480 -0.0451  5.2277  2.0957
12270TIP3    H258226   0.760   6.096   4.537 -1.2264 -0.5073  0.2961
12271TIP3   OH258227   4.401   2.558   4.638  0.2019  0.2087 -0.2627
12271TIP3    H158228   4.454   2.492   4.593  0.4053  1.0424 -1.2668
12271TIP3    H258229   4.464   2.607   4.692  0.0671 -0.3205  0.3969
12272TIP3   OH258230   0.459   4.770  11.855  0.0342  0.2563 -0.2404
12272TIP3    H158231   0.483   4.677  11.858  0.0447  0.2745  0.7852
12272TIP3    H258232   0.513   4.810  11.924  0.8735  1.2299 -1.4234
12273TIP3   OH258233   3.965   1.794  13.241 -0.3226  0.0798 -0.2467
12273TIP3    H158234   3.912   1.752  13.308  0.2814 -2.2538 -1.1397
12273TIP3    H258235   3.911   1.791  13.162 -0.1284  0.7023 -0.4110
12274TIP3   OH258236   6.601   2.255   4.758 -0.3483 -0.0459 -0.9412
12274TIP3    H158237   6.663   2.328   4.753 -0.2923  0.1810  1.5602
12274TIP3    H258238   6.627   2.196   4.687  1.3028  1.1029 -1.3493
12275TIP3   OH258239   6.738   4.422  11.080  0.3917 -0.5643  0.5087
12275TIP3    H158240   6.816   4.388  11.125  0.5634  1.4575  1.8619
12275TIP3    H258241   6.677   4.349  11.080  2.1554 -2.1489 -0.3914
12276TIP3   OH258242   4.375   7.003  10.262 -0.4171  1.1280  0.7987
12276TIP3    H158243   4.350   7.026  10.172  0.0058 -2.2543 -0.3242
12276TIP3    H258244   4.293   6.976  10.303  0.0282 -3.1891 -0.6643
12277TIP3   OH258245   4.941   5.453  11.273  0.4854 -0.3801  0.4622
12277TIP3    H158246   4.984   5.502  11.343  1.6060  0.9289 -1.0796
12277TIP3    H258247   4.896   5.381  11.318  0.1179  1.1243  2.6277
12278TIP3   OH258248   4.672   0.141   3.202  0.3676 -0.2307  0.2065
12278TIP3    H158249   4.752   0.193   3.213 -0.2113  0.9344 -0.8479
12278TIP3    H258250   4.660   0.097   3.286  0.8140  1.4675  1.1889
12279TIP3   OH258251   0.187   4.852  12.484  0.6944  0.1479  0.3129
12279TIP3    H158252   0.094   4.857  12.508 -0.2631 -2.6690 -2.2266
12279TIP3    H258253   0.226   4.797  12.552  0.4852  1.1137  1.2403
12280TIP3   OH258254   0.416   6.377   5.020  0.0433  0.0647 -0.3045
12280TIP3    H158255   0.449   6.466   5.009  0.5732 -0.1145 -0.1972
12280TIP3    H258256   0.361   6.362   4.943 -0.2743  0.5814 -0.1815
12281TIP3   OH258257   1.361   7.151  14.210  0.6874  0.3466 -0.1017
12281TIP3    H158258   1.447   7.164  14.169  0.0582  2.1166 -0.9693
12281TIP3    H258259   1.358   7.218  14.278  0.8660 -1.1983  1.4857
12282TIP3   OH258260   6.404   2.002   2.975 -0.1502  0.0068  0.6442
12282TIP3    H158261   6.479   2.061   2.981 -1.1578  1.6323 -1.4605
12282TIP3    H258262   6.417   1.939   3.045  2.7905  0.6704  0.7956
12283TIP3   OH258263   6.742   0.354  13.470  0.4384 -0.0354  0.2197
12283TIP3    H158264   6.674   0.380  13.408 -0.7739 -1.1676  1.0296
12283TIP3    H258265   6.815   0.415  13.453 -0.7175  1.1265 -0.7438
12284TIP3   OH258266   1.667   4.198  10.481 -0.2715  0.2102  0.3387
12284TIP3    H158267   1.646   4.105  10.485 -1.2741  0.4100 -0.0860
12284TIP3    H258268   1.736   4.210  10.547  0.7158 -1.0364 -0.4257
12285TIP3   OH258269   2.495   5.488  12.529 -0.6205 -0.2534  0.2814
12285TIP3    H158270   2.585   5.458  12.541 -0.1976  0.9860  0.4254
12285TIP3    H258271   2.497   5.580  12.557 -2.5962 -0.9686  3.1775
12286TIP3   OH258272   4.332   6.250   3.444 -0.1711  0.3510  0.4130
12286TIP3    H158273   4.402   6.185   3.459 -0.2078  0.3968  0.8034
12286TIP3    H258274   4.353   6.288   3.359  0.9588  1.1997  1.0365
12287TIP3   OH258275   6.803   6.332   1.577  0.3223  0.2310  0.3094
12287TIP3    H158276   6.711   6.313   1.560  0.6826 -0.4847 -1.0312
12287TIP3    H258277   6.818   6.418   1.536  0.9187 -0.9922 -2.2504
12288TIP3   OH258278   0.828   6.222   1.800 -0.2489 -0.7977 -0.1544
12288TIP3    H158279   0.760   6.155   1.801 -0.8516 -0.2143 -0.8682
12288TIP3    H258280   0.881   6.204   1.878 -0.3031 -2.1896 -0.4139
12289TIP3   OH258281   5.282   4.610  10.635  0.3653 -0.1331 -0.4861
12289TIP3    H158282   5.256   4.574  10.720  0.3466  2.2737  0.6001
12289TIP3    H258283   5.211   4.585  10.576 -1.2305  0.8198  0.9602
12290TIP3   OH258284   0.601   3.230  12.454  0.6282  0.2597 -0.3323
12290TIP3    H158285   0.584   3.321  12.476  0.4035  0.1264  0.0573
12290TIP3    H258286   0.680   3.232  12.401  1.0314  0.6196  0.2764
12291TIP3   OH258287   1.327   4.634   2.814 -0.0872  0.2926 -0.3899
12291TIP3    H158288   1.356   4.595   2.897 -0.1200 -1.0320 -0.9657
12291TIP3    H258289   1.234   4.653   2.828 -0.1748 -0.2354 -0.2257
12292TIP3   OH258290   4.034   2.520   3.719 -0.5766 -0.0639 -0.2544
12292TIP3    H158291   3.980   2.452   3.677  0.5210 -0.2387 -1.4384
12292TIP3    H258292   4.016   2.599   3.668 -1.7568  0.5681  1.0454
12293TIP3   OH258293   0.364   6.876   0.725 -0.0397  0.4016  0.7035
12293TIP3    H158294   0.420   6.945   0.761 -1.7487  0.7711  2.8607
12293TIP3    H258295   0.275   6.902   0.749 -1.0418 -0.9092 -1.3389
12294TIP3   OH258296   3.330   4.017   3.171 -0.0614  0.5194 -0.2218
12294TIP3    H158297   3.242   4.032   3.207  0.6843  3.0565  0.7461
12294TIP3    H258298   3.389   4.035   3.244  1.3158 -1.8528 -0.6453
12295TIP3   OH258299   4.349   3.412  10.327  0.3226 -0.0585 -0.3327
12295TIP3    H158300   4.314   3.334  10.369 -1.8293  0.7504 -0.4882
12295TIP3    H258301   4.412   3.379  10.262 -0.7362 -1.6780 -0.5785
12296TIP3   OH258302   5.146   2.499   2.997 -0.4397  0.4330  0.1355
12296TIP3    H158303   5.112   2.468   3.081 -0.4168 -1.6763 -0.5759
12296TIP3    H258304   5.216   2.438   2.975  1.0320  2.2312 -0.4272
12297TIP3   OH258305   0.327   3.072  10.380 -0.0887  0.0696 -0.3523
12297TIP3    H158306   0.327   3.060  10.475  0.7909  0.7225 -0.2514
12297TIP3    H258307   0.285   3.157  10.367  2.2361  1.3286 -0.2938
12298TIP3   OH258308   2.472   0.906  15.156 -0.0544 -0.3779 -0.4655
12298TIP3    H158309   2.438   0.835  15.101  1.0445 -1.1006 -0.2506
12298TIP3    H258310   2.506   0.861  15.233 -1.4725  0.6013  0.7893
12299TIP3   OH258311   1.769   3.758   5.410 -0.8203 -0.4471  0.5271
12299TIP3    H158312   1.767   3.676   5.461  0.5717  1.1861  3.5310
12299TIP3    H258313   1.862   3.775   5.397 -1.1312 -0.1176 -1.5188
12300TIP3   OH258314   3.106   1.575   2.431  0.5568 -0.1401 -0.0176
12300TIP3    H158315   3.087   1.529   2.512  0.6977 -1.2245 -0.5867
12300TIP3    H258316   3.093   1.668   2.452  1.6377 -0.3107  1.5384
12301TIP3   OH258317   0.736   3.676   4.140  0.1091 -0.1428  0.4239
12301TIP3    H158318   0.727   3.594   4.090 -1.6207  0.6792 -0.7027
12301TIP3    H258319   0.654   3.722   4.126 -0.1260  0.5309  3.4156
12302TIP3   OH258320   0.654   3.138  12.719 -0.0221 -0.2639 -0.0268
12302TIP3    H158321   0.625   3.140  12.628  0.1937  1.5646 -0.0846
12302TIP3    H258322   0.666   3.230  12.743  0.6582 -0.7421  1.6215
12303TIP3   OH258323   4.900   6.333   2.063  0.1321  0.5717 -0.0059
12303TIP3    H158324   4.887   6.423   2.034  1.2196  0.3937 -1.1452
12303TIP3    H258325   4.926   6.286   1.984  1.3761 -0.3451  0.9077
12304TIP3   OH258326   3.697   1.273  14.298 -0.4571  0.4207 -0.0062
12304TIP3    H158327   3.661   1.253  14.212  1.2634  1.4577 -1.0288
12304TIP3    H258328   3.768   1.209  14.309 -0.0194  0.9245  0.1700
12305TIP3   OH258329   4.755   3.637   2.673 -0.7836  0.3944  0.3819
12305TIP3    H158330   4.780   3.549   2.645 -0.1077  0.0484  1.9498
12305TIP3    H258331   4.718   3.678   2.595 -0.2353 -0.9529 -0.6205
12306TIP3   OH258332   1.910   5.408  14.056 -0.1675 -0.1119 -0.1980
12306TIP3    H158333   1.822   5.416  14.091 -0.6644 -1.1205 -1.1659
12306TIP3    H258334   1.912   5.469  13.982  0.7768  1.7729  1.2605
12307TIP3   OH258335   0.950   4.837  13.397  0.2275 -0.0099  0.0720
12307TIP3    H158336   1.025   4.786  13.367 -1.3311 -3.3364  1.3372
12307TIP3    H258337   0.978   4.872  13.482  1.2149  1.1422 -0.6850
12308TIP3   OH258338   2.319   2.944  11.815  0.2077  0.0059 -0.8484
12308TIP3    H158339   2.285   2.928  11.903  0.7436  2.2903 -0.1618
12308TIP3    H258340   2.272   3.022  11.784  1.4770  0.4651 -1.7415
12309TIP3   OH258341   0.748   1.906  12.685  0.1602 -0.2790 -0.0218
12309TIP3    H158342   0.772   1.949  12.767 -1.3786  0.0208  0.2950
12309TIP3    H258343   0.669   1.951  12.655 -0.6958 -1.9345 -0.4188
12310TIP3   OH258344   4.828   6.953   4.136  0.0348 -0.1366  0.0431
12310TIP3    H158345   4.872   6.868   4.140  0.2946  0.0197  0.4549
12310TIP3    H258346   4.737   6.935   4.162 -0.0046 -0.3546 -0.2442
12311TIP3   OH258347   2.978   6.686  13.059  0.2573 -0.6820 -0.3185
12311TIP3    H158348   3.071   6.678  13.037  0.1100 -0.8255 -0.9167
12311TIP3    H258349   2.976   6.684  13.155  0.8537 -0.8731 -0.3018
12312TIP3   OH258350   1.173   5.630   4.932  0.0428  0.1812 -0.7552
12312TIP3    H158351   1.107   5.690   4.897  1.3112  1.9350 -0.2618
12312TIP3    H258352   1.187   5.661   5.022  0.2427 -1.3200 -0.2369
12313TIP3   OH258353   5.608   5.659   4.724 -0.4274  0.4229  0.8931
12313TIP3    H158354   5.549   5.586   4.745 -0.1029  0.2583  1.2573
12313TIP3    H258355   5.595   5.675   4.631  1.7465 -2.1723  0.0252
12314TIP3   OH258356   6.291   0.301  11.676 -0.5122  0.1730  0.1497
12314TIP3    H158357   6.358   0.235  11.694 -0.3686  0.2615 -0.0583
12314TIP3    H258358   6.311   0.332  11.587 -1.2870 -0.3528 -0.2164
12315TIP3   OH258359   5.438   1.491  13.053  0.2262 -0.8054  0.0595
12315TIP3    H158360   5.509   1.478  13.117  0.7100 -0.6201 -0.4336
12315TIP3    H258361   5.456   1.428  12.984  0.5060 -0.0453 -0.5697
12316TIP3   OH258362   3.281   3.376   2.952  0.0731  0.0544  0.0148
12316TIP3    H158363   3.271   3.357   3.045  1.1275  1.7311  0.5155
12316TIP3    H258364   3.194   3.403   2.923 -0.0051  0.6788  0.8129
12317TIP3   OH258365   6.389   6.983  10.087 -0.0711 -0.0825  0.3367
12317TIP3    H158366   6.340   6.902  10.071 -0.0851  0.0057 -0.0737
12317TIP3    H258367   6.374   7.036  10.009  0.7533 -0.0933  0.1551
12318TIP3   OH258368   5.045   5.169   4.781 -0.1572 -0.9766  0.1156
12318TIP3    H158369   4.995   5.093   4.811  0.7320 -1.5711  0.1341
12318TIP3    H258370   4.979   5.232   4.755 -0.9702 -2.4861 -1.7834
12319TIP3   OH258371   7.151   5.882  12.981 -0.3920  0.1283  0.1239
12319TIP3    H158372   7.103   5.870  13.063 -0.4068 -1.4475 -0.0850
12319TIP3    H258373   7.242   5.895  13.009 -0.7063  1.8379  0.4588
12320TIP3   OH258374   3.812   0.720   3.458 -0.0268  0.2212  0.0077
12320TIP3    H158375   3.841   0.811   3.452  0.1792  0.2260  0.8744
12320TIP3    H258376   3.893   0.671   3.475 -0.2413 -0.0173  0.3572
12321TIP3   OH258377   6.315   4.445   1.333  0.1243 -0.1350 -0.4500
12321TIP3    H158378   6.252   4.423   1.265 -1.2309  2.1477 -0.0399
12321TIP3    H258379   6.385   4.492   1.287  0.4013 -0.6712 -0.5830
12322TIP3   OH258380   3.310   1.283  11.323 -0.1180  1.1800  0.6573
12322TIP3    H158381   3.404   1.268  11.320 -0.3781 -0.5713 -0.2854
12322TIP3    H258382   3.281   1.233  11.400 -0.5689 -0.4285 -0.5153
12323TIP3   OH258383   4.885   5.212   4.014  0.3644 -0.4417  0.8335
12323TIP3    H158384   4.848   5.294   3.980 -0.4343 -0.9532  0.4268
12323TIP3    H258385   4.905   5.230   4.105 -0.2950  0.0490  0.8854
12324TIP3   OH258386   5.958   1.190   3.821  0.0379 -0.7450 -0.3946
12324TIP3    H158387   6.017   1.233   3.883 -0.9667  2.3937 -1.3957
12324TIP3    H258388   5.997   1.104   3.806  2.3098 -0.2060  1.7127
12325TIP3   OH258389   6.706   0.880   2.659 -0.0802 -0.0638 -0.0199
12325TIP3    H158390   6.661   0.870   2.575 -0.5294 -0.6418  0.2872
12325TIP3    H258391   6.671   0.810   2.714 -1.7961  1.8411  1.5264
12326TIP3   OH258392   1.328   6.927   2.249 -0.0914  0.0474  0.0160
12326TIP3    H158393   1.360   6.918   2.159 -1.1834 -0.7308 -0.3174
12326TIP3    H258394   1.323   7.022   2.264  1.4122  0.1975 -0.2335
12327TIP3   OH258395   5.909   2.574  11.032 -0.2351 -0.4399  0.1197
12327TIP3    H158396   5.987   2.629  11.027  1.1629 -2.4369 -2.4614
12327TIP3    H258397   5.847   2.614  10.971  0.3320 -1.0320 -0.8621
12328TIP3   OH258398   3.249   2.942   0.864 -0.3361 -0.0679  0.2816
12328TIP3    H158399   3.310   2.996   0.813 -0.0727 -0.1186  0.5412
12328TIP3    H258400   3.163   2.963   0.828 -0.3311  1.1330  0.9009
12329TIP3   OH258401   1.006   2.793   1.837  0.1363  0.0273 -0.4091
12329TIP3    H158402   1.060   2.810   1.759  1.9418 -0.7201  0.6091
12329TIP3    H258403   1.014   2.873   1.889 -0.9940  0.4898 -0.9112
12330TIP3   OH258404   3.815   0.955  14.586  0.0045 -0.5289  0.5205
12330TIP3    H158405   3.755   0.883  14.566 -1.8654  0.8738  0.7918
12330TIP3    H258406   3.902   0.919  14.569 -0.9383 -2.3557 -0.8312
12331TIP3   OH258407   4.389   2.613   2.478 -0.3357 -0.7136  0.2174
12331TIP3    H158408   4.454   2.682   2.463 -1.2717  0.3736  0.9567
12331TIP3    H258409   4.438   2.532   2.468  0.7157  0.0276 -1.1206
12332TIP3   OH258410   0.999   4.933   3.045  1.0307  0.1461  0.4015
12332TIP3    H158411   0.930   4.925   2.980  0.3888 -1.4097  1.2369
12332TIP3    H258412   1.080   4.928   2.995  0.5622  1.1698 -0.4982
12333TIP3   OH258413   5.275   5.677  14.108 -0.1128  0.2817 -0.5959
12333TIP3    H158414   5.189   5.697  14.146 -0.2980 -1.5634  0.0678
12333TIP3    H258415   5.328   5.754  14.126 -1.3621  1.0602 -0.1326
12334TIP3   OH258416   2.171   5.983  14.499 -0.3541 -0.3467 -0.2240
12334TIP3    H158417   2.204   5.912  14.553 -0.8078  0.3493  1.0130
12334TIP3    H258418   2.246   6.041  14.487 -0.9453  1.1906  2.5153
12335TIP3   OH258419   7.140   3.306  11.932 -0.2031  0.0452 -0.1758
12335TIP3    H158420   7.052   3.321  11.898  0.0515  2.2490 -0.0650
12335TIP3    H258421   7.138   3.341  12.021  0.6727 -0.2119 -0.0430
12336TIP3   OH258422   2.523   2.467  15.449  0.0115  0.2355 -0.0411
12336TIP3    H158423   2.480   2.403  15.392 -2.0763  1.4035  0.1361
12336TIP3    H258424   2.585   2.512  15.391 -0.3201 -0.2503 -0.7909
12337TIP3   OH258425   0.482   2.810   0.952 -0.2063 -0.4788  0.4901
12337TIP3    H158426   0.501   2.822   0.859  0.5888 -1.6326  0.4776
12337TIP3    H258427   0.417   2.739   0.954 -2.8535  1.7884  0.6734
12338TIP3   OH258428   4.055   3.015  10.470 -0.0706 -1.0117 -0.0238
12338TIP3    H158429   4.111   2.986  10.543  0.7716  1.0531  0.2197
12338TIP3    H258430   4.104   2.990  10.391  1.5261  1.1734  0.1811
12339TIP3   OH258431   4.867   0.050  14.129  0.0655  0.3348  0.5867
12339TIP3    H158432   4.823   0.135  14.127 -0.0209  0.2869  0.4184
12339TIP3    H258433   4.863   0.022  14.220  1.1070  1.0421  0.8707
12340TIP3   OH258434   5.042   2.597  10.844 -0.3902  0.8137 -0.2201
12340TIP3    H158435   5.037   2.628  10.935 -0.8518 -2.6423  1.0919
12340TIP3    H258436   5.136   2.602  10.823 -0.4009  2.6028  0.0224
12341TIP3   OH258437   2.013   6.204   0.462 -0.4496  0.3114 -0.4937
12341TIP3    H158438   1.986   6.269   0.397  0.8714  0.8925 -0.4959
12341TIP3    H258439   2.109   6.204   0.457 -0.3468 -0.0925  1.0187
12342TIP3   OH258440   3.761   2.860  10.846  0.0279 -0.2136 -0.5198
12342TIP3    H158441   3.744   2.871  10.940  0.0628  0.0611 -0.5451
12342TIP3    H258442   3.679   2.887  10.804 -0.5581 -1.8341 -0.5034
12343TIP3   OH258443   0.507   6.713  13.074  0.4967 -0.0302  0.2343
12343TIP3    H158444   0.419   6.682  13.094  0.8498 -0.2466  1.5341
12343TIP3    H258445   0.536   6.757  13.154  1.2027  0.9021 -0.5131
12344TIP3   OH258446   3.102   6.142   2.234  0.4783 -0.2571  0.6205
12344TIP3    H158447   3.160   6.189   2.294  2.0215  0.9146 -1.6221
12344TIP3    H258448   3.154   6.131   2.154 -2.2339  0.4709 -1.4004
12345TIP3   OH258449   5.316   5.907   5.142  0.3091 -0.0127  0.3272
12345TIP3    H158450   5.253   5.939   5.207 -1.8531 -2.4986 -0.3635
12345TIP3    H258451   5.310   5.969   5.070 -2.6154 -0.9317 -0.3548
12346TIP3   OH258452   2.225   4.168  11.074  0.4296  0.7351  0.3783
12346TIP3    H158453   2.289   4.109  11.036 -0.2000  0.3154 -0.0403
12346TIP3    H258454   2.167   4.112  11.124 -0.4101  0.9374 -0.3446
12347TIP3   OH258455   2.442   6.653   3.932 -0.1443  0.0708 -0.0529
12347TIP3    H158456   2.485   6.728   3.892 -0.1711  0.0375 -0.1445
12347TIP3    H258457   2.357   6.647   3.889  0.0222 -0.2623 -0.3436
12348TIP3   OH258458   6.385   6.663   5.535 -0.2099  0.0161 -0.0171
12348TIP3    H158459   6.298   6.702   5.546  0.4154  1.8239 -1.2119
12348TIP3    H258460   6.398   6.660   5.440  1.4926  0.8778  0.1600
12349TIP3   OH258461   1.498   2.682   1.160 -0.0736 -0.3372  0.1360
12349TIP3    H158462   1.543   2.631   1.092  0.8740  1.0681 -0.3446
12349TIP3    H258463   1.554   2.674   1.237  0.5810  0.7104 -0.2131
12350TIP3   OH258464   0.419   2.205  14.532  0.0996 -0.3933 -0.1409
12350TIP3    H158465   0.465   2.122  14.533 -0.8070 -0.9444 -1.5859
12350TIP3    H258466   0.439   2.244  14.447 -1.4122 -0.2740 -0.4685
12351TIP3   OH258467   7.065   6.950  11.734  0.5955 -0.6117  0.8030
12351TIP3    H158468   7.022   7.027  11.771  0.7112 -1.0812  1.9586
12351TIP3    H258469   6.994   6.888  11.716  0.3996  0.0785 -0.9920
12352TIP3   OH258470   6.801   4.440  11.737  0.8333  0.3919  0.0002
12352TIP3    H158471   6.750   4.415  11.815  1.2232  0.0366  0.1439
12352TIP3    H258472   6.736   4.475  11.677  0.7578  2.3485  1.1606
12353TIP3   OH258473   4.216   6.732   3.067  0.5059 -0.2133  0.0975
12353TIP3    H158474   4.172   6.669   3.010 -0.4838 -1.4175  2.0915
12353TIP3    H258475   4.146   6.766   3.123  1.7209 -0.5378  1.8830
12354TIP3   OH258476   2.553   0.421  15.276  0.0438  0.4576  0.0803
12354TIP3    H158477   2.570   0.471  15.195  2.6350  0.0723  0.2985
12354TIP3    H258478   2.590   0.476  15.345  2.9962 -1.6200  0.3272
12355TIP3   OH258479   3.411   2.340   0.580  0.0999 -0.0236  0.0846
12355TIP3    H158480   3.485   2.400   0.569  1.4728 -1.7938 -0.7244
12355TIP3    H258481   3.417   2.311   0.670  0.9135 -0.7873 -0.2039
12356TIP3   OH258482   5.813   5.770  12.016  0.0278  0.2858  0.5671
12356TIP3    H158483   5.904   5.750  12.035  0.6200  1.4410 -0.8684
12356TIP3    H258484   5.816   5.822  11.936 -2.0025 -0.8143 -0.2962
12357TIP3   OH258485   2.305   0.296   3.783 -0.3932 -0.0071  0.1088
12357TIP3    H158486   2.389   0.300   3.737 -0.1100 -2.6039  0.2718
12357TIP3    H258487   2.327   0.307   3.875 -0.2152 -0.6975  0.1525
12358TIP3   OH258488   4.766   6.424   0.118 -0.0014  0.1283 -0.1209
12358TIP3    H158489   4.723   6.448   0.200  0.8168  0.5374  0.2017
12358TIP3    H258490   4.701   6.372   0.071 -0.7255  0.4614  0.4878
12359TIP3   OH258491   6.699   4.001  14.941 -0.9077 -0.3064  0.3253
12359TIP3    H158492   6.751   3.937  14.893 -0.6791  0.2366 -0.1733
12359TIP3    H258493   6.662   3.953  15.015 -0.5459 -0.9459  0.0920
12360TIP3   OH258494   3.791   3.624   0.812  0.4994 -0.1492  0.3277
12360TIP3    H158495   3.702   3.618   0.776  0.2649 -0.7445  0.9734
12360TIP3    H258496   3.845   3.575   0.750  0.4663  0.6410 -0.3321
12361TIP3   OH258497   4.909   0.463   4.026 -0.6338  0.4558  0.2978
12361TIP3    H158498   4.960   0.537   3.995 -2.4717  1.7905  0.2612
12361TIP3    H258499   4.889   0.484   4.117  0.3894 -0.9311  0.8720
12362TIP3   OH258500   4.526   1.434   4.687  0.4412  0.3388  0.7142
12362TIP3    H158501   4.587   1.423   4.614  0.2158 -0.5292  0.6352
12362TIP3    H258502   4.459   1.494   4.654 -0.2906 -0.9274 -0.2404
12363TIP3   OH258503   6.710   2.884   2.541 -0.1715 -0.3458 -0.1600
12363TIP3    H158504   6.728   2.806   2.489  0.3389 -1.4201  1.5334
12363TIP3    H258505   6.614   2.886   2.549 -0.1500 -1.4277  0.6365
12364TIP3   OH258506   0.593   1.488   1.918 -0.2806  0.1948  0.1735
12364TIP3    H158507   0.636   1.407   1.889 -1.7761 -0.3577 -0.6102
12364TIP3    H258508   0.645   1.517   1.992  0.4015 -1.3969  0.3720
12365TIP3   OH258509   7.052   3.245  11.314 -0.2611  0.1150  0.4732
12365TIP3    H158510   7.007   3.317  11.359 -1.1670 -0.4626  0.5183
12365TIP3    H258511   7.059   3.177  11.381  0.0055 -0.0767  0.2483
12366TIP3   OH258512   1.050   1.013  13.774  0.1363 -0.0553 -0.7342
12366TIP3    H158513   1.118   0.977  13.716 -0.6764 -0.2662 -1.5802
12366TIP3    H258514   1.015   1.088  13.725  0.4449  0.6933  0.1484
12367TIP3   OH258515   5.929   2.030  10.705 -0.1658 -0.4741  0.1532
12367TIP3    H158516   5.976   1.948  10.720  0.1018 -0.2875  0.3464
12367TIP3    H258517   5.891   2.021  10.618  0.3360 -0.5791 -0.0584
12368TIP3   OH258518   3.284   5.816  12.842  0.1022 -0.0039 -0.2968
12368TIP3    H158519   3.296   5.812  12.747 -1.8734  2.0675 -0.7236
12368TIP3    H258520   3.218   5.749  12.860  0.6359 -0.5470 -0.3350
12369TIP3   OH258521   1.666   3.667  10.642 -0.1641  0.1741 -0.0944
12369TIP3    H158522   1.759   3.659  10.620 -0.2127 -0.0660 -0.2236
12369TIP3    H258523   1.662   3.646  10.735 -0.1269 -0.1151 -0.1564
12370TIP3   OH258524   2.220   0.106   0.248  0.0111 -0.5339  0.1961
12370TIP3    H158525   2.164   0.087   0.173 -0.0703  0.0442  0.1107
12370TIP3    H258526   2.161   0.144   0.313 -0.3609 -2.9321  1.3698
12371TIP3   OH258527   1.185   3.082   1.072 -0.0238 -0.2720 -0.4468
12371TIP3    H158528   1.165   3.052   0.984 -2.0640 -1.9434  0.4934
12371TIP3    H258529   1.263   3.034   1.098  0.0864 -0.4095 -1.0354
12372TIP3   OH258530   6.039   1.465   1.565 -0.1362 -0.1224 -0.1156
12372TIP3    H158531   6.059   1.373   1.585  0.1104 -0.4492 -1.7563
12372TIP3    H258532   6.074   1.513   1.640 -1.4376 -1.4477  1.4195
12373TIP3   OH258533   2.832   2.674  11.868 -0.0653  0.2536 -0.0975
12373TIP3    H158534   2.859   2.609  11.803  0.2550  0.5804 -0.2905
12373TIP3    H258535   2.772   2.626  11.926  0.7401 -0.4073  0.1964
12374TIP3   OH258536   3.488   4.910   4.043  0.7146  0.4510 -0.9815
12374TIP3    H158537   3.421   4.884   3.980  1.0087  0.2264 -1.2034
12374TIP3    H258538   3.481   4.846   4.114  1.0162  0.1326 -1.2328
12375TIP3   OH258539   2.549   5.838  10.992 -0.2008 -0.3044 -0.1102
12375TIP3    H158540   2.632   5.825  11.039 -1.6141 -3.9483  1.8324
12375TIP3    H258541   2.509   5.914  11.034  0.6733 -0.6306  1.3812
12376TIP3   OH258542   5.173   2.052  13.563  0.7892 -0.1644  0.4543
12376TIP3    H158543   5.143   2.013  13.646  1.4978  0.7040  1.1467
12376TIP3    H258544   5.204   1.977  13.512 -0.6917 -0.8509  0.4935
12377TIP3   OH258545   6.580   5.962   1.232 -0.1301 -0.4477 -0.1439
12377TIP3    H158546   6.641   5.944   1.159  1.6274  0.8181  0.9263
12377TIP3    H258547   6.512   6.016   1.192  1.1672  0.8177 -0.7845
12378TIP3   OH258548   6.061   2.119   0.217  0.4617 -0.3580  0.1945
12378TIP3    H158549   6.029   2.053   0.155  1.4298 -0.3828 -0.2867
12378TIP3    H258550   6.153   2.130   0.196  0.4313  0.7948  0.5998
12379TIP3   OH258551   1.855   2.655   4.337 -0.1206  0.1922 -0.1105
12379TIP3    H158552   1.930   2.632   4.393 -0.5173  0.2951  0.4719
12379TIP3    H258553   1.820   2.735   4.377 -0.0769  0.5782 -0.8357
12380TIP3   OH258554   3.959   4.737  15.320 -0.1344 -0.0687 -0.1665
12380TIP3    H158555   3.993   4.659  15.275 -0.8295 -1.3648  1.4279
12380TIP3    H258556   3.864   4.732  15.307 -0.2083  0.3555  0.1900
12381TIP3   OH258557   0.609   3.616   5.443  0.4754 -0.0917 -0.3897
12381TIP3    H158558   0.615   3.678   5.516  0.2856 -1.9167  1.2417
12381TIP3    H258559   0.697   3.578   5.437  0.7529  0.6664 -1.7613
12382TIP3   OH258560   2.179   4.099  14.940 -0.6480 -0.8925 -0.0745
12382TIP3    H158561   2.199   4.190  14.963 -0.7082  0.0992 -3.3692
12382TIP3    H258562   2.130   4.065  15.014 -0.9049  1.8818  1.1426
12383TIP3   OH258563   3.422   0.210   2.577 -0.2946 -0.1465 -0.6752
12383TIP3    H158564   3.403   0.178   2.665 -0.9941 -1.4674 -1.2703
12383TIP3    H258565   3.386   0.299   2.575  0.2355  0.1123  0.5303
12384TIP3   OH258566   5.804   1.093   1.102 -0.2739  0.1712  0.3905
12384TIP3    H158567   5.837   1.117   1.189  0.6619  1.8242 -0.3682
12384TIP3    H258568   5.788   0.999   1.107  1.2221 -0.0495  1.9054
12385TIP3   OH258569   3.629   3.965  10.762  0.3683  0.0430 -0.3485
12385TIP3    H158570   3.707   4.014  10.736 -0.1763  0.0778 -1.9933
12385TIP3    H258571   3.627   3.890  10.703 -1.4953  0.6851 -1.1528
12386TIP3   OH258572   1.949   5.358   4.206  0.1945  0.0236  0.2826
12386TIP3    H158573   1.855   5.348   4.194  0.3025 -2.0482  0.7226
12386TIP3    H258574   1.958   5.416   4.282 -0.6082  2.9529 -1.6809
12387TIP3   OH258575   6.447   4.564  13.598 -0.8873 -0.1467 -0.2109
12387TIP3    H158576   6.512   4.532  13.661 -0.9687  0.3797  0.1447
12387TIP3    H258577   6.497   4.584  13.519 -0.9797 -2.2273 -0.8615
12388TIP3   OH258578   1.857   4.307  13.316  0.0116 -0.0018 -0.0114
12388TIP3    H158579   1.876   4.215  13.335  1.4885  0.2684 -0.1136
12388TIP3    H258580   1.901   4.325  13.233  0.0171  0.8868  0.1681
12389TIP3   OH258581   2.120   2.515   3.456 -0.4429  0.1822  0.3917
12389TIP3    H158582   2.170   2.446   3.500 -0.1874  0.8677  1.2154
12389TIP3    H258583   2.176   2.545   3.385  0.9236  1.7696  2.0211
12390TIP3   OH258584   2.147   4.360   4.526  0.4732 -0.3062 -0.3199
12390TIP3    H158585   2.233   4.366   4.569  0.2026  2.9361 -0.0041
12390TIP3    H258586   2.114   4.273   4.551  2.4518 -0.5183  1.9228
12391TIP3   OH258587   1.250   1.525  12.064  1.0209  0.0070 -0.3380
12391TIP3    H158588   1.307   1.573  12.004 -0.0493 -0.9135 -2.1432
12391TIP3    H258589   1.169   1.512  12.016  0.0200 -0.5515  1.4180
12392TIP3   OH258590   6.999   5.397  15.377 -0.4698  0.3771  0.2374
12392TIP3    H158591   6.905   5.388  15.357  0.1218  0.0405 -3.0134
12392TIP3    H258592   7.028   5.307  15.393 -0.6982  0.5148  1.5819
12393TIP3   OH258593   4.058   1.372   3.623  0.3708 -0.7174 -0.4163
12393TIP3    H158594   4.130   1.354   3.563  1.3476  1.3353  0.0638
12393TIP3    H258595   4.088   1.339   3.708 -0.3518 -2.1665 -0.6926
12394TIP3   OH258596   2.700   7.151   0.014  0.0795  0.9258 -0.0590
12394TIP3    H158597   2.627   7.125  -0.042  0.7432 -2.8475  0.4965
12394TIP3    H258598   2.773   7.163  -0.046  0.4453 -1.6993 -0.2650
12395TIP3   OH258599   2.532   1.790  15.404 -0.3987 -0.3922 -0.7166
12395TIP3    H158600   2.617   1.758  15.371 -0.5024 -0.8394 -0.5538
12395TIP3    H258601   2.487   1.711  15.433 -0.2660  0.0035  0.6035
12396TIP3   OH258602   0.310   6.194  13.703 -0.2909 -0.4775 -0.2016
12396TIP3    H158603   0.396   6.211  13.741 -1.1982  2.1875  0.9006
12396TIP3    H258604   0.293   6.269  13.647 -2.2721 -0.4741  0.3314
12397TIP3   OH258605   6.082   5.784   2.891  0.1751 -0.1102  0.3735
12397TIP3    H158606   6.161   5.833   2.865 -1.1049  1.0909 -1.5498
12397TIP3    H258607   6.099   5.694   2.863  0.2229  0.4930 -1.7139
12398TIP3   OH258608   3.692   0.284  13.199 -0.1150 -0.1885  0.2079
12398TIP3    H158609   3.770   0.339  13.204 -0.8459  0.8924  0.0417
12398TIP3    H258610   3.643   0.305  13.279 -0.7344 -0.0851 -0.1953
12399TIP3   OH258611   2.661   0.863   1.971  0.0515  0.5377  0.3057
12399TIP3    H158612   2.621   0.798   1.914 -0.7779  0.9495  0.3977
12399TIP3    H258613   2.685   0.815   2.050 -0.0250  0.2354  0.1476
12400TIP3   OH258614   3.663   3.393  12.640  0.2274  0.1452 -0.1295
12400TIP3    H158615   3.681   3.421  12.550 -0.0787 -0.0810 -0.2613
12400TIP3    H258616   3.592   3.450  12.669 -0.2694 -0.3665 -0.3336
12401TIP3   OH258617   0.017   6.409   4.314  0.3718 -0.1362  0.5120
12401TIP3    H158618  -0.053   6.451   4.263  1.1078 -1.3775 -1.6927
12401TIP3    H258619  -0.001   6.434   4.404 -2.8734 -0.2993  0.0544
12402TIP3   OH258620   0.619   3.440   1.230  0.6127  0.1009 -0.3189
12402TIP3    H158621   0.608   3.349   1.258 -0.1845  0.3282  0.1438
12402TIP3    H258622   0.713   3.450   1.215  0.7812 -0.6246  0.2346
12403TIP3   OH258623   5.413   5.627   3.454  0.1710 -0.0309 -0.2864
12403TIP3    H158624   5.335   5.587   3.493  0.9756  0.0061  1.4941
12403TIP3    H258625   5.443   5.565   3.388 -0.5157 -0.7508  0.0762
12404TIP3   OH258626   4.183   5.553  14.485  0.3309 -0.0372  0.2247
12404TIP3    H158627   4.156   5.625  14.428  0.4189  0.6373  1.0235
12404TIP3    H258628   4.110   5.491  14.481 -0.7015  1.0670  1.1771
12405TIP3   OH258629   2.837   0.314   5.375  0.2639 -0.7437 -0.0611
12405TIP3    H158630   2.801   0.368   5.305  0.8470 -1.8509 -1.2589
12405TIP3    H258631   2.763   0.260   5.403 -0.4350  0.8891  1.4352
12406TIP3   OH258632   7.028   2.794   4.716  0.3839  0.2037 -0.4624
12406TIP3    H158633   7.020   2.839   4.800 -1.6720  0.1253 -0.5541
12406TIP3    H258634   6.988   2.855   4.653  2.4468  0.5303 -1.5241
12407TIP3   OH258635   3.870   3.520   4.951 -0.4819 -0.0720  0.1803
12407TIP3    H158636   3.940   3.566   4.998 -0.7452  1.8333 -1.2005
12407TIP3    H258637   3.790   3.565   4.977 -0.7105  0.5390 -1.5170
12408TIP3   OH258638   5.411   3.396   5.409  0.4127  0.1781  0.2475
12408TIP3    H158639   5.486   3.430   5.458  2.1904 -0.9990 -1.4745
12408TIP3    H258640   5.388   3.466   5.348  1.6825 -0.2763 -0.8008
12409TIP3   OH258641   3.740   5.400   3.369  0.1672 -0.0518 -0.2995
12409TIP3    H158642   3.727   5.306   3.354 -2.0142  0.0842  0.3213
12409TIP3    H258643   3.744   5.408   3.464  0.6921  0.4474 -0.3629
12410TIP3   OH258644   3.396   5.484  14.678 -0.6037  0.0950  0.4755
12410TIP3    H158645   3.378   5.550  14.611 -0.5825  1.8705  2.1496
12410TIP3    H258646   3.309   5.453  14.704 -0.5791 -1.5958 -1.2438
12411TIP3   OH258647   2.689   0.966  10.775  0.0019 -0.9046  0.0705
12411TIP3    H158648   2.635   1.006  10.844 -0.8432  0.9470 -1.5424
12411TIP3    H258649   2.652   1.001  10.694  3.0670 -0.2599 -1.1734
12412TIP3   OH258650   1.796   2.440   2.407  0.2529 -1.1203  0.0262
12412TIP3    H158651   1.858   2.416   2.477 -0.9114 -1.5484  0.9368
12412TIP3    H258652   1.803   2.535   2.401  0.6936 -1.1209  0.4117
12413TIP3   OH258653   0.674   6.340   1.604  0.0436  0.2964 -0.2343
12413TIP3    H158654   0.652   6.432   1.616  0.6745  0.4731 -0.4012
12413TIP3    H258655   0.719   6.315   1.685 -1.0409 -0.1581  0.2524
12414TIP3   OH258656   4.291   3.963   3.913  0.5387 -0.5929  0.0755
12414TIP3    H158657   4.314   3.870   3.906 -2.3447 -1.4609  0.7051
12414TIP3    H258658   4.239   3.968   3.993  2.7262  2.1160  1.4748
12415TIP3   OH258659   1.128   4.808   0.212 -0.3033  0.2139  0.6272
12415TIP3    H158660   1.189   4.762   0.270 -0.2681 -2.1842 -1.1440
12415TIP3    H258661   1.052   4.751   0.208  0.1006 -0.2818 -2.3951
12416TIP3   OH258662   6.911   2.002  13.408  0.1077 -0.2036  0.4442
12416TIP3    H158663   6.864   2.084  13.393  0.3201 -0.0152  0.7830
12416TIP3    H258664   6.886   1.946  13.335  0.8599  0.5575 -0.4417
12417TIP3   OH258665   4.455   3.528   0.897  0.1529  0.0700  0.0969
12417TIP3    H158666   4.400   3.606   0.886  0.3820  0.2364  0.1161
12417TIP3    H258667   4.505   3.545   0.977 -0.3139 -0.4160  0.4913
12418TIP3   OH258668   2.954   5.086  15.110 -0.2346  0.4675 -0.3810
12418TIP3    H158669   2.924   5.176  15.124 -0.5085  0.6050 -1.7239
12418TIP3    H258670   3.034   5.096  15.059 -0.1188 -0.0481 -0.3014
12419TIP3   OH258671   5.021   1.975   0.867  0.4482 -0.0416  0.2362
12419TIP3    H158672   5.081   1.942   0.934  0.2684 -0.3470  0.2509
12419TIP3    H258673   4.947   2.011   0.916  0.1643 -0.5629  0.2007
12420TIP3   OH258674   3.064   2.636   1.179  0.1048  0.3884  0.2885
12420TIP3    H158675   3.099   2.568   1.121 -1.6247  0.5807 -1.0425
12420TIP3    H258676   3.139   2.693   1.196  0.9661 -0.4148 -0.6718
12421TIP3   OH258677   1.890   3.621  15.208 -0.2657  0.1462  0.1685
12421TIP3    H158678   1.847   3.537  15.192  0.8585 -0.0490 -2.1633
12421TIP3    H258679   1.954   3.603  15.278 -0.9680 -0.5713  0.6433
12422TIP3   OH258680   6.632   3.927   3.905  0.0149  0.0606  0.5403
12422TIP3    H158681   6.592   3.974   3.979 -0.3017 -2.1293  1.8298
12422TIP3    H258682   6.724   3.919   3.929  0.2367  0.7057 -0.0660
12423TIP3   OH258683   4.532   2.162   5.853  0.1425  0.1851  0.0010
12423TIP3    H158684   4.590   2.214   5.797  0.5536 -2.1114 -1.8463
12423TIP3    H258685   4.589   2.130   5.923  0.3808  0.4265 -0.0781
12424TIP3   OH258686   6.295   2.693  14.355 -0.2621  0.2238 -0.0638
12424TIP3    H158687   6.314   2.682  14.448  2.4940  1.5752 -0.3812
12424TIP3    H258688   6.264   2.607  14.327  1.3481 -0.9719  1.5877
12425TIP3   OH258689   5.001   6.477  14.221  0.2238  0.3980  0.6917
12425TIP3    H158690   5.019   6.445  14.309  1.3718  0.5372  0.5253
12425TIP3    H258691   4.911   6.448  14.202  0.3853 -0.6434  1.4494
12426TIP3   OH258692   6.383   3.634  15.249 -0.4420 -0.6713 -0.2815
12426TIP3    H158693   6.373   3.660  15.157  1.8384 -2.9586 -1.2840
12426TIP3    H258694   6.317   3.565  15.261  0.4358 -1.6066 -0.7593
12427TIP3   OH258695   1.310   4.752   3.527  0.8409 -0.5666  0.1542
12427TIP3    H158696   1.341   4.774   3.615 -0.6460  0.8115  0.3693
12427TIP3    H258697   1.252   4.824   3.503 -0.4409 -1.9475 -1.1091
12428TIP3   OH258698   4.863   4.305  15.284 -0.4865  0.0618 -0.0187
12428TIP3    H158699   4.896   4.215  15.280 -1.5600 -0.4002  0.9305
12428TIP3    H258700   4.769   4.297  15.266 -0.2272  1.2792 -2.1402
12429TIP3   OH258701   4.132   2.880  13.103 -0.0258 -0.2215  0.2283
12429TIP3    H158702   4.170   2.926  13.178 -1.7954  0.7564  0.5763
12429TIP3    H258703   4.173   2.794  13.105  0.3977 -0.0214  1.9810
12430TIP3   OH258704   0.530   1.216   0.192 -0.1400 -0.6606 -0.5689
12430TIP3    H158705   0.545   1.226   0.098 -2.1293 -1.5979 -1.0399
12430TIP3    H258706   0.608   1.171   0.224  1.5754  1.6133 -1.3068
12431TIP3   OH258707   5.271   4.407  11.178  0.2478 -0.9678  0.6254
12431TIP3    H158708   5.343   4.467  11.159 -0.4927  0.1833  1.3261
12431TIP3    H258709   5.225   4.448  11.252 -0.2447 -2.4368  1.1579
12432TIP3   OH258710   2.752   4.565  13.226  0.1555  0.1988 -0.0356
12432TIP3    H158711   2.719   4.593  13.141  1.4667 -2.4392 -1.5058
12432TIP3    H258712   2.827   4.623  13.242 -0.7167  1.3901 -0.1445
12433TIP3   OH258713   5.899   3.912   0.755  0.6585  0.5467 -0.0172
12433TIP3    H158714   5.905   4.007   0.758 -0.0232  0.5817  0.3260
12433TIP3    H258715   5.987   3.884   0.729  0.0683  1.3946 -3.5382
12434TIP3   OH258716   3.413   6.400   3.703 -0.3322 -0.0121  0.8089
12434TIP3    H158717   3.467   6.468   3.743  0.1030 -0.6382  1.3035
12434TIP3    H258718   3.323   6.429   3.718 -0.1543  0.4613  0.9922
12435TIP3   OH258719   6.571   3.949   5.299 -0.4033  0.3995  0.0973
12435TIP3    H158720   6.560   3.937   5.394 -0.3650  0.2157  0.0791
12435TIP3    H258721   6.588   4.043   5.289  1.1078  0.1961  0.4280
12436TIP3   OH258722   5.434   3.147  10.185 -0.6434  0.2157 -0.4524
12436TIP3    H158723   5.445   3.153  10.090  0.4499 -0.4226 -0.3784
12436TIP3    H258724   5.492   3.215  10.219 -2.7660  2.0639 -0.2820
12437TIP3   OH258725   3.104   2.684  14.406 -0.2855  0.0904 -0.1898
12437TIP3    H158726   3.101   2.735  14.487  2.1726  1.5396 -0.8964
12437TIP3    H258727   3.197   2.667  14.393 -0.7981 -1.8976 -1.6830
12438TIP3   OH258728   2.809   2.777  11.288  0.3390 -0.2586  0.1274
12438TIP3    H158729   2.798   2.692  11.332  1.3547 -0.0074  0.8893
12438TIP3    H258730   2.735   2.829  11.319 -1.2508 -1.3363 -1.6012
12439TIP3   OH258731   5.640   2.995   1.929 -0.2486  0.0999 -1.0903
12439TIP3    H158732   5.727   2.980   1.894  0.9597  0.1671  1.6510
12439TIP3    H258733   5.631   3.090   1.931  0.8889  0.2342  1.2667
12440TIP3   OH258734   0.949   1.311  15.417  0.1805  0.3300  0.2671
12440TIP3    H158735   1.016   1.308  15.349 -1.3729 -1.4878 -1.3031
12440TIP3    H258736   0.882   1.370  15.381  0.2549  1.0011  1.1862
12441TIP3   OH258737   7.023   3.588  10.119  0.6981  0.7368 -0.2582
12441TIP3    H158738   6.957   3.655  10.106 -0.8470 -0.7781 -0.6118
12441TIP3    H258739   7.006   3.523  10.051  1.6875 -0.3659  0.4884
12442TIP3   OH258740   0.023   6.119   2.278  0.6010  0.6400 -0.0120
12442TIP3    H158741   0.071   6.187   2.231  0.7494  0.2186 -0.4683
12442TIP3    H258742   0.057   6.124   2.368  0.6007  1.1741 -0.0387
12443TIP3   OH258743   1.619   3.373   2.872  0.4368  0.0493 -0.1584
12443TIP3    H158744   1.564   3.296   2.891  0.4657  0.4321  1.6471
12443TIP3    H258745   1.557   3.444   2.860  0.4663  0.0657 -0.2132
12444TIP3   OH258746   0.094   0.249  14.662 -0.2499  0.2507  0.5468
12444TIP3    H158747   0.042   0.266  14.741  0.4165  0.5434  0.9276
12444TIP3    H258748   0.173   0.301  14.674  1.1679 -1.8972  1.0031
12445TIP3   OH258749   1.159   0.636   1.257 -0.2154 -0.0989  0.6348
12445TIP3    H158750   1.182   0.706   1.196 -0.0361 -1.4040 -0.8688
12445TIP3    H258751   1.128   0.565   1.201  0.3639 -1.5173  2.0354
12446TIP3   OH258752   1.634   2.054   4.971  0.2586  0.2048  0.4474
12446TIP3    H158753   1.601   2.041   5.060 -0.9375  1.5133  0.2263
12446TIP3    H258754   1.688   1.977   4.954  0.8729  0.1150  2.4631
12447TIP3   OH258755   0.786   0.177  13.843 -0.4411  0.4958 -0.0345
12447TIP3    H158756   0.802   0.175  13.749  0.9047  1.2127  0.1525
12447TIP3    H258757   0.802   0.268  13.869 -3.1385  0.8820  0.5380
12448TIP3   OH258758   6.103   4.798   1.860 -0.3056  0.2418 -0.7340
12448TIP3    H158759   6.022   4.809   1.911 -0.3117 -0.1801 -0.6515
12448TIP3    H258760   6.099   4.708   1.829  0.9240 -0.3263  0.6346
12449TIP3   OH258761   3.671   6.759   2.193 -0.4152  0.4112 -0.2584
12449TIP3    H158762   3.662   6.787   2.284 -1.2417 -0.0052 -0.2024
12449TIP3    H258763   3.609   6.687   2.184  2.3177 -2.1469 -0.1283
12450TIP3   OH258764   0.906   4.001   1.112  0.2012 -0.6304 -0.7401
12450TIP3    H158765   0.895   4.046   1.029 -0.4446 -1.2052 -0.9785
12450TIP3    H258766   0.895   4.069   1.178 -1.8811 -0.5948 -1.0559
12451TIP3   OH258767   6.575   3.355   1.699  0.3468  0.0627  0.0940
12451TIP3    H158768   6.490   3.335   1.661 -0.9441  0.7045  2.4459
12451TIP3    H258769   6.615   3.269   1.714 -0.8221 -0.3596  0.9156
12452TIP3   OH258770   1.535   3.636   3.172  0.2203 -0.5121 -0.5942
12452TIP3    H158771   1.541   3.604   3.082 -1.2420 -1.5946 -0.3470
12452TIP3    H258772   1.601   3.585   3.220  0.4121 -0.5411 -0.8869
12453TIP3   OH258773   5.039   7.162  10.080  1.1814 -0.2194 -0.0227
12453TIP3    H158774   5.061   7.142  10.171  0.6801  1.4215  0.5122
12453TIP3    H258775   5.080   7.248  10.065 -1.2136  0.9578 -0.3305
12454TIP3   OH258776   5.196   6.902  11.859  0.3914 -0.2995 -0.0357
12454TIP3    H158777   5.230   6.937  11.776 -0.9188 -1.0270 -0.9290
12454TIP3    H258778   5.249   6.824  11.876  1.1034  0.2299  0.1586
12455TIP3   OH258779   6.862   1.209   3.589  0.1628 -0.0241 -0.0043
12455TIP3    H158780   6.775   1.195   3.554  0.6275 -1.5082 -0.6219
12455TIP3    H258781   6.921   1.162   3.530  1.2054 -0.5856  1.4054
12456TIP3   OH258782   1.866   0.796   5.210 -0.8927 -0.4360 -0.4109
12456TIP3    H158783   1.873   0.710   5.252  0.0020 -0.3451 -0.3742
12456TIP3    H258784   1.837   0.775   5.121  0.5102 -0.8853 -0.7872
12457TIP3   OH258785   6.778   2.670  14.149 -0.2402  0.2251  0.3988
12457TIP3    H158786   6.698   2.634  14.187 -0.4132  1.6482  1.4719
12457TIP3    H258787   6.824   2.708  14.223  0.2889  1.5037 -0.5549
12458TIP3   OH258788   3.650   4.246  14.593 -0.2085 -0.2656  0.0447
12458TIP3    H158789   3.608   4.189  14.657 -1.0560  0.0998 -0.1742
12458TIP3    H258790   3.653   4.332  14.635  0.7563 -0.3776  0.2394
12459TIP3   OH258791   6.387   0.390  11.391  0.2551 -0.0318 -0.9068
12459TIP3    H158792   6.444   0.329  11.343 -0.8297 -0.8816 -1.1419
12459TIP3    H258793   6.301   0.380  11.351 -0.3570  0.3165  0.2772
12460TIP3   OH258794   6.453   0.702   1.089  0.6726  0.0660 -0.7149
12460TIP3    H158795   6.528   0.720   1.032  0.6424 -1.1380 -1.1550
12460TIP3    H258796   6.377   0.710   1.032  0.5325  0.3593 -0.4880
12461TIP3   OH258797   6.778   6.200   5.117 -0.3284 -0.5883  0.2679
12461TIP3    H158798   6.860   6.241   5.088 -0.0502 -1.2391  0.1197
12461TIP3    H258799   6.794   6.106   5.108 -1.8590 -0.7018 -1.8562
12462TIP3   OH258800   1.253   5.699   1.635 -0.3028  0.0618  0.8465
12462TIP3    H158801   1.180   5.667   1.582  0.9390  1.8085 -2.1728
12462TIP3    H258802   1.308   5.622   1.650  0.5092 -0.2038 -2.6313
12463TIP3   OH258803   4.040   0.184  13.447 -0.2966 -0.6788  0.1016
12463TIP3    H158804   4.104   0.217  13.510  1.2693  2.0771 -2.6682
12463TIP3    H258805   3.974   0.253  13.441 -1.2405 -1.5849 -0.2163
12464TIP3   OH258806   3.585   0.365  10.684 -0.2751 -0.0721  0.7407
12464TIP3    H158807   3.515   0.409  10.637 -1.7312 -1.9401  1.0476
12464TIP3    H258808   3.567   0.382  10.776 -1.5981 -2.1929  0.9516
12465TIP3   OH258809   4.472   6.613   1.522 -0.2034 -0.4868  0.1103
12465TIP3    H158810   4.539   6.629   1.456  0.8834 -3.4383  0.3230
12465TIP3    H258811   4.392   6.596   1.471  0.3941 -1.7391 -0.4707
12466TIP3   OH258812   5.750   3.071   2.486  0.0490 -0.1041  0.2577
12466TIP3    H158813   5.733   2.978   2.497 -1.0524  0.2424  1.7769
12466TIP3    H258814   5.768   3.104   2.574 -0.0124  1.2002 -0.1826
12467TIP3   OH258815   7.108   0.673  12.312 -0.0519 -0.3175  0.4327
12467TIP3    H158816   7.152   0.643  12.232  1.5345 -2.0283  1.8658
12467TIP3    H258817   7.050   0.600  12.335 -0.6804  0.2730  0.7252
12468TIP3   OH258818   2.016   0.416  14.539  0.3920  0.6854 -0.2869
12468TIP3    H158819   2.085   0.404  14.475 -0.0774  0.6971 -0.8016
12468TIP3    H258820   1.937   0.434  14.487 -0.2787 -0.6466  0.2108
12469TIP3   OH258821   7.109   7.120   5.496  0.4069 -0.0796  0.7237
12469TIP3    H158822   7.028   7.165   5.473 -0.4091 -1.5547  0.5689
12469TIP3    H258823   7.083   7.028   5.509  2.1216 -0.6828  0.2288
12470TIP3   OH258824   6.597   5.513   3.911 -0.3096 -0.3837  0.6200
12470TIP3    H158825   6.644   5.445   3.958  1.4957  0.0809 -0.4079
12470TIP3    H258826   6.661   5.548   3.849 -1.6176  1.2576  0.1172
12471TIP3   OH258827   4.532   5.344   3.658  0.3931 -0.4068  0.0861
12471TIP3    H158828   4.537   5.249   3.644 -0.9824 -0.8246  1.9872
12471TIP3    H258829   4.623   5.372   3.667  0.8987 -1.2819 -1.7852
12472TIP3   OH258830   2.420   0.766   0.761  0.0124 -0.0618 -0.7604
12472TIP3    H158831   2.335   0.794   0.729  0.0292 -0.1729 -0.9050
12472TIP3    H258832   2.430   0.810   0.845 -0.6964 -0.9436 -0.1913
12473TIP3   OH258833   0.522   0.804   3.923  0.0725 -0.9063  0.0567
12473TIP3    H158834   0.571   0.723   3.910 -1.8355 -2.0070 -0.6995
12473TIP3    H258835   0.481   0.821   3.838  0.1683  0.7013  0.2875
12474TIP3   OH258836   6.054   1.453  12.225  0.3233 -0.3369  0.1641
12474TIP3    H158837   6.132   1.494  12.262 -0.4811  0.9668  0.4830
12474TIP3    H258838   6.088   1.377  12.178  1.9539  0.9253 -0.8463
12475TIP3   OH258839   1.844   3.422  11.194  0.5532 -0.3455  0.0114
12475TIP3    H158840   1.871   3.387  11.279 -0.3015 -0.3029  0.3159
12475TIP3    H258841   1.754   3.453  11.209  0.3696 -0.4006 -0.9305
12476TIP3   OH258842   2.382   6.795   0.428 -0.3934 -0.3728 -0.5925
12476TIP3    H158843   2.468   6.808   0.469 -0.7513 -0.3544  0.1707
12476TIP3    H258844   2.342   6.882   0.430 -0.2930 -0.3056 -1.2763
12477TIP3   OH258845   1.353   2.568  11.134  0.5361 -0.0400  0.1006
12477TIP3    H158846   1.432   2.620  11.120 -0.1721  1.0087 -0.1819
12477TIP3    H258847   1.344   2.516  11.054  0.5509  0.3891 -0.1866
12478TIP3   OH258848   5.130   5.298   9.757  0.3008  0.3088 -0.5471
12478TIP3    H158849   5.093   5.357   9.823  0.8558  0.5057 -0.4040
12478TIP3    H258850   5.201   5.252   9.803  0.1703 -0.1420 -0.7846
12479TIP3   OH258851   6.030   7.004   2.079 -0.0870  0.2052  0.0515
12479TIP3    H158852   6.005   7.095   2.092  1.1134  0.4717  0.6431
12479TIP3    H258853   6.090   6.986   2.151 -1.0403 -1.3491  0.5177
12480TIP3   OH258854   3.869   5.783  11.428  0.2462  0.1958 -0.1717
12480TIP3    H158855   3.945   5.841  11.419  0.6278 -0.4432 -1.1552
12480TIP3    H258856   3.901   5.697  11.404 -1.1559  0.1798 -2.2109
12481TIP3   OH258857   0.555   5.782   0.160 -0.4899 -0.4000  0.3263
12481TIP3    H158858   0.470   5.804   0.121  0.2674  1.0747 -0.5818
12481TIP3    H258859   0.606   5.863   0.155  1.1046 -1.3470  0.4983
12482TIP3   OH258860   3.159   1.960  15.130 -0.1218  0.0495 -1.2124
12482TIP3    H158861   3.253   1.971  15.142 -0.3882  0.8100  0.6102
12482TIP3    H258862   3.125   2.049  15.119 -0.5299 -0.2937 -3.0742
12483TIP3   OH258863   1.824   7.081   4.144 -0.3637 -0.1398 -0.2898
12483TIP3    H158864   1.854   6.991   4.134 -1.1898 -0.6708  1.6017
12483TIP3    H258865   1.739   7.083   4.100 -0.4239 -0.3338 -0.1829
12484TIP3   OH258866   6.136   6.232   0.250  0.3986 -0.2557  0.1435
12484TIP3    H158867   6.114   6.290   0.177  1.4889 -0.0442 -0.0416
12484TIP3    H258868   6.221   6.265   0.281  0.3209 -0.8381  0.9942
12485TIP3   OH258869   0.766   6.946   3.078  0.1600 -0.5445 -0.1750
12485TIP3    H158870   0.676   6.967   3.103  0.6029  0.7772  0.4155
12485TIP3    H258871   0.774   6.980   2.988  0.3363  0.2428  0.1244
12486TIP3   OH258872   0.276   4.864   4.729 -0.5016 -0.0013 -0.0093
12486TIP3    H158873   0.348   4.836   4.672 -1.0030  0.4065 -0.8762
12486TIP3    H258874   0.315   4.873   4.815  0.6702  0.9332 -0.6109
12487TIP3   OH258875   4.431   0.674  12.999 -0.5973 -0.8381 -0.0980
12487TIP3    H158876   4.411   0.756  13.045  0.7698 -1.2676  1.3547
12487TIP3    H258877   4.471   0.702  12.917  0.1599 -0.0336  0.5299
12488TIP3   OH258878   5.342   2.666   0.131 -0.4858  0.8665  0.1364
12488TIP3    H158879   5.261   2.707   0.161 -1.9222 -1.6893  0.0356
12488TIP3    H258880   5.349   2.691   0.039 -1.7716  0.2377 -0.1463
12489TIP3   OH258881   2.097   3.037  10.534  0.3567 -0.4365 -0.8889
12489TIP3    H158882   2.159   3.092  10.486 -0.7621  0.0977 -1.7688
12489TIP3    H258883   2.053   2.987  10.465  0.8458 -1.9245 -0.1580
12490TIP3   OH258884   3.018   2.034   4.748 -0.2570 -0.2172 -0.0984
12490TIP3    H158885   2.948   1.992   4.799  0.4356 -0.3867  0.7365
12490TIP3    H258886   3.046   1.966   4.686 -1.0897 -0.0160 -0.7121
12491TIP3   OH258887   2.325   4.416  11.132  0.5896  0.4027  0.3551
12491TIP3    H158888   2.280   4.344  11.087  0.2642  1.3173 -0.8288
12491TIP3    H258889   2.417   4.406  11.106  1.1689 -1.4100  2.7013
12492TIP3   OH258890   3.219   5.074  14.986 -0.0459  0.0033  0.1004
12492TIP3    H158891   3.257   5.162  14.988  1.4916 -0.6338  0.6924
12492TIP3    H258892   3.211   5.054  14.893 -0.9912  0.9944 -0.0486
12493TIP3   OH258893   0.992   0.750  12.023  0.5079 -0.4659 -0.5358
12493TIP3    H158894   1.045   0.802  12.083  2.2463 -0.0678 -2.2984
12493TIP3    H258895   0.916   0.805  12.005  0.2068 -0.3852  0.8603
12494TIP3   OH258896   5.098   2.371  14.888 -0.2477 -0.0577  0.5059
12494TIP3    H158897   5.110   2.364  14.793 -0.8010 -1.8241  0.5388
12494TIP3    H258898   5.120   2.462  14.908  1.1627  0.0093 -1.1256
12495TIP3   OH258899   6.990   2.147   5.080 -0.3373 -0.1094 -0.0790
12495TIP3    H158900   6.985   2.125   5.173 -1.8488 -2.5107 -0.6503
12495TIP3    H258901   6.899   2.157   5.053  0.0867  0.5624 -1.3161
12496TIP3   OH258902   1.128   4.160  15.147 -0.4016 -0.5466 -0.2640
12496TIP3    H158903   1.157   4.215  15.074 -1.7634 -0.8032 -1.0183
12496TIP3    H258904   1.112   4.222  15.219 -1.2789 -0.0114 -0.9005
12497TIP3   OH258905   1.747   4.035  13.122  0.3117  0.5372 -0.4916
12497TIP3    H158906   1.771   4.119  13.084 -0.8079  0.2397 -1.9242
12497TIP3    H258907   1.657   4.021  13.094 -0.1398 -0.3004  1.2504
12498TIP3   OH258908   3.346   4.343   4.151 -0.6137 -0.5701  0.3827
12498TIP3    H158909   3.349   4.248   4.162  2.4411 -0.6036 -0.0648
12498TIP3    H258910   3.365   4.358   4.058 -0.4855  0.4887  0.5607
12499TIP3   OH258911   2.373   6.211   3.940  0.0300 -0.0215 -0.7915
12499TIP3    H158912   2.390   6.155   3.865 -1.5969  0.8317 -1.8502
12499TIP3    H258913   2.375   6.152   4.015 -0.4430 -1.2877 -1.7450
12500TIP3   OH258914   1.827   3.528   0.106 -0.6199 -0.0692  0.3903
12500TIP3    H158915   1.753   3.566   0.058  0.9627  1.8762 -0.6553
12500TIP3    H258916   1.839   3.442   0.067 -1.3720  0.2167 -0.5142
12501TIP3   OH258917   5.955   0.776  12.246 -0.0267 -0.3985 -0.3958
12501TIP3    H158918   6.002   0.693  12.250  0.6828  0.0199  2.2231
12501TIP3    H258919   6.021   0.840  12.219  0.8292  0.0276  2.3515
12502TIP3   OH258920   1.714   1.420  12.782  0.2493  0.1944 -0.1842
12502TIP3    H158921   1.758   1.438  12.699  0.0738 -1.8852 -0.7920
12502TIP3    H258922   1.654   1.493  12.794  2.5106  2.1864 -0.2409
12503TIP3   OH258923   1.539   1.869   5.339  0.3877  0.8485  0.3112
12503TIP3    H158924   1.626   1.836   5.361  0.3041  0.7318  0.4652
12503TIP3    H258925   1.556   1.943   5.280  0.5586 -0.0079 -0.7458
12504TIP3   OH258926   4.537   6.691   3.635  0.6241 -0.4797 -0.1922
12504TIP3    H158927   4.620   6.664   3.597 -0.0962 -1.9280 -0.8019
12504TIP3    H258928   4.486   6.610   3.642 -0.0434  0.0470  1.9516
12505TIP3   OH258929   4.062   5.969   2.350  0.0251  0.5632 -0.2521
12505TIP3    H158930   4.061   5.873   2.342  0.2558  0.4855  0.5899
12505TIP3    H258931   4.130   5.997   2.289  1.4692  0.0144  1.0427
12506TIP3   OH258932   1.091   0.010  12.893  0.2985  0.1306  0.3658
12506TIP3    H158933   1.005   0.052  12.900  0.5547  0.7131  0.0826
12506TIP3    H258934   1.077  -0.078  12.925 -1.1156 -0.7852 -2.4287
12507TIP3   OH258935   2.990   1.897  13.870  0.1018  0.4221  0.1186
12507TIP3    H158936   3.046   1.974  13.876 -0.1285  0.6539 -0.5826
12507TIP3    H258937   3.018   1.841  13.943 -0.7695  1.8437  1.6286
12508TIP3   OH258938   3.763   3.896  14.732  0.4821  0.4643  0.6818
12508TIP3    H158939   3.695   3.847  14.686  0.8647 -0.8975  1.5340
12508TIP3    H258940   3.796   3.957  14.666 -2.2386  1.9270  0.5047
12509TIP3   OH258941   5.904   2.209   5.182 -0.3024  0.5774 -0.3709
12509TIP3    H158942   5.974   2.274   5.178 -1.6524  2.2401  1.0496
12509TIP3    H258943   5.853   2.224   5.102  0.1300  0.3707 -0.6855
12510TIP3   OH258944   6.096   0.898   4.957  0.2927 -0.7869 -0.2903
12510TIP3    H158945   6.174   0.865   5.000 -0.4421 -0.7680  1.0989
12510TIP3    H258946   6.056   0.820   4.917 -0.2437 -1.2312  1.0625
12511TIP3   OH258947   4.216   7.137   4.380 -0.1077 -0.0659  0.0562
12511TIP3    H158948   4.229   7.127   4.286  0.3622 -0.5049  0.1610
12511TIP3    H258949   4.143   7.197   4.388  1.1486  1.6415 -0.5890
12512TIP3   OH258950   0.112   1.296  12.408 -0.2487 -0.5093 -0.0282
12512TIP3    H158951   0.139   1.233  12.475 -0.2325 -0.4657  0.0055
12512TIP3    H258952   0.177   1.285  12.338 -1.1696 -1.7001 -0.7354
12513TIP3   OH258953   3.077   4.761  15.494 -0.4619  0.3782 -0.3122
12513TIP3    H158954   3.105   4.827  15.430 -1.2902  0.2717 -0.7915
12513TIP3    H258955   2.994   4.794  15.528  0.0491  0.5115  0.8433
12514TIP3   OH258956   6.618   0.817   1.900 -0.1815 -0.1635  0.4164
12514TIP3    H158957   6.692   0.833   1.841  0.5983 -2.7121  0.5718
12514TIP3    H258958   6.659   0.801   1.986 -0.9022 -1.2309  0.5823
12515TIP3   OH258959   5.804   3.675   2.744  1.1463 -0.2106 -0.0587
12515TIP3    H158960   5.719   3.661   2.786  1.5431 -0.2988  0.7353
12515TIP3    H258961   5.782   3.709   2.658  0.2169 -2.7326 -0.9266
12516TIP3   OH258962   1.951   7.066  14.972 -0.7978 -0.1853  0.7401
12516TIP3    H158963   2.044   7.059  14.949 -0.7082 -2.3104  1.5273
12516TIP3    H258964   1.907   7.085  14.889  0.3454  1.1959  0.4102
12517TIP3   OH258965   2.953   4.541   1.307  0.0496  0.0478 -0.2905
12517TIP3    H158966   2.899   4.464   1.290 -2.4370  1.5051  0.4768
12517TIP3    H258967   3.002   4.519   1.387 -0.2566 -0.9173 -0.3580
12518TIP3   OH258968   6.470   5.345  14.491 -0.0344  0.2144 -0.4168
12518TIP3    H158969   6.462   5.261  14.537 -0.4056 -0.0849 -1.0108
12518TIP3    H258970   6.482   5.409  14.561 -0.1884 -0.2784  0.0752
12519TIP3   OH258971   5.275   1.211  13.213  0.1006  0.2191 -0.3959
12519TIP3    H158972   5.181   1.217  13.228  0.2081 -0.9200  0.8772
12519TIP3    H258973   5.315   1.246  13.293  0.7350 -0.9607 -0.1735
12520TIP3   OH258974   6.375   1.136  14.344 -0.6717 -0.1273 -0.2268
12520TIP3    H158975   6.422   1.218  14.330  0.9267 -1.1653 -1.2584
12520TIP3    H258976   6.323   1.151  14.422  1.6044  1.0269  1.1712
12521TIP3   OH258977   6.301   2.719   0.754 -0.2132 -0.4647 -0.4612
12521TIP3    H158978   6.378   2.696   0.806 -0.0425  0.4901 -0.2819
12521TIP3    H258979   6.230   2.666   0.791  0.2204 -0.8835 -0.2228
12522TIP3   OH258980   5.504   3.517  13.669  0.4212  0.3759 -0.8282
12522TIP3    H158981   5.522   3.610  13.677  0.4533  0.3741 -0.8807
12522TIP3    H258982   5.562   3.487  13.599  1.9009 -0.0662  0.5108
12523TIP3   OH258983   2.808   5.065   0.367  0.0471  0.1231  0.4235
12523TIP3    H158984   2.798   5.143   0.312 -0.3160  0.4298  0.9180
12523TIP3    H258985   2.737   5.008   0.339 -1.4516  1.1325  1.9746
12524TIP3   OH258986   6.031   0.756   1.472 -0.4298 -0.2840  0.0280
12524TIP3    H158987   6.107   0.709   1.506 -1.0575 -0.3431  1.4031
12524TIP3    H258988   5.956   0.720   1.521 -1.2535  0.3171 -0.7489
12525TIP3   OH258989   5.685   6.729  14.877 -0.9139  0.3170 -0.2060
12525TIP3    H158990   5.633   6.739  14.957 -0.2810  0.5415  0.1873
12525TIP3    H258991   5.657   6.645  14.840 -0.6546 -0.1633  0.6673
12526TIP3   OH258992   5.109   0.983   5.612 -0.5630  0.2796  0.2358
12526TIP3    H158993   5.042   1.013   5.674 -0.7027  0.4699 -0.0057
12526TIP3    H258994   5.188   1.030   5.639 -0.3153 -0.5840  1.0494
12527TIP3   OH258995   3.872   0.476   4.345 -0.3840 -0.3026  0.4320
12527TIP3    H158996   3.798   0.476   4.284  0.3791 -1.6005 -0.5375
12527TIP3    H258997   3.916   0.559   4.330 -1.0515  0.0306  0.2863
12528TIP3   OH258998   1.135   0.400  10.258  0.0779 -0.8162 -0.3978
12528TIP3    H158999   1.067   0.415  10.323  0.6217  0.3292 -0.0709
12528TIP3    H259000   1.092   0.417  10.174  0.4293  2.1749 -0.1095
12529TIP3   OH259001   7.042   4.660   4.893  0.0432 -0.0468 -0.2464
12529TIP3    H159002   7.066   4.590   4.831 -0.4833 -1.3330  0.9373
12529TIP3    H259003   6.953   4.684   4.869 -1.0074 -2.0972  1.2829
12530TIP3   OH259004   2.549   3.493  13.368 -0.5764  0.0329  0.1032
12530TIP3    H159005   2.460   3.489  13.334 -0.8579  1.4211  0.5873
12530TIP3    H259006   2.604   3.467  13.294 -1.2426  1.7283 -1.0561
12531TIP3   OH259007   3.139   6.358  15.045 -0.4633 -0.1418 -0.2395
12531TIP3    H159008   3.153   6.331  15.136  0.1298  2.1440  0.4156
12531TIP3    H259009   3.217   6.327  14.999 -0.0386 -0.0130  0.3706
12532TIP3   OH259010   4.456   4.338   9.718  0.2342  0.0009  0.3391
12532TIP3    H159011   4.465   4.417   9.665 -1.8733  0.6026  0.8121
12532TIP3    H259012   4.428   4.271   9.656 -0.7530  0.3422  0.3935
12533TIP3   OH259013   6.109   6.422   5.180  0.3540 -0.1669 -0.5266
12533TIP3    H159014   6.059   6.461   5.251  1.5735 -0.2427  0.4085
12533TIP3    H259015   6.058   6.345   5.155  0.6066 -0.9788  1.2717
12534TIP3   OH259016   2.205   5.159   5.447  0.3713 -0.6850  0.1053
12534TIP3    H159017   2.147   5.204   5.509  0.0577  0.8812 -1.2644
12534TIP3    H259018   2.261   5.104   5.503  2.4562  3.1674  2.2656
12535TIP3   OH259019   6.687   2.850   3.951 -0.0565 -0.1673  0.8815
12535TIP3    H159020   6.646   2.936   3.938 -0.1085 -0.4621 -1.3304
12535TIP3    H259021   6.619   2.798   3.994 -1.3445 -0.0706 -0.9168
12536TIP3   OH259022   1.871   6.625   4.255 -0.1577  0.1889  0.4518
12536TIP3    H159023   1.905   6.617   4.344 -0.1261  0.7649  0.4973
12536TIP3    H259024   1.859   6.535   4.225  1.1063 -0.0272  0.5439
12537TIP3   OH259025   3.014   4.889   3.467  0.0419 -0.9102  0.2611
12537TIP3    H159026   3.017   4.877   3.562 -3.9372  1.7317  0.9778
12537TIP3    H259027   3.071   4.963   3.450 -0.1774 -0.6048  0.8321
12538TIP3   OH259028   5.177   2.626  12.809 -0.0745  0.7785 -0.4337
12538TIP3    H159029   5.238   2.691  12.774 -0.3644  0.7658 -0.9819
12538TIP3    H259030   5.109   2.678  12.852 -2.2438  1.1495 -3.8677
12539TIP3   OH259031   7.129   1.819  14.189  0.4702  0.2983  0.2886
12539TIP3    H159032   7.066   1.846  14.122  0.7554  1.1840  0.3647
12539TIP3    H259033   7.139   1.724  14.175 -0.8455  0.1438  0.2616
12540TIP3   OH259034   0.888   1.202   0.737  0.0794 -0.4750 -0.1080
12540TIP3    H159035   0.839   1.256   0.799  1.6180  1.0620 -0.1886
12540TIP3    H259036   0.960   1.257   0.707 -1.0362 -0.8383 -3.9543
12541TIP3   OH259037   6.800   7.025   3.267 -0.4429  0.2637  0.0307
12541TIP3    H159038   6.855   6.976   3.328  0.4378  1.0761 -0.0827
12541TIP3    H259039   6.803   6.974   3.186 -0.2622  0.0402  0.1759
12542TIP3   OH259040   6.714   6.304  14.034 -0.1504  0.4407  0.2458
12542TIP3    H159041   6.681   6.364  14.102 -1.3852  1.2031 -0.9693
12542TIP3    H259042   6.677   6.338  13.953 -0.7879 -1.9056 -0.5184
12543TIP3   OH259043   4.875   1.360  14.638 -0.0129  0.1389  0.0077
12543TIP3    H159044   4.887   1.268  14.664 -1.4577 -0.4077 -1.1341
12543TIP3    H259045   4.808   1.357  14.570 -0.2575  2.0855  0.1175
12544TIP3   OH259046   3.674   4.979   1.423 -0.3003 -0.5846  0.4627
12544TIP3    H159047   3.591   4.979   1.470 -0.0601 -1.6553  0.9078
12544TIP3    H259048   3.671   5.058   1.368 -1.5937 -0.6075  0.4881
12545TIP3   OH259049   2.040   2.895   4.194 -0.1103  0.7245  0.2973
12545TIP3    H159050   2.052   2.822   4.133 -0.4049  0.7049  0.2616
12545TIP3    H259051   2.014   2.854   4.276  0.3749  0.7442  0.4651
12546TIP3   OH259052   0.106   1.990   3.820 -0.2992 -0.0748 -0.2851
12546TIP3    H159053   0.055   1.941   3.885  1.7766 -0.6627  0.9734
12546TIP3    H259054   0.184   1.936   3.805  0.6313  1.4466 -1.1023
12547TIP3   OH259055   1.075   2.524   3.198  0.1403  0.0019 -0.1735
12547TIP3    H159056   1.002   2.536   3.138  0.6153  0.3155 -0.6948
12547TIP3    H259057   1.103   2.433   3.184 -0.8876 -0.5076  0.8790
12548TIP3   OH259058   4.439   5.505   1.242  0.4315  0.2246 -0.2003
12548TIP3    H159059   4.348   5.532   1.235  0.3321 -0.2785 -1.0894
12548TIP3    H259060   4.437   5.426   1.296 -0.0308 -1.3202 -2.3286
12549TIP3   OH259061   7.120   3.489   0.638  0.4909  0.2021  0.0844
12549TIP3    H159062   7.131   3.580   0.667 -0.4153  1.4706 -3.1145
12549TIP3    H259063   7.159   3.487   0.551 -0.0795 -2.3538 -0.1847
12550TIP3   OH259064   1.553   6.025  13.986  0.0535 -0.1346 -0.2951
12550TIP3    H159065   1.513   6.111  13.974  0.7703  0.1225 -1.0205
12550TIP3    H259066   1.552   6.010  14.080  0.8413  1.1403 -0.0630
12551TIP3   OH259067   3.627   5.694  10.495 -0.1328 -0.5628  0.5124
12551TIP3    H159068   3.652   5.671  10.585  0.7326  0.3077  0.5050
12551TIP3    H259069   3.686   5.641  10.441  0.0518 -0.3200  0.4743
12552TIP3   OH259070   2.570   3.485  15.099 -1.1164 -0.4062  0.2800
12552TIP3    H159071   2.637   3.476  15.167 -0.3700 -1.0420 -0.5104
12552TIP3    H259072   2.584   3.574  15.064 -1.3590 -0.1604  0.8035
12553TIP3   OH259073   5.015   6.758   5.322 -0.0481 -0.5466  0.1452
12553TIP3    H159074   4.973   6.780   5.405  0.3572 -1.2386  0.5407
12553TIP3    H259075   5.085   6.823   5.312 -1.5693  1.0688 -0.8597
12554TIP3   OH259076   5.962   0.418   3.512 -0.1912  0.1429  0.2547
12554TIP3    H159077   6.009   0.437   3.431  1.2175  1.2128  1.2767
12554TIP3    H259078   5.876   0.386   3.483  0.6386 -0.4909 -1.6535
12555TIP3   OH259079   5.606   2.850   9.719  0.4646  0.0950 -0.8431
12555TIP3    H159080   5.679   2.831   9.777  0.9696 -0.4450 -1.6412
12555TIP3    H259081   5.642   2.841   9.631 -0.3457  0.6693 -1.2516
12556TIP3   OH259082   1.356   0.558   0.723  0.2445  0.7215 -0.0934
12556TIP3    H159083   1.300   0.547   0.800  0.8271  1.2966  0.4169
12556TIP3    H259084   1.349   0.651   0.701 -1.1183  0.2998 -1.6707
12557TIP3   OH259085   3.257   0.979  12.947  0.1577 -0.1276  0.0355
12557TIP3    H159086   3.329   1.040  12.961 -0.6061  0.5446  1.2321
12557TIP3    H259087   3.226   0.958  13.035  0.0392 -1.8321 -0.3718
12558TIP3   OH259088   0.847   2.703   3.126 -0.1271 -0.0354 -0.8925
12558TIP3    H159089   0.844   2.683   3.220  1.9096 -0.2200 -0.8322
12558TIP3    H259090   0.916   2.769   3.118 -0.7273  0.4701 -2.1929
12559TIP3   OH259091   3.460   2.497  12.395  0.2469  0.2369 -0.3350
12559TIP3    H159092   3.366   2.481  12.386 -0.6258  3.1143  2.0431
12559TIP3    H259093   3.496   2.414  12.426 -1.9881 -0.2785  1.1035
12560TIP3   OH259094   2.111   6.839  13.669  0.1724  0.6169  0.4331
12560TIP3    H159095   2.175   6.795  13.612  0.2166  0.9298  0.2392
12560TIP3    H259096   2.028   6.826  13.624 -0.6093 -3.1579  2.5351
12561TIP3   OH259097   4.489   4.772  10.339  0.1788 -0.4787  0.6430
12561TIP3    H159098   4.582   4.794  10.333 -0.2569  1.0774 -3.1008
12561TIP3    H259099   4.444   4.856  10.345 -1.0405 -0.8024 -2.1262
12562TIP3   OH259100   1.922   3.258   2.109 -0.0402  0.0498 -0.0105
12562TIP3    H159101   2.000   3.297   2.070  0.3864 -0.7198  0.0544
12562TIP3    H259102   1.907   3.309   2.188 -0.1353  0.7771 -0.4907
12563TIP3   OH259103   4.024   2.036  13.392 -0.0233 -0.2135  0.0692
12563TIP3    H159104   3.996   1.961  13.339 -1.6305  0.2345  0.2190
12563TIP3    H259105   3.970   2.109  13.360 -1.9095 -0.1594  3.0104
12564TIP3   OH259106   5.111   6.924  13.793  0.0695 -0.3212  0.4398
12564TIP3    H159107   5.041   6.897  13.851 -2.1299  0.9232 -1.4523
12564TIP3    H259108   5.120   7.018  13.808  0.5370 -0.2661 -0.1239
12565TIP3   OH259109   4.586   4.937   4.897 -0.6806  0.3131  0.0465
12565TIP3    H159110   4.627   4.858   4.934 -0.3921  0.1484 -0.6128
12565TIP3    H259111   4.536   4.904   4.822 -1.0465  0.6808  0.1280
12566TIP3   OH259112   2.481   0.104  14.102 -0.0101  0.1104 -0.0859
12566TIP3    H159113   2.435   0.130  14.022  1.1230  1.5028 -0.3420
12566TIP3    H259114   2.513   0.016  14.084 -0.9859 -0.1533 -0.6027
12567TIP3   OH259115   0.756   4.028   3.814  0.0693 -0.3611  0.2066
12567TIP3    H159116   0.739   4.121   3.797  2.0895 -0.2416 -1.6506
12567TIP3    H259117   0.748   4.019   3.909 -0.3465  1.6806  0.4145
12568TIP3   OH259118   1.731   4.005   0.319  0.1051  0.0610 -0.8488
12568TIP3    H159119   1.635   4.012   0.312  0.1466  0.2931 -1.2129
12568TIP3    H259120   1.752   3.921   0.279 -0.0817 -0.7107  0.5877
12569TIP3   OH259121   4.725   3.075   5.087 -0.0183 -0.1810  0.1386
12569TIP3    H159122   4.668   3.106   5.157  1.3788  0.6845  0.9424
12569TIP3    H259123   4.783   3.150   5.069  1.4032 -1.2788 -0.0364
12570TIP3   OH259124   1.634   1.902  14.155  0.2432  0.4571  0.0111
12570TIP3    H159125   1.576   1.825  14.155  2.9971 -1.7827  0.8644
12570TIP3    H259126   1.630   1.934  14.065 -1.7929  0.0380 -0.1047
12571TIP3   OH259127   0.717   5.008  14.393  0.0911  0.3555  0.6043
12571TIP3    H159128   0.701   5.096  14.359 -0.4541  0.0726  0.1003
12571TIP3    H259129   0.812   5.003  14.405  0.0765  1.1724  1.1072
12572TIP3   OH259130   0.574   1.626   0.083 -0.3600 -0.3759 -0.1998
12572TIP3    H159131   0.634   1.561   0.047  0.0336  0.0618 -0.3459
12572TIP3    H259132   0.508   1.639   0.015  0.2920  0.3319 -0.7135
12573TIP3   OH259133   0.898   3.459  14.038 -0.6328  0.5607  0.4670
12573TIP3    H159134   0.856   3.389  14.088 -0.8446  0.4274  0.1106
12573TIP3    H259135   0.968   3.490  14.095 -2.0397  1.7006  1.6422
12574TIP3   OH259136   5.914   6.882  15.213  0.4998  0.0500 -0.1936
12574TIP3    H159137   5.878   6.823  15.280 -1.3121  1.0033 -0.2622
12574TIP3    H259138   5.838   6.906  15.160  1.8209 -0.3241 -2.3429
12575TIP3   OH259139   6.940   5.116   4.736  0.0270 -0.3711 -0.3056
12575TIP3    H159140   7.007   5.100   4.803  0.4759 -3.0894 -1.2883
12575TIP3    H259141   6.978   5.183   4.679 -0.4043  2.0746  2.0965
12576TIP3   OH259142   0.971   0.048   1.939  0.3978  0.4038 -0.3440
12576TIP3    H159143   0.888   0.092   1.956  0.7311  0.8323  0.2349
12576TIP3    H259144   1.034   0.119   1.930  0.7569  0.0738 -0.4577
12577TIP3   OH259145   3.394   0.140  15.273  0.8490  0.3160  0.4181
12577TIP3    H159146   3.470   0.135  15.214  1.8354  0.5728  1.6110
12577TIP3    H259147   3.431   0.169  15.356 -0.2381 -1.5851  1.6280
12578TIP3   OH259148   2.739   3.955   4.778 -0.2237  0.3014  0.2089
12578TIP3    H159149   2.774   3.939   4.691  1.0121 -1.2095  0.9134
12578TIP3    H259150   2.769   3.879   4.829  0.8079  2.0940  2.4278
12579TIP3   OH259151   6.407   1.855   4.206 -0.1493 -0.0200 -0.1971
12579TIP3    H159152   6.500   1.874   4.192 -0.4506  3.1763  1.3079
12579TIP3    H259153   6.407   1.787   4.274  1.0222 -1.1157 -1.2245
12580TIP3   OH259154   4.758   2.854  13.861  0.5360 -0.1467 -0.4958
12580TIP3    H159155   4.812   2.816  13.930  2.0047  2.3551 -0.1244
12580TIP3    H259156   4.679   2.885  13.905  0.8558  0.2224 -0.1746
12581TIP3   OH259157   6.450   4.671  10.847  0.1034 -0.1494  0.6127
12581TIP3    H159158   6.401   4.622  10.782 -1.3141  1.7768  0.1285
12581TIP3    H259159   6.541   4.648  10.832 -0.1096  0.5579 -2.3957
12582TIP3   OH259160   6.927   5.204   3.208  0.3391 -0.1041 -0.0154
12582TIP3    H159161   6.857   5.145   3.237 -0.5707  0.8292 -0.2640
12582TIP3    H259162   6.887   5.291   3.208  1.8239  0.6305  0.9359
12583TIP3   OH259163   6.749   5.244   1.262  0.1356 -0.2563 -0.1703
12583TIP3    H159164   6.792   5.221   1.344  0.7882 -0.1452 -0.4820
12583TIP3    H259165   6.682   5.176   1.252 -1.1007  0.6622  1.2935
12584TIP3   OH259166   2.739   4.247  10.592 -0.0269  0.2961 -0.0706
12584TIP3    H159167   2.787   4.192  10.529  1.0167 -0.8553  1.6314
12584TIP3    H259168   2.723   4.329  10.545  1.3121 -0.2556 -1.5987
12585TIP3   OH259169   6.650   4.635  13.060  0.0260  0.0611 -0.0635
12585TIP3    H159170   6.595   4.690  13.004 -0.7202  0.2107  0.8061
12585TIP3    H259171   6.643   4.547  13.023  0.9862  0.4585 -1.2866
12586TIP3   OH259172   2.850   2.424  10.158  0.1554  0.2663 -0.4118
12586TIP3    H159173   2.797   2.501  10.178 -0.0400  0.3121 -1.0945
12586TIP3    H259174   2.823   2.358  10.223 -1.0058  0.1620 -0.9726
12587TIP3   OH259175   4.306   6.904   0.985  0.0225 -0.0622 -0.0708
12587TIP3    H159176   4.312   6.817   0.945 -1.2561  0.2292 -0.9778
12587TIP3    H259177   4.213   6.914   1.008  0.3340  0.6757  0.9420
12588TIP3   OH259178   1.966   5.693   0.335 -0.0802 -0.0400  0.4988
12588TIP3    H159179   1.999   5.711   0.246 -0.0726 -0.4828  0.4122
12588TIP3    H259180   1.871   5.687   0.324 -0.4048  2.7755  0.9957
12589TIP3   OH259181   1.254   1.291   0.495  0.5117  0.0677  0.0133
12589TIP3    H159182   1.183   1.323   0.439  0.2727  0.2882  0.4381
12589TIP3    H259183   1.323   1.358   0.486  0.3399  0.2768  0.2488
12590TIP3   OH259184   6.305   5.295  15.299 -0.0589  0.0003  0.4243
12590TIP3    H159185   6.259   5.316  15.218  0.6817  0.3003  0.0796
12590TIP3    H259186   6.396   5.283  15.274  0.2165  0.2896  1.2407
12591TIP3   OH259187   0.954   0.645  14.218  0.0829  0.3452  0.0176
12591TIP3    H159188   0.879   0.665  14.275 -1.5729 -0.2845 -1.8311
12591TIP3    H259189   0.966   0.551  14.225  1.1087  0.5083  0.7243
12592TIP3   OH259190   0.585   3.620   1.633  0.2365 -0.7992  0.0697
12592TIP3    H159191   0.601   3.666   1.551 -0.0388 -3.5835 -1.6739
12592TIP3    H259192   0.498   3.648   1.660  0.6603  0.7684 -0.0737
12593TIP3   OH259193   5.729   3.851   2.205  0.3789  0.3099  0.7520
12593TIP3    H159194   5.764   3.821   2.121 -1.9562 -1.0477  0.1701
12593TIP3    H259195   5.654   3.904   2.182 -1.1658 -1.2458  1.9504
12594TIP3   OH259196   5.215   6.711   0.542  0.0510  0.2894  0.0568
12594TIP3    H159197   5.265   6.650   0.488  2.0755  1.3268  0.6307
12594TIP3    H259198   5.272   6.728   0.617 -2.3161 -0.4636  2.1612
12595TIP3   OH259199   7.019   4.041   9.806  0.0531 -0.7196  0.1790
12595TIP3    H159200   7.020   4.121   9.753  1.8164 -2.1667 -2.2016
12595TIP3    H259201   7.088   4.054   9.871 -1.0688  0.4528  1.1962
12596TIP3   OH259202   0.558   5.583   3.211  0.5882 -0.3994  0.2069
12596TIP3    H159203   0.485   5.621   3.161  0.8572  1.1409  0.9326
12596TIP3    H259204   0.518   5.547   3.290  0.5273 -0.2155  0.2591
12597TIP3   OH259205   2.623   4.765   5.144 -0.1047  0.5533  0.0881
12597TIP3    H159206   2.572   4.822   5.200  0.7996  1.8142 -0.3157
12597TIP3    H259207   2.628   4.682   5.191 -0.8410  1.0335  1.0330
12598TIP3   OH259208   4.524   7.015   0.195  0.4050  0.1889  0.3742
12598TIP3    H159209   4.609   7.011   0.151  3.1056 -0.3979  5.0038
12598TIP3    H259210   4.480   6.934   0.167  0.4503  1.2473 -3.3446
12599TIP3   OH259211   6.376   6.683   1.536 -0.0095  0.1141  0.4021
12599TIP3    H159212   6.450   6.727   1.578 -0.3675 -0.5488  1.7501
12599TIP3    H259213   6.405   6.593   1.522 -0.8388 -0.3800  1.7180
12600TIP3   OH259214   0.400   6.701   0.373  0.0911  0.1034  0.7758
12600TIP3    H159215   0.480   6.752   0.361 -1.0058  1.6719 -0.1247
12600TIP3    H259216   0.412   6.658   0.458  2.0499 -0.0329  0.4863
12601TIP3   OH259217   0.788   3.228   0.475 -0.0520 -0.6533 -0.3160
12601TIP3    H159218   0.749   3.241   0.561 -0.8958 -0.8586 -0.6564
12601TIP3    H259219   0.877   3.263   0.483 -0.7865  1.2408  0.0508
12602TIP3   OH259220   0.682   2.054   9.738 -0.1125  0.6283  0.0433
12602TIP3    H159221   0.602   2.103   9.717  0.3544  1.2572 -0.2962
12602TIP3    H259222   0.743   2.075   9.667 -0.1107 -0.9836 -0.4859
12603TIP3   OH259223   6.833   6.350  15.139  0.0036  0.0011 -0.0809
12603TIP3    H159224   6.914   6.298  15.147  0.1580  0.3549  0.7771
12603TIP3    H259225   6.842   6.395  15.055 -0.9406 -2.6959 -1.7855
12604TIP3   OH259226   3.210   3.704   0.817  0.1161  0.0783 -0.5298
12604TIP3    H159227   3.244   3.781   0.772 -0.7911  0.4359 -0.6181
12604TIP3    H259228   3.202   3.638   0.749  0.5657  0.0105 -0.5196
12605TIP3   OH259229   3.502   3.151   0.213  0.4128  0.2034 -0.0147
12605TIP3    H159230   3.546   3.189   0.137  1.2003 -0.2816  0.1814
12605TIP3    H259231   3.448   3.222   0.248  0.5344  0.6164 -0.6537
12606TIP3   OH259232   6.421   4.987   4.917  0.3992  0.9042 -0.5605
12606TIP3    H159233   6.502   4.955   4.958  0.8120  2.8580  0.2769
12606TIP3    H259234   6.387   4.911   4.869  0.5751 -1.1700  2.3152
12607TIP3   OH259235   3.622   5.122   5.036  0.3937 -0.5647 -0.4056
12607TIP3    H159236   3.601   5.099   4.946 -1.2479 -0.1713 -0.1674
12607TIP3    H259237   3.712   5.153   5.033  0.3003 -0.3693 -1.9532
12608TIP3   OH259238   4.265   3.135   1.798 -0.0940  0.1893  0.1609
12608TIP3    H159239   4.356   3.105   1.799 -0.0375  0.3331 -0.3686
12608TIP3    H259240   4.270   3.230   1.787 -0.3163  0.0567 -1.3677
12609TIP3   OH259241   4.865   4.406   0.906  0.0449  0.1939 -0.1065
12609TIP3    H159242   4.912   4.487   0.885 -0.2419  1.1003  2.4039
12609TIP3    H259243   4.777   4.420   0.870 -0.5168  1.7887  1.7136
12610TIP3   OH259244   7.099   4.581  14.262  0.6670  0.1007 -0.5229
12610TIP3    H159245   7.167   4.644  14.288  1.5950 -0.2347 -2.0270
12610TIP3    H259246   7.125   4.552  14.175 -0.0889 -1.8900 -0.1389
12611TIP3   OH259247   4.001   1.637  10.349  0.0426  0.1697  0.2834
12611TIP3    H159248   4.083   1.666  10.309 -0.0351  1.2728  0.8714
12611TIP3    H259249   3.944   1.616  10.276  0.9863 -1.0576 -0.1376
12612TIP3   OH259250   5.382   0.973  12.281  0.2037 -0.0825  0.0475
12612TIP3    H159251   5.349   0.970  12.371 -1.3977 -0.7635 -0.5041
12612TIP3    H259252   5.451   1.039  12.282  2.2450 -2.0420  2.3812
12613TIP3   OH259253   3.104   5.182   2.072  0.0601  0.0101 -0.3154
12613TIP3    H159254   3.189   5.140   2.081  0.2406  0.4899  0.3497
12613TIP3    H259255   3.118   5.272   2.103 -0.7915 -0.0331  0.2411
12614TIP3   OH259256   6.481   2.100  14.420 -0.0593 -0.1920  0.0230
12614TIP3    H159257   6.469   2.030  14.485 -0.6560  0.0589  0.1889
12614TIP3    H259258   6.487   2.180  14.472 -2.1754  0.2178 -0.2721
12615TIP3   OH259259   1.841   4.830   4.984 -0.3332 -0.1457  0.0319
12615TIP3    H159260   1.790   4.749   4.976 -0.8912  0.1977  0.0676
12615TIP3    H259261   1.810   4.870   5.065  0.5907 -0.3346  0.4953
12616TIP3   OH259262   6.165   0.999  15.366 -0.5951  0.1060  0.1730
12616TIP3    H159263   6.206   0.921  15.328 -0.1713  0.5442 -0.2946
12616TIP3    H259264   6.074   0.974  15.380 -0.2339 -0.8068  1.0045
12617TIP3   OH259265   4.896   0.575   0.712 -0.3067  0.1143 -0.6479
12617TIP3    H159266   4.882   0.596   0.804  2.2965 -0.5003 -0.0423
12617TIP3    H259267   4.812   0.541   0.682 -0.7843 -1.2003  1.9427
12618TIP3   OH259268   4.650   6.246   3.625  0.4408  0.3128 -0.3678
12618TIP3    H159269   4.669   6.224   3.533  1.2255 -3.1763  0.4679
12618TIP3    H259270   4.723   6.301   3.652  1.3199 -0.3393 -1.3225
12619TIP3   OH259271   0.343   7.151   4.392  0.0485 -0.3012  0.1806
12619TIP3    H159272   0.374   7.079   4.447 -0.6636 -0.5043  0.3263
12619TIP3    H259273   0.250   7.159   4.413  0.1659  0.8315  0.3546
12620TIP3   OH259274   3.627   2.002  14.705 -0.3406  0.5068  0.0084
12620TIP3    H159275   3.716   2.031  14.723  0.0031 -0.9474  0.7751
12620TIP3    H259276   3.588   1.988  14.791 -0.4480 -1.3112 -0.2878
12621TIP3   OH259277   4.030   3.488  12.080  0.1890  0.0291 -0.4371
12621TIP3    H159278   3.978   3.444  12.013 -1.1081 -0.5564  0.8964
12621TIP3    H259279   3.984   3.470  12.162  1.6017  0.9007  0.5993
12622TIP3   OH259280   2.497   6.893   4.206 -0.3367  0.0189 -0.4326
12622TIP3    H159281   2.474   6.971   4.256  1.4482  0.6095 -0.4508
12622TIP3    H259282   2.592   6.888   4.213 -0.2446 -1.1042 -1.9923
12623TIP3   OH259283   3.230   0.957   2.480 -0.2152 -0.0451  0.0848
12623TIP3    H159284   3.311   0.993   2.516 -0.5054  2.8372 -1.8330
12623TIP3    H259285   3.253   0.868   2.453  1.3859 -0.4157  2.3835
12624TIP3   OH259286   4.052   4.851  12.804  0.3617 -0.0875  0.1309
12624TIP3    H159287   4.077   4.868  12.713  2.1000  0.3818  0.6607
12624TIP3    H259288   4.046   4.937  12.844 -1.5972 -0.2114  0.2171
12625TIP3   OH259289   3.206   6.541   2.298 -0.0273 -0.5098 -0.5469
12625TIP3    H159290   3.204   6.579   2.385  0.5730 -2.5945  0.4478
12625TIP3    H259291   3.205   6.616   2.238  1.0892  1.0099  1.2505
12626TIP3   OH259292   0.345   1.320  11.777  0.0006 -0.4896 -0.0220
12626TIP3    H159293   0.274   1.385  11.767  0.7085 -0.0092 -2.5364
12626TIP3    H259294   0.417   1.370  11.814 -0.1453 -0.3811  0.1221
12627TIP3   OH259295   2.577   0.499  14.974  0.0076 -0.0353  0.1291
12627TIP3    H159296   2.669   0.509  14.998 -0.3369  0.5606  1.2989
12627TIP3    H259297   2.577   0.498  14.878  1.2318 -0.1700  0.1128
12628TIP3   OH259298   1.977   6.477  14.884  0.3753  0.2255  0.0296
12628TIP3    H159299   1.885   6.486  14.860  0.2969 -0.7377 -0.0881
12628TIP3    H259300   1.998   6.385  14.865  1.8187  0.8326 -1.4662
12629TIP3   OH259301   2.605   4.057  15.339  0.5904 -0.3538 -0.0075
12629TIP3    H159302   2.518   4.018  15.329  0.8004 -0.7969 -0.1008
12629TIP3    H259303   2.591   4.150  15.318 -0.1803 -0.0763  1.5738
12630TIP3   OH259304   4.198   0.321  13.650  0.2333  0.5204 -0.8222
12630TIP3    H159305   4.185   0.322  13.745 -1.9234 -1.3319 -1.0123
12630TIP3    H259306   4.293   0.325  13.638  0.5284  1.0920  1.3819
12631TIP3   OH259307   6.378   0.385   3.152 -0.3800 -0.4535  0.2483
12631TIP3    H159308   6.433   0.462   3.137 -0.6141 -0.5535 -1.2977
12631TIP3    H259309   6.416   0.343   3.229 -0.3158  1.2553  1.2183
12632TIP3   OH259310   2.958   0.018   0.413  0.6149 -0.4865  0.0288
12632TIP3    H159311   2.945  -0.056   0.353  0.7323 -1.6571  1.3957
12632TIP3    H259312   2.929   0.094   0.363  2.2969 -1.1633 -2.1353
12633TIP3   OH259313   2.815   3.538   3.570  0.2386 -0.4284 -0.0592
12633TIP3    H159314   2.891   3.596   3.573  1.2661 -1.7081 -0.4332
12633TIP3    H259315   2.835   3.477   3.499 -0.3231 -1.8729  0.9912
12634TIP3   OH259316   0.493   6.390   0.602 -0.4313 -0.2001 -0.3626
12634TIP3    H159317   0.434   6.464   0.593 -1.6352 -1.1112 -0.2264
12634TIP3    H259318   0.547   6.411   0.678 -1.6789 -0.0579  0.5125
12635TIP3   OH259319   3.676   5.164   1.218 -0.1324  0.4695  0.1230
12635TIP3    H159320   3.737   5.202   1.155 -0.1288  2.4378  1.2485
12635TIP3    H259321   3.604   5.227   1.222  0.0408  0.5699  2.3451
12636TIP3   OH259322   7.001   5.328   3.768  0.2400  0.5284  0.7640
12636TIP3    H159323   7.039   5.395   3.711  1.0319 -0.3400  0.2301
12636TIP3    H259324   6.955   5.269   3.708 -1.1910  1.0493  1.3143
12637TIP3   OH259325   4.071   2.674   3.156  0.5629  0.5591 -0.1975
12637TIP3    H159326   4.160   2.710   3.156  0.9977 -0.4488  1.1343
12637TIP3    H259327   4.052   2.657   3.064  1.7376  0.8333 -0.5033
12638TIP3   OH259328   1.074   1.116  11.749  0.0323  0.1360  0.3282
12638TIP3    H159329   1.018   1.164  11.810 -0.1147 -0.3049  0.5379
12638TIP3    H259330   1.154   1.169  11.743  0.4203 -0.2851  1.6075
12639TIP3   OH259331   4.444   5.148  11.210 -0.2309 -0.7845  0.0575
12639TIP3    H159332   4.361   5.194  11.225  0.3342  0.5712 -0.7969
12639TIP3    H259333   4.510   5.203  11.253  0.3826 -1.1473 -0.4035
12640TIP3   OH259334   1.550   6.539   0.541  0.0353  0.4223 -0.1426
12640TIP3    H159335   1.613   6.502   0.602  0.1520  0.1472 -0.4317
12640TIP3    H259336   1.594   6.538   0.456 -0.2866  0.3988 -0.3135
12641TIP3   OH259337   2.595   0.310   3.711 -0.6122  0.4457  0.6038
12641TIP3    H159338   2.637   0.377   3.657  0.1230 -0.2154  0.3353
12641TIP3    H259339   2.607   0.341   3.801 -2.3526  1.8411  0.4002
12642TIP3   OH259340   0.419   7.063   4.115 -0.0294 -0.2123 -0.0629
12642TIP3    H159341   0.437   7.104   4.200 -1.2552 -0.9002  0.5653
12642TIP3    H259342   0.487   6.996   4.105  0.1337 -0.1160  0.3687
12643TIP3   OH259343   3.752   0.104  14.797 -0.2483  0.2589  0.0965
12643TIP3    H159344   3.778   0.012  14.800  0.2843  0.4188  0.7565
12643TIP3    H259345   3.657   0.103  14.795 -0.2514 -0.3568 -2.4927
12644TIP3   OH259346   0.764   3.378   3.978  0.5987 -0.4968  0.0147
12644TIP3    H159347   0.815   3.336   4.048 -1.5447 -0.3389  1.7967
12644TIP3    H259348   0.731   3.305   3.925  0.1746 -0.8309  0.7170
12645TIP3   OH259349   6.270   3.619  12.687 -0.0325 -0.7178 -0.3565
12645TIP3    H159350   6.310   3.692  12.733  1.2802 -0.7897 -1.3033
12645TIP3    H259351   6.287   3.543  12.743 -0.4540 -0.4746  0.1101
12646TIP3   OH259352   0.026   4.669   3.950  0.3718  0.1207  0.0774
12646TIP3    H159353   0.086   4.610   3.904 -0.5118 -1.9163  1.3810
12646TIP3    H259354   0.062   4.678   4.038 -0.4743  0.0054  0.4480
12647TIP3   OH259355   5.535   2.936   3.783 -0.4290 -0.1264  0.4471
12647TIP3    H159356   5.479   3.000   3.827 -1.5057 -1.0273  0.4321
12647TIP3    H259357   5.586   2.896   3.853 -3.5966 -3.0438  1.3770
12648TIP3   OH259358   4.309   1.595   5.152  0.0382  0.0305 -0.3300
12648TIP3    H159359   4.395   1.580   5.113  0.7249  1.8396  0.3393
12648TIP3    H259360   4.325   1.598   5.247 -0.7766  0.2458 -0.1841
12649TIP3   OH259361   1.381   5.131   3.154  0.2431 -0.0420 -0.3261
12649TIP3    H159362   1.381   5.227   3.149  3.2522  0.0392 -0.9023
12649TIP3    H259363   1.411   5.104   3.067  0.0761 -1.5011  0.0585
12650TIP3   OH259364   5.858   1.117   2.191  0.1145  0.3841 -0.6384
12650TIP3    H159365   5.814   1.089   2.111  0.3325 -1.5519 -0.1219
12650TIP3    H259366   5.789   1.161   2.242 -1.2975 -2.4024  0.0673
12651TIP3   OH259367   4.743   6.678  13.885  0.4406 -0.1946 -0.0953
12651TIP3    H159368   4.763   6.771  13.899  2.7404 -0.7294  0.6529
12651TIP3    H259369   4.670   6.678  13.823  0.4312  2.0972 -0.1734
12652TIP3   OH259370   2.824   0.701  10.584  0.7274  0.0464  0.3254
12652TIP3    H159371   2.841   0.655  10.666  0.9086 -1.4459 -0.5090
12652TIP3    H259372   2.730   0.691  10.568  0.9242 -0.9061 -0.3323
12653TIP3   OH259373   2.027   1.774   9.731  0.3024  0.8315  0.3109
12653TIP3    H159374   1.975   1.846   9.767 -2.3880 -0.7727 -0.1009
12653TIP3    H259375   1.966   1.701   9.723  2.3201 -0.8143 -1.5562
12654TIP3   OH259376   2.708   7.044   2.703 -0.7805 -0.0234 -0.5200
12654TIP3    H159377   2.786   7.048   2.759 -1.0934 -1.0371  0.0144
12654TIP3    H259378   2.736   6.995   2.626 -1.1827 -1.4484  0.2113
12655TIP3   OH259379   1.368   6.127  11.304 -0.0348  0.2744  0.3724
12655TIP3    H159380   1.432   6.150  11.372 -0.0278 -2.2019  1.2909
12655TIP3    H259381   1.295   6.188  11.318  0.1395  0.0852  2.3556
12656TIP3   OH259382   6.180   0.252   3.011  0.4445  0.2990 -0.3259
12656TIP3    H159383   6.241   0.297   3.070 -0.2783  2.1266 -0.9065
12656TIP3    H259384   6.198   0.159   3.025  1.0868  0.6864  1.9173
12657TIP3   OH259385   5.363   7.008   1.874  0.3051  0.2929 -0.1199
12657TIP3    H159386   5.340   7.097   1.899  0.5716  0.3550 -0.0982
12657TIP3    H259387   5.455   7.013   1.848  0.2037  0.1097 -0.5295
12658TIP3   OH259388   4.802   6.430   4.257  0.2047 -0.3743 -0.1034
12658TIP3    H159389   4.793   6.337   4.277 -1.2109 -0.0303  1.0655
12658TIP3    H259390   4.893   6.440   4.228  0.7140 -1.9094  0.8426
12659TIP3   OH259391   3.945   0.231  13.929  0.5224  0.7868 -0.2824
12659TIP3    H159392   3.986   0.147  13.908  0.1695  0.5025  0.1650
12659TIP3    H259393   3.870   0.209  13.983  0.0241  1.3422 -0.7304
12660TIP3   OH259394   1.710   5.299   0.042  0.1009 -0.2687  0.0406
12660TIP3    H159395   1.747   5.217   0.074 -1.1446 -1.1945 -0.8023
12660TIP3    H259396   1.622   5.276   0.013 -0.1469  1.2925 -0.5467
12661TIP3   OH259397   4.939   5.522   2.549 -0.1398  0.3261 -0.6928
12661TIP3    H159398   4.953   5.528   2.644  0.6458 -0.5052 -0.7479
12661TIP3    H259399   4.889   5.442   2.536  3.1598 -1.8470 -1.2574
12662TIP3   OH259400   1.703   1.706   4.516  1.2087 -0.4739 -0.1151
12662TIP3    H159401   1.648   1.694   4.438 -0.2382 -0.9460  0.9168
12662TIP3    H259402   1.655   1.770   4.569  1.3408 -1.3379  1.0879
12663TIP3   OH259403   6.850   4.479   6.061  0.0411  0.3768 -0.4543
12663TIP3    H159404   6.889   4.418   6.123  0.9782  2.6387  1.3354
12663TIP3    H259405   6.923   4.511   6.008 -0.3424  0.3835 -0.9966
12664TIP3   OH259406   6.684   3.315   2.783  0.5803 -0.3054  0.4519
12664TIP3    H159407   6.713   3.224   2.779 -0.4054 -0.5800 -1.2022
12664TIP3    H259408   6.725   3.357   2.708  0.5393  0.4901  0.8525
12665TIP3   OH259409   7.142   2.440  10.178 -0.2094  0.3651  0.2132
12665TIP3    H159410   7.135   2.383  10.101 -0.8390  0.3680  0.2599
12665TIP3    H259411   7.218   2.407  10.225 -0.9677 -0.9147  0.6022
12666TIP3   OH259412   2.750   2.527   5.078 -0.0433 -0.6466  0.2206
12666TIP3    H159413   2.807   2.563   5.010  1.6382 -3.0450  0.2334
12666TIP3    H259414   2.788   2.558   5.160  0.6339 -1.4083  0.1965
12667TIP3   OH259415   0.489   2.260   2.931  0.0072 -0.6338  0.5328
12667TIP3    H159416   0.573   2.215   2.919 -0.5594 -1.3141 -1.2234
12667TIP3    H259417   0.457   2.273   2.842 -1.2727  0.5573  1.1433
12668TIP3   OH259418   0.285   2.452   1.148  0.5151 -0.1318  0.3655
12668TIP3    H159419   0.301   2.358   1.151  1.1931 -0.0069  0.9374
12668TIP3    H259420   0.295   2.475   1.055 -0.7116 -0.7822  0.0455
12669TIP3   OH259421   2.312   2.371  13.006 -0.0846 -0.8643 -0.3766
12669TIP3    H159422   2.357   2.289  12.987 -0.7329 -0.6464 -3.2988
12669TIP3    H259423   2.220   2.353  12.990 -0.5054 -0.0781  0.9868
12670TIP3   OH259424   6.370   4.493   9.974 -0.3921  0.2330 -0.1192
12670TIP3    H159425   6.322   4.416  10.004 -0.6093  1.0562  1.8098
12670TIP3    H259426   6.449   4.458   9.934  0.9091 -1.0312  3.2026
12671TIP3   OH259427   6.654   3.763  11.886 -0.6377  0.9777  0.2446
12671TIP3    H159428   6.679   3.853  11.907 -1.6670  1.4771 -0.6289
12671TIP3    H259429   6.632   3.765  11.793 -0.1808 -0.2980  0.0930
12672TIP3   OH259430   5.819   1.071   1.932  0.5737 -0.2515  0.5810
12672TIP3    H159431   5.755   1.129   1.890  0.3613  0.9620  2.4495
12672TIP3    H259432   5.876   1.043   1.860  0.1654  1.6143 -0.5642
12673TIP3   OH259433   0.398   2.220   5.782  0.7989  0.0866 -0.3334
12673TIP3    H159434   0.482   2.229   5.737  1.0863  2.5242  0.5624
12673TIP3    H259435   0.415   2.157   5.852  1.2661 -1.0535 -1.4141
12674TIP3   OH259436   0.856   6.626  13.271  0.3023 -0.6453  0.2053
12674TIP3    H159437   0.932   6.632  13.213 -0.4627 -0.6626 -0.8246
12674TIP3    H259438   0.893   6.635  13.359  1.6673 -1.9903 -0.1779
12675TIP3   OH259439   6.512   6.353   0.567  0.2454 -0.2104 -0.5590
12675TIP3    H159440   6.438   6.292   0.565  0.5389 -0.7538  1.8250
12675TIP3    H259441   6.589   6.297   0.572  0.7869  0.3678 -1.8390
12676TIP3   OH259442   6.449   1.435   5.308 -0.2390 -0.0881  0.2307
12676TIP3    H159443   6.405   1.458   5.390 -1.8494  1.4194 -0.9847
12676TIP3    H259444   6.454   1.518   5.260  1.6141 -0.7447 -0.7821
12677TIP3   OH259445   0.167   6.621  10.909 -0.2586  0.1474 -0.1762
12677TIP3    H159446   0.136   6.628  10.999  1.9253  0.0731  0.6512
12677TIP3    H259447   0.143   6.532  10.882 -0.0748 -0.1762  0.6989
12678TIP3   OH259448   3.603   1.014   5.129  0.0546  0.0084 -0.0895
12678TIP3    H159449   3.569   0.945   5.072  1.0383  0.7911 -1.6935
12678TIP3    H259450   3.542   1.087   5.117  1.6127  1.0740 -2.2243
12679TIP3   OH259451   3.475   4.012  14.199 -0.4497 -0.1480 -1.0667
12679TIP3    H159452   3.538   4.030  14.269 -0.5585 -0.3892 -0.9048
12679TIP3    H259453   3.436   4.097  14.179 -1.5471 -0.3134  0.2452
12680TIP3   OH259454   1.072   0.762   0.776  0.5032 -0.1369 -0.8152
12680TIP3    H159455   1.082   0.671   0.802 -0.8266  0.1035  0.6912
12680TIP3    H259456   1.147   0.807   0.815 -0.1529 -0.2001  0.5732
12681TIP3   OH259457   5.256   0.121  14.373  0.4857 -0.2880  0.3258
12681TIP3    H159458   5.224   0.171  14.297  1.0981 -0.2320  0.1006
12681TIP3    H259459   5.177   0.101  14.423  0.2491  1.2073  0.6179
12682TIP3   OH259460   6.500   0.191   3.553  0.3332  0.4263 -0.3110
12682TIP3    H159461   6.570   0.239   3.598  1.1164  0.6981 -1.7508
12682TIP3    H259462   6.533   0.179   3.464 -0.1924 -2.0423 -0.2448
12683TIP3   OH259463   2.374   6.306  10.245 -0.7508 -0.0487 -0.7643
12683TIP3    H159464   2.411   6.264  10.323 -0.7934 -0.3193 -0.8917
12683TIP3    H259465   2.399   6.398  10.254  0.5312 -0.3379 -1.1777
12684TIP3   OH259466   0.699   6.772  10.730  0.3386 -0.2990 -0.2096
12684TIP3    H159467   0.704   6.680  10.754 -0.4662 -0.1280  0.6964
12684TIP3    H259468   0.751   6.780  10.650  0.6021 -1.4864 -0.1640
12685TIP3   OH259469   5.218   0.790  14.586 -0.4115 -0.2687  0.2252
12685TIP3    H159470   5.196   0.697  14.586 -0.9014 -0.1544  0.1441
12685TIP3    H259471   5.134   0.835  14.595 -0.1083  0.1547  1.0772
12686TIP3   OH259472   4.502   3.136  13.594  0.0011  0.1762  0.2090
12686TIP3    H159473   4.464   3.163  13.510 -0.0533  1.6394  0.6715
12686TIP3    H259474   4.587   3.098  13.572  0.1362  0.8634 -0.4769
12687TIP3   OH259475   6.606   6.818   3.708  0.0613  0.4328 -0.2145
12687TIP3    H159476   6.595   6.871   3.629 -0.5507  2.0557  0.9167
12687TIP3    H259477   6.553   6.862   3.775 -0.1241 -1.3663  0.9081
12688TIP3   OH259478   2.812   3.260  14.147 -0.4109 -0.2781 -0.3249
12688TIP3    H159479   2.740   3.296  14.096  0.2459  2.3247  0.4310
12688TIP3    H259480   2.891   3.288  14.100  0.1420 -0.6702  0.3414
12689TIP3   OH259481   0.075   6.010  11.040 -0.8978  0.0000 -0.5809
12689TIP3    H159482   0.068   6.092  11.089  0.1087  0.4029 -1.0687
12689TIP3    H259483  -0.014   5.974  11.039 -2.2015  2.7889 -3.2616
12690TIP3   OH259484   5.395   1.326   1.983  0.5704  1.6554 -0.0258
12690TIP3    H159485   5.399   1.267   2.058  0.4694  1.4213 -0.2032
12690TIP3    H259486   5.454   1.398   2.006  0.6396  1.5204  0.2223
12691TIP3   OH259487   0.178   2.781   2.100 -0.2302 -0.4189  0.2356
12691TIP3    H159488   0.243   2.851   2.096 -0.0519 -0.5990 -0.0797
12691TIP3    H259489   0.176   2.755   2.191  2.3172 -2.4579 -0.1901
12692TIP3   OH259490   3.653   1.731   5.485 -0.5431 -0.1209 -0.0230
12692TIP3    H159491   3.563   1.742   5.453  0.0515  1.0229 -1.3537
12692TIP3    H259492   3.697   1.813   5.465  0.3918 -0.0179  2.1364
12693TIP3   OH259493   3.293   4.934   5.082 -0.4790 -0.6817  0.0500
12693TIP3    H159494   3.388   4.940   5.067 -0.6726 -1.3428 -1.6170
12693TIP3    H259495   3.279   4.986   5.161  1.3251 -0.9140  0.5862
12694TIP3   OH259496   4.314   4.676  14.586  1.4306  0.2504 -0.6105
12694TIP3    H159497   4.328   4.761  14.543  0.9576 -0.5634 -2.4278
12694TIP3    H259498   4.379   4.618  14.547  0.5269 -0.6886 -0.7564
12695TIP3   OH259499   2.362   2.486   3.304  0.0333 -0.1278 -0.3984
12695TIP3    H159500   2.351   2.581   3.296 -0.3321 -0.2408 -1.4150
12695TIP3    H259501   2.449   2.475   3.342  0.6726  0.6038 -1.5830
12696TIP3   OH259502   0.720   1.686   3.623  0.6401 -0.3912  0.1393
12696TIP3    H159503   0.815   1.685   3.612  0.7761 -1.3311  1.1567
12696TIP3    H259504   0.689   1.613   3.570  0.2981  0.8066 -1.3814
12697TIP3   OH259505   6.057   4.331   4.310  0.0951 -0.1005  0.7549
12697TIP3    H159506   6.146   4.334   4.346  0.1294  0.2326  0.6481
12697TIP3    H259507   6.065   4.279   4.230 -0.0448 -1.1235  1.3964
12698TIP3   OH259508   0.530   6.426   0.242 -0.0404 -0.1962  0.1840
12698TIP3    H159509   0.466   6.487   0.279 -0.6240 -1.2364  0.9489
12698TIP3    H259510   0.479   6.369   0.185 -0.1096 -1.9810  1.9428
12699TIP3   OH259511   0.888   6.719   4.987  0.3525 -0.1396 -0.6607
12699TIP3    H159512   0.968   6.702   4.938  1.4274  1.5628  0.3932
12699TIP3    H259513   0.883   6.815   4.992 -0.6909 -0.2407  0.9542
12700TIP3   OH259514   2.381   0.046   4.706  0.1315  1.2022 -0.3115
12700TIP3    H159515   2.324   0.007   4.640  0.3348  0.6327 -0.1606
12700TIP3    H259516   2.404  -0.027   4.763  0.6754  1.5087 -0.1338
12701TIP3   OH259517   4.679   5.255   0.460 -0.4162 -0.3917  0.0298
12701TIP3    H159518   4.722   5.321   0.514 -1.5029 -1.0039  1.7133
12701TIP3    H259519   4.716   5.268   0.372  0.9081  1.0692  0.7576
12702TIP3   OH259520   3.257   0.957  12.675 -0.1738  0.6229  0.3335
12702TIP3    H159521   3.171   0.978  12.639 -0.4540 -0.2541  0.4615
12702TIP3    H259522   3.250   0.979  12.768  0.1489  1.7170  0.1089
12703TIP3   OH259523   2.552   4.331   0.590 -0.0149 -0.3687  0.2300
12703TIP3    H159524   2.490   4.403   0.599  0.6440  0.3449 -0.6881
12703TIP3    H259525   2.617   4.346   0.658  0.1154 -0.1000  0.0458
12704TIP3   OH259526   5.868   3.072   2.755 -0.5324 -0.0963 -0.6327
12704TIP3    H159527   5.920   3.148   2.731 -0.2047 -0.7829 -2.2032
12704TIP3    H259528   5.868   3.073   2.851  1.2903  0.6565 -0.5930
12705TIP3   OH259529   2.610   2.960  12.345 -0.5592 -0.0790  0.2642
12705TIP3    H159530   2.518   2.934  12.343 -0.6023  0.1060 -0.6838
12705TIP3    H259531   2.658   2.882  12.315 -0.4637  0.0390  0.1078
12706TIP3   OH259532   2.301   2.570  13.821 -0.1464  0.2891  0.1006
12706TIP3    H159533   2.269   2.633  13.757 -1.3490 -0.5501 -0.1603
12706TIP3    H259534   2.396   2.573  13.812 -0.2783  0.2401 -1.6903
12707TIP3   OH259535   5.904   3.897   1.036 -0.5511 -0.3653 -0.0895
12707TIP3    H159536   5.877   3.892   0.944 -1.8772 -0.0046  0.2516
12707TIP3    H259537   5.929   3.808   1.059  3.1306  0.0918 -1.7038
12708TIP3   OH259538   5.888   3.371  10.880  0.2561 -0.0557 -0.3110
12708TIP3    H159539   5.978   3.400  10.894  0.1214  0.5676 -0.7390
12708TIP3    H259540   5.888   3.335  10.791  0.2517 -0.7432 -0.0444
12709TIP3   OH259541   4.020   4.409   9.892  0.3196 -0.2731 -0.1738
12709TIP3    H159542   4.001   4.366   9.809 -2.0406 -0.8472  0.5780
12709TIP3    H259543   4.112   4.390   9.909  0.3941 -1.5878 -1.8186
12710TIP3   OH259544   2.319   6.118   4.891  0.0133 -0.1457  0.3295
12710TIP3    H159545   2.347   6.175   4.962 -1.9206  1.8260 -0.3925
12710TIP3    H259546   2.243   6.071   4.926  0.2304 -0.6239  0.1767
12711TIP3   OH259547   7.085   4.053  14.266  0.7518  0.1705  0.2546
12711TIP3    H159548   7.018   4.035  14.200 -0.4155  0.3027  1.3607
12711TIP3    H259549   7.073   4.146  14.286 -0.2746 -0.3180  2.0785
12712TIP3   OH259550   2.219   0.262   0.709  0.3916  0.1741  0.7464
12712TIP3    H159551   2.276   0.339   0.705 -0.0235  0.4417 -0.2957
12712TIP3    H259552   2.219   0.228   0.620  0.2795 -0.8342  1.1188
12713TIP3   OH259553   4.534   5.011   0.857 -0.9520 -0.2307  0.1093
12713TIP3    H159554   4.597   5.037   0.790 -2.5704  0.0100 -1.4119
12713TIP3    H259555   4.509   5.092   0.900  0.6585 -0.4687  1.6292
12714TIP3   OH259556   0.016   0.251  12.766 -0.0876 -0.6575 -0.7286
12714TIP3    H159557   0.047   0.232  12.855 -1.9020  3.0460  0.9239
12714TIP3    H259558  -0.069   0.207  12.760 -0.1556 -0.5634 -0.4645
12715TIP3   OH259559   5.907   5.716  14.746  0.0388  0.1808  0.3563
12715TIP3    H159560   5.908   5.806  14.714 -0.4353  0.0675  0.0125
12715TIP3    H259561   5.902   5.724  14.841 -0.9199  0.5250  0.2878
12716TIP3   OH259562   1.639   3.772   4.262  0.1820  0.5526  0.0761
12716TIP3    H159563   1.715   3.714   4.253 -0.2854  0.2502 -3.3623
12716TIP3    H259564   1.618   3.798   4.172 -2.4426  2.4236  1.1037
12717TIP3   OH259565   1.232   5.302   0.863  0.2821 -0.0038 -0.3306
12717TIP3    H159566   1.230   5.275   0.955  1.3380  0.2665 -0.2097
12717TIP3    H259567   1.316   5.269   0.831  0.1401  0.3322 -1.0670
12718TIP3   OH259568   2.181   7.159   1.336  0.0419 -0.1137 -0.2187
12718TIP3    H159569   2.212   7.181   1.424 -0.8916 -0.5084  0.2258
12718TIP3    H259570   2.243   7.094   1.304  2.6129  2.6936 -1.4009
12719TIP3   OH259571   3.202   0.657  14.245 -0.1012 -0.0015 -0.8724
12719TIP3    H159572   3.131   0.646  14.308 -1.3075  2.0652 -1.7497
12719TIP3    H259573   3.251   0.732  14.278 -0.4798  0.8206 -2.0893
12720TIP3   OH259574   1.613   1.293   3.836  0.4071  0.6929  0.1855
12720TIP3    H159575   1.560   1.369   3.813 -0.4201  0.2645  0.6649
12720TIP3    H259576   1.581   1.224   3.779  0.7583  0.5409  0.1682
12721TIP3   OH259577   1.177   4.226  13.329  0.5656 -0.4306  0.2204
12721TIP3    H159578   1.096   4.230  13.380  1.4720 -1.8523  1.8880
12721TIP3    H259579   1.150   4.197  13.242 -0.6321 -1.9989  1.0719
12722TIP3   OH259580   6.715   3.572   0.842  0.2610  0.5649  0.5436
12722TIP3    H159581   6.695   3.589   0.934 -1.8727 -0.7515  0.3888
12722TIP3    H259582   6.726   3.477   0.836  0.7668  0.6727 -0.4943
12723TIP3   OH259583   3.554   5.279  11.850  0.1109 -0.6355  0.1654
12723TIP3    H159584   3.537   5.214  11.782 -0.5106 -1.3589  0.9994
12723TIP3    H259585   3.500   5.354  11.825  1.4633 -0.0686 -1.2634
12724TIP3   OH259586   4.092   5.008   3.971 -0.0528 -0.0584  0.1620
12724TIP3    H159587   4.070   4.990   4.063  2.4388  0.2399  0.8785
12724TIP3    H259588   4.152   4.938   3.946  1.9186  1.6400 -0.1471
12725TIP3   OH259589   0.263   0.907   3.938  0.4631  0.3068 -0.2343
12725TIP3    H159590   0.232   0.963   3.867  0.5081 -0.5285 -0.9334
12725TIP3    H259591   0.338   0.953   3.975  1.0437  0.3043 -1.3740
12726TIP3   OH259592   1.281   3.058  15.407  0.2163 -0.4654  0.3325
12726TIP3    H159593   1.218   3.005  15.357 -1.1057 -0.2998  1.7693
12726TIP3    H259594   1.307   3.002  15.480  2.5100 -0.8900 -0.7223
12727TIP3   OH259595   6.111   2.969   1.292  0.0177 -0.0316 -0.3937
12727TIP3    H159596   6.037   2.984   1.351 -0.4559  0.6926 -1.1563
12727TIP3    H259597   6.101   2.879   1.262  0.2231 -0.3869  0.5540
12728TIP3   OH259598   5.624   7.135   1.898  0.2819  0.5098  0.4475
12728TIP3    H159599   5.540   7.176   1.921 -0.6520 -0.3925 -1.1356
12728TIP3    H259600   5.641   7.166   1.809  0.4184 -1.1449 -0.1384
12729TIP3   OH259601   5.787   5.592   2.134 -0.0555  0.2378 -0.1418
12729TIP3    H159602   5.703   5.566   2.096 -0.4411  1.3469 -0.0912
12729TIP3    H259603   5.784   5.688   2.136  1.5085  0.3292 -0.7966
12730TIP3   OH259604   4.995   0.760   0.434  0.7648 -0.6932  0.0813
12730TIP3    H159605   4.955   0.674   0.422  2.2519 -1.6011  1.3309
12730TIP3    H259606   4.973   0.785   0.524 -0.3480  0.6429 -0.5220
12731TIP3   OH259607   1.293   3.350   4.896  0.9151  0.0331 -0.2046
12731TIP3    H159608   1.320   3.273   4.947  2.3981  0.6282 -0.0452
12731TIP3    H259609   1.245   3.313   4.822 -3.0647 -0.7886  2.4973
12732TIP3   OH259610   4.122   5.048   5.310 -0.4396  0.7295  0.6832
12732TIP3    H159611   4.042   5.024   5.265 -0.5898  0.8900  0.8625
12732TIP3    H259612   4.154   5.126   5.263  0.6695 -0.4641 -0.6397
12733TIP3   OH259613   1.138   3.056   4.454  0.0763 -0.1291  0.1898
12733TIP3    H159614   1.134   3.028   4.363  0.7610  1.6209 -0.4050
12733TIP3    H259615   1.053   3.029   4.491 -0.3943 -0.4483 -1.0725
12734TIP3   OH259616   4.241   4.172   1.608  0.3715  0.2972 -0.2730
12734TIP3    H159617   4.208   4.177   1.697  3.0069  0.8080  0.7707
12734TIP3    H259618   4.332   4.146   1.618  0.7465  0.3888 -2.8349
12735TIP3   OH259619   3.977   2.191   0.121 -0.1802 -0.2387 -0.6481
12735TIP3    H159620   3.995   2.150   0.036  0.8535 -1.6960  0.2256
12735TIP3    H259621   4.058   2.236   0.143 -0.1473 -0.5824 -0.0565
12736TIP3   OH259622   2.245   6.366  13.863 -0.8140 -0.5451  0.2041
12736TIP3    H159623   2.271   6.438  13.806 -0.5789 -0.2861  0.6349
12736TIP3    H259624   2.200   6.408  13.936 -1.0796 -0.8731  0.2316
12737TIP3   OH259625   2.920   1.226   4.648  0.7066  0.5316  0.2384
12737TIP3    H159626   2.873   1.200   4.569  0.3826  1.7694  0.0078
12737TIP3    H259627   3.012   1.227   4.623  0.5022  2.3351 -0.5684
12738TIP3   OH259628   4.438   5.916  11.837 -0.2847 -0.2972  0.2916
12738TIP3    H159629   4.505   5.849  11.851 -1.0239 -1.1322 -0.0286
12738TIP3    H259630   4.362   5.885  11.887 -1.2092 -0.6224 -1.2378
12739TIP3   OH259631   4.421   0.959   2.196 -0.1499  0.2712 -0.1143
12739TIP3    H159632   4.365   0.937   2.122 -0.8224  0.7960  0.2308
12739TIP3    H259633   4.408   0.887   2.258 -0.2286  0.2553 -0.1495
12740TIP3   OH259634   4.926   4.604   1.695  1.0635 -0.3221 -0.4387
12740TIP3    H159635   4.920   4.643   1.782 -1.5194 -0.4955 -0.4749
12740TIP3    H259636   4.934   4.678   1.635 -1.7876  0.1830 -0.3444
12741TIP3   OH259637   0.852   1.535   0.149  0.1693 -0.4963  0.1509
12741TIP3    H159638   0.772   1.528   0.202 -0.5150  0.3840 -0.7223
12741TIP3    H259639   0.821   1.520   0.059  0.2018  3.7096 -0.7359
12742TIP3   OH259640   0.473   0.224   2.469  0.1786  0.0373  0.2655
12742TIP3    H159641   0.427   0.144   2.445 -1.5689  0.6154  1.4130
12742TIP3    H259642   0.498   0.210   2.561  1.4240  0.1443 -0.0420
12743TIP3   OH259643   3.982   1.881  14.497 -0.7275  0.3453  0.4457
12743TIP3    H159644   3.892   1.883  14.465 -0.9956  1.3258  1.2131
12743TIP3    H259645   3.974   1.852  14.588 -0.4412  2.0355  1.0294
12744TIP3   OH259646   0.493   0.670   4.818 -0.1831 -0.3055  0.1081
12744TIP3    H159647   0.419   0.622   4.856 -1.2877  0.3648 -1.1351
12744TIP3    H259648   0.527   0.611   4.751 -0.2424 -0.1895 -0.0238
12745TIP3   OH259649   2.144   1.919  14.520  0.2073  0.1161  0.2587
12745TIP3    H159650   2.075   1.862  14.554  0.2169 -0.3167 -0.4269
12745TIP3    H259651   2.110   1.950  14.436  0.7171  0.1348  0.0583
12746TIP3   OH259652   6.763   5.248   5.219 -0.4236  0.5677  0.5129
12746TIP3    H159653   6.740   5.289   5.135 -0.9144  1.4167  1.0516
12746TIP3    H259654   6.795   5.320   5.273  1.2314 -0.1942  0.6110
12747TIP3   OH259655   0.333   6.620   0.629 -0.3896 -0.2641  0.2669
12747TIP3    H159656   0.247   6.602   0.592  0.2610  1.0095 -2.1114
12747TIP3    H259657   0.321   6.702   0.677 -0.1105  1.2829 -2.1061
12748TIP3   OH259658   2.468   5.466  10.949 -0.7029 -0.2031 -0.1208
12748TIP3    H159659   2.529   5.469  11.022  0.5735 -0.6255 -1.1288
12748TIP3    H259660   2.476   5.551  10.906 -0.7487 -0.2981 -0.3202
12749TIP3   OH259661   3.934   5.379  10.898 -0.0147  0.1743 -0.5727
12749TIP3    H159662   3.999   5.445  10.877  1.6774 -0.3105  2.4951
12749TIP3    H259663   3.852   5.427  10.905  0.1123  0.9755 -3.4121
12750TIP3   OH259664   4.478   4.259  12.356 -0.0692 -0.2689 -0.1833
12750TIP3    H159665   4.390   4.297  12.356  0.1858  0.3287  0.3022
12750TIP3    H259666   4.481   4.203  12.433 -0.1882 -0.6945 -0.4814
12751TIP3   OH259667   6.550   6.452   1.773  0.2266 -0.4616  0.2158
12751TIP3    H159668   6.577   6.360   1.769 -3.1369 -1.6356  1.2817
12751TIP3    H259669   6.506   6.468   1.689  2.7938  1.0140 -0.9668
12752TIP3   OH259670   0.761   1.314   9.589  0.4866 -0.3474 -0.2217
12752TIP3    H159671   0.728   1.298   9.677  4.7410  1.8722  2.0874
12752TIP3    H259672   0.725   1.399   9.564 -0.7541 -0.9964 -0.6997
12753TIP3   OH259673   2.685   3.695  10.962  0.2424  0.1043 -0.1032
12753TIP3    H159674   2.687   3.605  10.995  2.2232  0.1732  0.0798
12753TIP3    H259675   2.713   3.749  11.036 -0.3590  0.8177 -0.3805
12754TIP3   OH259676   4.384   2.751  11.050  0.1093 -0.3375 -0.3924
12754TIP3    H159677   4.336   2.679  11.092 -0.1390  1.2769  2.2985
12754TIP3    H259678   4.316   2.814  11.026  0.4629 -0.3387 -1.4548
12755TIP3   OH259679   6.372   4.953   9.996 -0.2111 -0.2823 -0.0654
12755TIP3    H159680   6.379   4.885   9.929 -0.2965 -0.7282  0.3795
12755TIP3    H259681   6.397   5.034   9.950  0.7625 -0.7404 -0.3680
12756TIP3   OH259682   4.872   4.103   1.513  0.0265 -0.1558 -0.1876
12756TIP3    H159683   4.814   4.052   1.569 -1.3277  2.4221  0.9555
12756TIP3    H259684   4.896   4.044   1.441 -0.8697 -2.5127  1.3577
12757TIP3   OH259685   6.707   6.753   5.379 -0.4027  0.3603  0.0770
12757TIP3    H159686   6.685   6.784   5.467  0.0172 -3.2850  1.6588
12757TIP3    H259687   6.795   6.786   5.363  0.6684 -1.1798  2.3326
12758TIP3   OH259688   2.734   4.594   2.523 -0.2668  0.1435  0.1425
12758TIP3    H159689   2.814   4.623   2.480 -1.8214  0.8090 -2.5495
12758TIP3    H259690   2.669   4.588   2.452 -2.4987 -0.7939  2.1114
12759TIP3   OH259691   0.913   4.691  12.650  0.3471  0.2083 -0.0086
12759TIP3    H159692   0.862   4.747  12.708  0.5722  0.2636  0.1389
12759TIP3    H259693   0.997   4.737  12.641 -0.4996  1.5002 -2.3547
12760TIP3   OH259694   0.153   6.273   1.587  0.0428 -0.0230  0.1121
12760TIP3    H159695   0.208   6.200   1.613  2.6176  1.6770 -0.2616
12760TIP3    H259696   0.186   6.348   1.636 -1.2599  1.3010 -0.9133
12761TIP3   OH259697   2.498   7.062  15.363  0.0656 -0.2891  0.8476
12761TIP3    H159698   2.426   7.039  15.422 -0.0322  0.0361  0.8576
12761TIP3    H259699   2.455   7.082  15.280  0.1902 -0.5978  0.7061
12762TIP3   OH259700   6.144   6.788  13.653 -0.1409  0.3322  0.5245
12762TIP3    H159701   6.073   6.824  13.600  0.1056 -0.0768 -0.1022
12762TIP3    H259702   6.217   6.780  13.591  0.4654  0.8003  1.1730
12763TIP3   OH259703   0.400   6.174  15.313 -0.0204  0.0239 -0.2043
12763TIP3    H159704   0.411   6.185  15.219  0.0612 -0.4092 -0.2482
12763TIP3    H259705   0.376   6.082  15.324  1.5230 -0.3400  0.3251
12764TIP3   OH259706   2.013   4.193   1.730  0.1857 -0.5788 -0.4735
12764TIP3    H159707   2.014   4.223   1.821  2.5010 -3.0141  0.4428
12764TIP3    H259708   2.090   4.233   1.690  0.8467 -1.8097 -0.4752
12765TIP3   OH259709   6.168   0.116   3.784 -0.1414 -0.5055  0.5878
12765TIP3    H159710   6.157   0.156   3.698 -2.3114 -0.6660  0.7226
12765TIP3    H259711   6.208   0.031   3.767  0.9983  0.1471 -0.0734
12766TIP3   OH259712   2.688   0.870   4.201  0.0347 -0.3487 -0.1328
12766TIP3    H159713   2.665   0.927   4.127  1.2284 -1.5213 -1.4844
12766TIP3    H259714   2.750   0.921   4.252 -3.5414  1.9620  2.2984
12767TIP3   OH259715   2.981   1.899   3.689  0.0225  0.2514 -0.1971
12767TIP3    H159716   3.065   1.858   3.669  0.3376  0.9479 -0.3262
12767TIP3    H259717   2.964   1.956   3.614 -0.1589  0.7465  0.2185
12768TIP3   OH259718   1.449   3.230  11.097 -0.7050 -0.0625 -0.0888
12768TIP3    H159719   1.387   3.199  11.031 -0.7407 -0.0282 -0.0714
12768TIP3    H259720   1.521   3.268  11.047 -0.8377  0.1681 -0.1038
12769TIP3   OH259721   0.465   5.811   1.737 -0.1291  0.3235 -0.2700
12769TIP3    H159722   0.507   5.729   1.711 -0.2580 -0.7158  2.5122
12769TIP3    H259723   0.380   5.809   1.694 -0.7096 -1.7478  0.8401
12770TIP3   OH259724   6.996   4.593  11.174 -0.2188  0.1173 -0.1899
12770TIP3    H159725   6.913   4.628  11.208  0.4896  0.1884  1.5709
12770TIP3    H259726   6.984   4.498  11.178 -1.3670  0.0599 -3.0065
12771TIP3   OH259727   6.453   3.533   2.344 -0.3399 -0.0079  0.3458
12771TIP3    H159728   6.420   3.528   2.255 -1.4409  1.6073  0.6249
12771TIP3    H259729   6.516   3.606   2.343 -0.7303  0.3535  0.9760
12772TIP3   OH259730   5.345   1.903   3.307  0.4836 -0.2233  0.1899
12772TIP3    H159731   5.407   1.849   3.355 -0.0493 -0.8831  0.1441
12772TIP3    H259732   5.284   1.935   3.374  0.8821  0.4554  0.2410
12773TIP3   OH259733   6.516   6.045   2.451 -0.3771  0.0916  0.3140
12773TIP3    H159734   6.456   5.970   2.445  1.0863 -1.0571 -0.7526
12773TIP3    H259735   6.487   6.105   2.382  2.1146 -2.3991 -3.2566
12774TIP3   OH259736   6.310   4.800  11.108 -0.1074  0.5579  0.0118
12774TIP3    H159737   6.327   4.780  11.016  1.7427  2.5021 -0.1515
12774TIP3    H259738   6.392   4.778  11.153 -1.6480 -2.4493  1.6744
12775TIP3   OH259739   5.455   6.052  11.892  0.2217 -0.2332  0.2047
12775TIP3    H159740   5.361   6.033  11.903 -0.2980  0.9174 -1.7863
12775TIP3    H259741   5.480   6.094  11.975 -2.0314  2.9709 -0.5437
12776TIP3   OH259742   1.718   6.130   3.663  0.3347 -0.2328  0.1517
12776TIP3    H159743   1.776   6.135   3.587 -1.6007 -0.9962 -1.4764
12776TIP3    H259744   1.698   6.221   3.684 -0.0574 -0.0119 -1.0810
12777TIP3   OH259745   3.257   3.604  13.047 -0.2249 -0.0507 -0.0489
12777TIP3    H159746   3.257   3.673  13.113 -0.1919 -2.8419  3.1980
12777TIP3    H259747   3.349   3.586  13.030 -0.1419 -0.9394  1.1596
12778TIP3   OH259748   0.446   0.969   4.841  0.0765 -0.3839  0.7900
12778TIP3    H159749   0.462   0.875   4.849  2.9935  0.0279  0.8411
12778TIP3    H259750   0.441   0.999   4.932 -0.2431 -0.3808  0.7737
12779TIP3   OH259751   4.392   5.414  13.132  0.4836 -0.4363 -0.0228
12779TIP3    H159752   4.391   5.474  13.207  0.0220 -0.4271 -0.0359
12779TIP3    H259753   4.467   5.357  13.149  0.1551 -0.6849  0.6427
12780TIP3   OH259754   0.476   2.348   2.670 -0.5139 -0.0699 -0.2487
12780TIP3    H159755   0.480   2.280   2.603 -2.2030 -1.4848  0.9780
12780TIP3    H259756   0.565   2.382   2.675  0.3541 -2.0292 -1.0758
12781TIP3   OH259757   4.227   3.404  15.105  0.7156  0.7717  0.3344
12781TIP3    H159758   4.194   3.446  15.184  1.3641 -1.0816  1.6662
12781TIP3    H259759   4.300   3.350  15.135  0.6423 -0.4053 -1.4313
12782TIP3   OH259760   2.172   3.147   3.586 -0.8551  0.6136  0.3656
12782TIP3    H159761   2.249   3.113   3.631 -1.0667 -0.2870  0.0673
12782TIP3    H259762   2.101   3.089   3.613 -1.0404  0.2137 -0.9298
12783TIP3   OH259763   2.951   6.608   2.795 -0.5027 -0.4288  0.8259
12783TIP3    H159764   2.891   6.587   2.866  0.9204 -0.0782  2.1980
12783TIP3    H259765   2.898   6.654   2.730 -1.5292  0.6548  2.3835
12784TIP3   OH259766   5.254   2.938   2.891  0.3480  1.0316 -0.1877
12784TIP3    H159767   5.241   3.027   2.857  0.9276  0.4843 -1.9782
12784TIP3    H259768   5.344   2.917   2.865 -0.0488 -0.3553 -0.4822
12785TIP3   OH259769   1.948   5.622   0.060 -0.2093 -0.2816 -0.4098
12785TIP3    H159770   1.999   5.552   0.100 -0.7490 -1.3075 -1.4524
12785TIP3    H259771   1.880   5.576   0.009 -0.3645  0.9881 -1.3859
12786TIP3   OH259772   4.949   0.996   3.679 -0.1307 -0.8011 -0.6180
12786TIP3    H159773   4.996   1.064   3.630  0.1678 -0.6621 -0.1425
12786TIP3    H259774   4.942   0.923   3.617 -0.0486 -0.5047 -0.9794
12787TIP3   OH259775   6.049   2.181   1.656 -0.4689 -0.0130  0.3745
12787TIP3    H159776   6.021   2.177   1.565  0.6827 -1.2214  0.0372
12787TIP3    H259777   5.997   2.112   1.699  0.4478 -0.8333  0.1873
12788TIP3   OH259778   0.926   6.499   4.408 -0.0695 -0.3200 -0.6055
12788TIP3    H159779   0.987   6.449   4.354 -0.3633 -0.0870 -1.1601
12788TIP3    H259780   0.973   6.513   4.490  0.2922 -0.8730 -0.7138
12789TIP3   OH259781   1.978   2.090   5.997 -0.6171  0.2226  0.0536
12789TIP3    H159782   1.978   2.163   6.059 -0.5539 -0.9624  1.4773
12789TIP3    H259783   1.922   2.121   5.925 -0.4706  1.7288  0.5440
12790TIP3   OH259784   0.827   5.064   3.291  0.4058 -0.2002  0.1411
12790TIP3    H159785   0.888   5.038   3.360 -0.9764 -0.5896  1.2661
12790TIP3    H259786   0.863   5.027   3.211  2.0023  0.1796  0.6608
12791TIP3   OH259787   0.241   6.578   5.200 -0.0438  0.4738  0.4853
12791TIP3    H159788   0.218   6.559   5.290 -0.6581 -0.1426  0.2025
12791TIP3    H259789   0.242   6.493   5.156 -0.6238  0.8536 -0.2885
12792TIP3   OH259790   3.645   1.859   2.787 -0.4684  0.0892 -0.0720
12792TIP3    H159791   3.569   1.916   2.774  0.3821  0.9716 -1.4652
12792TIP3    H259792   3.689   1.858   2.702  0.5092 -1.2649  0.4112
12793TIP3   OH259793   6.666   3.150   4.768 -0.5854  0.7882 -0.4345
12793TIP3    H159794   6.682   3.080   4.831  2.0309  2.0009  0.3567
12793TIP3    H259795   6.686   3.231   4.815 -2.4176  2.0452 -1.6640
12794TIP3   OH259796   1.124   0.492  12.896 -0.7485  0.5260 -0.4018
12794TIP3    H159797   1.177   0.551  12.843 -0.2648  1.8708  1.4921
12794TIP3    H259798   1.042   0.483  12.847 -0.8266  2.7715 -0.7837
12795TIP3   OH259799   2.813   3.596   2.974  0.1297 -0.1552 -0.4707
12795TIP3    H159800   2.733   3.555   3.006 -0.6957  2.4314  1.0979
12795TIP3    H259801   2.784   3.678   2.934  1.9471  1.0020  0.4076
12796TIP3   OH259802   6.952   6.864  14.877  0.5311  0.0077  0.0541
12796TIP3    H159803   6.959   6.822  14.963 -1.2420  2.1820  1.3520
12796TIP3    H259804   7.038   6.904  14.863  0.9720 -0.7184  0.5915
12797TIP3   OH259805   6.560   0.501   2.556 -0.7762 -0.0681  0.3426
12797TIP3    H159806   6.621   0.452   2.611 -2.2658 -2.7036 -0.1740
12797TIP3    H259807   6.588   0.483   2.466 -2.2351 -1.4014  0.0902
12798TIP3   OH259808   6.691   2.445   0.708 -0.3903 -0.0606 -0.2634
12798TIP3    H159809   6.637   2.506   0.659 -0.7106  0.7805  1.0790
12798TIP3    H259810   6.636   2.418   0.782  0.8548  0.5349  0.9311
12799TIP3   OH259811   6.150   2.225  15.050 -0.0892 -0.3052  0.3671
12799TIP3    H159812   6.081   2.285  15.081 -0.6928 -1.0455  0.4715
12799TIP3    H259813   6.109   2.176  14.979  0.3843 -0.6346  0.3207
12800TIP3   OH259814   7.155   3.324  12.209 -0.0972  0.7927 -0.3740
12800TIP3    H159815   7.204   3.384  12.266  0.1425 -0.3871  0.7015
12800TIP3    H259816   7.182   3.237  12.237 -1.0699  0.1544 -1.3469
12801TIP3   OH259817   1.617   2.579   2.013  0.3506  0.5169  0.1046
12801TIP3    H159818   1.576   2.576   2.100  0.2157  0.5965  0.0436
12801TIP3    H259819   1.644   2.670   2.002  1.0691  0.3436  0.3873
12802TIP3   OH259820   0.675   0.416   4.268 -0.4869  0.1572  0.0468
12802TIP3    H159821   0.714   0.458   4.345 -1.6114  0.0373  0.7180
12802TIP3    H259822   0.747   0.405   4.207  0.1038  1.8647  0.3855
12803TIP3   OH259823   3.037   6.704   3.930 -0.1067 -0.1157 -0.1104
12803TIP3    H159824   3.016   6.761   4.005 -0.4372  0.3809 -0.5709
12803TIP3    H259825   2.957   6.654   3.916 -0.0137 -0.2739 -0.0749
12804TIP3   OH259826   6.357   4.787   0.609  0.2819 -0.3396 -0.4500
12804TIP3    H159827   6.286   4.722   0.610 -3.1856  3.0921  1.3118
12804TIP3    H259828   6.398   4.779   0.694 -2.2578  1.6019  1.1109
12805TIP3   OH259829   4.415   3.087   4.394  0.7886  0.0491 -0.7120
12805TIP3    H159830   4.366   3.089   4.476  1.0839 -0.3360 -0.5260
12805TIP3    H259831   4.453   3.000   4.390  2.2010  0.6252 -0.4090
12806TIP3   OH259832   0.975   1.793   2.219  0.8220 -0.3677 -0.0100
12806TIP3    H159833   1.067   1.797   2.246  0.9278  1.4007 -0.5031
12806TIP3    H259834   0.971   1.848   2.140 -0.8349  0.4159  0.5803
12807TIP3   OH259835   2.697   0.730   3.558 -0.6898  0.5600 -0.2754
12807TIP3    H159836   2.672   0.654   3.505 -0.7562 -0.2282  0.8418
12807TIP3    H259837   2.738   0.791   3.497 -2.7128  0.6336 -1.6343
12808TIP3   OH259838   2.549   3.746  10.717  0.4182  0.3057  0.4524
12808TIP3    H159839   2.605   3.709  10.785 -0.0627  0.8738  1.1751
12808TIP3    H259840   2.499   3.814  10.761 -2.9859 -2.0388  0.6265
12809TIP3   OH259841   4.006   6.456   1.104 -0.0097 -0.7805 -0.0987
12809TIP3    H159842   4.007   6.511   1.025 -0.3554 -1.1002 -0.3311
12809TIP3    H259843   3.913   6.450   1.127 -0.0256 -1.6792 -0.3701
12810TIP3   OH259844   7.105   3.623   3.853  0.5263 -0.1841  0.2550
12810TIP3    H159845   7.182   3.636   3.797 -0.1947 -0.8136 -0.9495
12810TIP3    H259846   7.140   3.610   3.941  1.6600  1.6313  0.1150
12811TIP3   OH259847   0.746   4.130  13.356  0.3326  0.2441  0.4793
12811TIP3    H159848   0.702   4.188  13.294  0.1788  0.0126  0.3692
12811TIP3    H259849   0.819   4.182  13.390  1.0537  0.0314 -0.6720
12812TIP3   OH259850   1.383   2.304   5.394 -0.1295  0.8298 -0.1759
12812TIP3    H159851   1.392   2.399   5.385 -2.8036  1.7385  4.0087
12812TIP3    H259852   1.417   2.285   5.481  2.4643 -2.6142 -1.6906
12813TIP3   OH259853   1.493   6.682   2.920  0.0744  0.0318 -0.0683
12813TIP3    H159854   1.433   6.629   2.973 -1.2362  0.0660 -1.4136
12813TIP3    H259855   1.572   6.629   2.912 -0.1378 -0.4606  0.9531
12814TIP3   OH259856   1.229   5.833   2.799 -0.5457 -0.0857 -0.1450
12814TIP3    H159857   1.160   5.856   2.737  0.0593  0.7922 -0.5154
12814TIP3    H259858   1.272   5.757   2.761 -2.1376 -1.4944  0.7488
12815TIP3   OH259859   5.917   2.685  14.032 -0.5627  0.0424 -0.2346
12815TIP3    H159860   5.976   2.760  14.027  1.1149 -1.2104 -0.0114
12815TIP3    H259861   5.857   2.707  14.103 -0.6601  1.5334 -0.7407
12816TIP3   OH259862   1.193   2.435  15.280 -0.2093  0.3275 -0.0433
12816TIP3    H159863   1.194   2.489  15.359  0.0786  1.5105 -0.8276
12816TIP3    H259864   1.100   2.417  15.264 -0.3350  0.8955  0.0344
12817TIP3   OH259865   4.175   6.242  11.845  0.7990  0.0441 -0.2160
12817TIP3    H159866   4.173   6.310  11.778 -2.7282 -0.3741 -0.7428
12817TIP3    H259867   4.085   6.239  11.879  1.1445 -3.3235  0.8237
12818TIP3   OH259868   3.706   5.876   4.972 -0.1166  0.5241  0.2645
12818TIP3    H159869   3.728   5.933   4.898 -2.0505 -1.3452 -1.9441
12818TIP3    H259870   3.790   5.860   5.015  1.6103  0.0075 -2.9141
12819TIP3   OH259871   1.857   1.878  10.847 -1.0447 -0.6736 -0.2112
12819TIP3    H159872   1.790   1.882  10.779 -0.0555 -1.1006 -1.2506
12819TIP3    H259873   1.818   1.922  10.922 -1.6648  1.0650 -1.4843
12820TIP3   OH259874   0.144   3.252   1.436  0.2556 -0.4977  0.0897
12820TIP3    H159875   0.233   3.275   1.462  0.5700 -1.2013 -0.3427
12820TIP3    H259876   0.131   3.297   1.353 -0.2323  0.5755  0.7250
12821TIP3   OH259877   6.271   2.091   4.530  0.0615 -0.5489  0.1512
12821TIP3    H159878   6.304   2.110   4.617 -2.4119  0.9631  0.8552
12821TIP3    H259879   6.216   2.167   4.508  1.3620 -0.3993 -3.1532
12822TIP3   OH259880   0.142   3.304   3.992 -0.0112  0.0317 -0.3575
12822TIP3    H159881   0.188   3.220   3.997 -0.5731 -0.2188  1.0827
12822TIP3    H259882   0.187   3.353   3.923 -0.1219 -1.7117 -1.7276
12823TIP3   OH259883   0.233   5.000   4.270  0.3772 -0.3194  0.0723
12823TIP3    H159884   0.216   4.994   4.364 -0.7294 -2.1438 -0.2057
12823TIP3    H259885   0.263   5.090   4.257  0.3504  0.0337  2.1283
12824TIP3   OH259886   5.679   0.928   3.306  0.2113 -0.4796  0.0684
12824TIP3    H159887   5.630   0.883   3.236  0.7644 -1.6018  0.3904
12824TIP3    H259888   5.630   1.009   3.320 -1.1007 -1.1947 -0.1878
12825TIP3   OH259889   5.838   5.564  14.223  0.8362 -1.1505  0.2365
12825TIP3    H159890   5.848   5.650  14.183  0.7821 -2.0779 -1.9041
12825TIP3    H259891   5.792   5.581  14.305  1.3778  0.9040  0.1729
12826TIP3   OH259892   4.871   6.495  10.531  0.3081 -0.5478  0.3867
12826TIP3    H159893   4.935   6.542  10.477 -1.1868 -1.5866 -2.4580
12826TIP3    H259894   4.812   6.563  10.562  3.1091  0.6074  3.9196
12827TIP3   OH259895   4.624   2.275   4.794  0.3030 -0.7205  0.8722
12827TIP3    H159896   4.709   2.299   4.756  0.6476 -2.0591  0.7365
12827TIP3    H259897   4.641   2.271   4.888 -0.1070  0.8432  1.0471
12828TIP3   OH259898   6.861   2.851  14.566  0.0207 -0.1919  0.1294
12828TIP3    H159899   6.856   2.931  14.514 -0.4850  0.2500  0.8407
12828TIP3    H259900   6.919   2.794  14.516  0.8698  0.8355 -0.0920
12829TIP3   OH259901   2.534   5.090  15.263  0.4482  0.3365  0.7255
12829TIP3    H159902   2.609   5.053  15.310  0.5491  0.5778  0.7570
12829TIP3    H259903   2.463   5.087  15.327 -0.1380 -1.8280  0.0536
12830TIP3   OH259904   5.651   2.046  14.023 -0.1201 -0.2061  0.4305
12830TIP3    H159905   5.600   1.983  14.073  0.5867 -1.6061 -0.5456
12830TIP3    H259906   5.691   1.995  13.953  1.7214  1.0213  0.5040
12831TIP3   OH259907   6.885   2.274  15.268 -0.2573  0.8888  0.1745
12831TIP3    H159908   6.929   2.346  15.223 -0.7891  0.8201 -0.4673
12831TIP3    H259909   6.885   2.203  15.204 -0.3193  0.5324  0.5691
12832TIP3   OH259910   4.379   1.901  14.785  0.1218  0.2174  0.0830
12832TIP3    H159911   4.374   1.850  14.704 -0.4655  0.0677  0.2021
12832TIP3    H259912   4.466   1.883  14.819  0.1399 -0.2417 -0.1854
12833TIP3   OH259913   0.587   4.600  10.527  0.7856 -0.1085  0.1007
12833TIP3    H159914   0.564   4.661  10.598 -0.1877  1.6427 -1.6192
12833TIP3    H259915   0.637   4.653  10.465 -0.6458 -0.8375 -1.7737
12834TIP3   OH259916   6.164   6.363   4.219 -0.3771  0.4176  0.2646
12834TIP3    H159917   6.121   6.378   4.303 -0.5265  0.2084  0.2271
12834TIP3    H259918   6.224   6.436   4.209  0.2861 -0.0254  0.9685
12835TIP3   OH259919   3.921   0.737   5.694 -0.0280  0.3616 -0.5177
12835TIP3    H159920   4.011   0.705   5.683  1.1244  3.7937 -3.0095
12835TIP3    H259921   3.923   0.784   5.777 -0.4381 -1.8350  0.8264
12836TIP3   OH259922   4.260   3.113   3.119 -0.5546 -0.4871 -0.7110
12836TIP3    H159923   4.173   3.137   3.152  0.5912 -0.5524  2.7723
12836TIP3    H259924   4.319   3.173   3.163  1.3150 -1.2354 -2.0867
12837TIP3   OH259925   6.718   2.573  15.360 -0.0379  0.1401  0.1847
12837TIP3    H159926   6.753   2.612  15.440 -1.5018  0.8489  0.5223
12837TIP3    H259927   6.709   2.480  15.381 -0.2066  0.2828  0.7708
12838TIP3   OH259928   1.779   0.618  11.182 -0.1742 -0.6208 -0.4596
12838TIP3    H159929   1.690   0.606  11.151 -0.7169 -0.0823  0.8234
12838TIP3    H259930   1.786   0.561  11.258  0.3424 -0.1414 -0.1369
12839TIP3   OH259931   1.816   0.998  13.050 -0.3388 -0.5809  0.3937
12839TIP3    H159932   1.739   1.040  13.088  0.1957 -0.4423  1.3610
12839TIP3    H259933   1.867   0.968  13.126  1.3660  0.7854 -0.1302
12840TIP3   OH259934   6.258   6.695  12.172  0.1848 -0.0454  0.5137
12840TIP3    H159935   6.179   6.691  12.226 -0.8587 -0.9403 -0.9973
12840TIP3    H259936   6.289   6.605  12.168  1.5837  0.3621  1.4568
12841TIP3   OH259937   2.055   1.021   0.058 -0.1616  0.4442  0.0773
12841TIP3    H159938   2.137   1.038   0.011 -0.2037 -3.4973 -1.7912
12841TIP3    H259939   1.987   1.028  -0.009 -0.6829 -1.3940  0.3601
12842TIP3   OH259940   6.309   5.949   2.947 -0.3676 -0.0787 -0.1203
12842TIP3    H159941   6.345   6.019   2.893 -3.9335  1.7233 -0.4389
12842TIP3    H259942   6.303   5.986   3.035  2.2195 -1.8148  0.9008
12843TIP3   OH259943   5.421   6.315  10.283  0.4392 -0.0668  0.2484
12843TIP3    H159944   5.376   6.347  10.361  0.0750  1.3202 -0.4953
12843TIP3    H259945   5.351   6.276  10.230  0.5060 -0.0575  0.1536
12844TIP3   OH259946   0.522   5.384   0.886 -0.1018 -0.1670 -0.4870
12844TIP3    H159947   0.439   5.428   0.901 -1.4391 -2.1918 -1.5938
12844TIP3    H259948   0.552   5.417   0.801 -0.9317 -1.0961 -1.1568
12845TIP3   OH259949   2.996   5.460   5.375  0.8919  0.2376  0.2237
12845TIP3    H159950   2.943   5.400   5.428  0.0404  1.1785  0.4861
12845TIP3    H259951   3.028   5.407   5.302 -1.3038 -0.1666 -0.5275
12846TIP3   OH259952   6.374   0.594  13.596 -0.1613 -0.6725 -0.2455
12846TIP3    H159953   6.362   0.499  13.602  1.4513 -0.9265 -0.3570
12846TIP3    H259954   6.398   0.621  13.684 -0.8054 -0.3357 -0.1724
12847TIP3   OH259955   0.555   1.486  14.819  0.2974  0.5129  0.5540
12847TIP3    H159956   0.599   1.408  14.786  0.6693  0.3402  1.4378
12847TIP3    H259957   0.564   1.550  14.748  0.8717  0.0837  0.2255
12848TIP3   OH259958   6.208   1.057   2.154 -0.1848 -0.4714  0.0586
12848TIP3    H159959   6.281   1.095   2.106  0.4265  0.0676  1.3549
12848TIP3    H259960   6.139   1.046   2.089  0.6115  0.1994 -0.9294
12849TIP3   OH259961   1.603   3.341   2.255  0.1323 -0.1403 -0.1641
12849TIP3    H159962   1.539   3.372   2.319  0.5681 -3.0066  1.8273
12849TIP3    H259963   1.686   3.380   2.283 -0.3244  2.2244 -1.7710
12850TIP3   OH259964   3.703   1.288   1.962 -0.4820  0.3862  0.0803
12850TIP3    H159965   3.705   1.245   2.048 -1.0725 -1.2931 -0.7060
12850TIP3    H259966   3.752   1.369   1.975 -0.8920  0.3719  2.1010
12851TIP3   OH259967   4.313   3.096  11.000  0.0744 -0.1566 -0.2884
12851TIP3    H159968   4.320   3.157  10.926 -1.1970  1.5083  0.8665
12851TIP3    H259969   4.222   3.066  10.997  0.0037 -0.0484  0.5970
12852TIP3   OH259970   3.872   4.445   0.672 -0.2845 -0.4829 -0.0866
12852TIP3    H159971   3.892   4.432   0.579  3.5426 -0.7024  0.6443
12852TIP3    H259972   3.834   4.533   0.676  1.4803  0.4248 -1.6701
12853TIP3   OH259973   6.323   5.332  10.316 -1.0199  0.0447 -0.3840
12853TIP3    H159974   6.308   5.298  10.228 -0.7146  0.3306 -0.5511
12853TIP3    H259975   6.407   5.377  10.310 -0.2389 -1.2218  0.4325
12854TIP3   OH259976   5.044   1.911   4.312  0.3188 -0.1861 -0.2759
12854TIP3    H159977   5.113   1.958   4.265 -0.4880  3.1063  1.5396
12854TIP3    H259978   4.962   1.941   4.271 -0.2293  0.0182  0.9393
12855TIP3   OH259979   4.637   4.065  13.024  0.0218 -0.1662  0.3672
12855TIP3    H159980   4.719   4.051  13.071  0.0644  0.0746  0.3624
12855TIP3    H259981   4.634   3.993  12.960  1.6482  1.4365 -1.6522
12856TIP3   OH259982   2.461   0.921  11.897  0.2531 -0.0076 -0.5588
12856TIP3    H159983   2.371   0.938  11.923 -0.2100  0.0608 -2.0831
12856TIP3    H259984   2.514   0.953  11.970 -0.9618 -0.5153  0.5832
12857TIP3   OH259985   6.426   6.461   2.098 -0.0529 -0.0900  0.1082
12857TIP3    H159986   6.362   6.415   2.044 -1.2453  2.0254 -0.4007
12857TIP3    H259987   6.496   6.485   2.038  0.5510 -1.1280  0.3661
12858TIP3   OH259988   0.581   5.014  13.393 -0.2612 -0.1886  0.2246
12858TIP3    H159989   0.560   5.045  13.481 -0.0949  0.5346  0.0172
12858TIP3    H259990   0.598   4.920  13.404  0.7557  0.0876  1.1343
12859TIP3   OH259991   0.079   3.838   5.351  0.0409 -0.0696  0.1282
12859TIP3    H159992   0.126   3.756   5.363  0.0345  0.0542  1.1275
12859TIP3    H259993  -0.012   3.812   5.334  0.0012 -0.2779  0.6338
12860TIP3   OH259994   6.713   6.433  14.586  0.0279 -0.2567 -0.4982
12860TIP3    H159995   6.787   6.397  14.537 -0.2927 -1.0316 -0.4327
12860TIP3    H259996   6.729   6.527  14.589  1.4882 -0.5020  0.2850
12861TIP3   OH259997   0.093   6.141   3.210  0.3185 -0.1130  0.2752
12861TIP3    H159998   0.179   6.131   3.250 -0.9146 -1.3811  2.8221
12861TIP3    H259999   0.053   6.215   3.256 -0.8938 -1.1813  1.0117
12862TIP3   OH260000   4.794   0.564   4.258  0.0901  0.2949 -0.4048
12862TIP3    H160001   4.780   0.659   4.264  2.8816  0.7399  0.6637
12862TIP3    H260002   4.751   0.529   4.336 -0.3190  0.7698 -0.4067
12863TIP3   OH260003   1.760   6.378  13.529 -0.5739  0.9656  0.2113
12863TIP3    H160004   1.846   6.339  13.543 -1.0758 -1.2545 -2.1213
12863TIP3    H260005   1.776   6.452  13.470 -0.1763  1.3209  0.7497
12864TIP3   OH260006   3.590   0.260   2.300  0.0469  0.5193 -0.3105
12864TIP3    H160007   3.578   0.202   2.375 -3.1125  0.4743 -0.7009
12864TIP3    H260008   3.585   0.348   2.337  1.6106  0.5457 -0.1207
12865TIP3   OH260009   1.615   3.578  11.285 -0.8135  0.2280  0.8220
12865TIP3    H160010   1.529   3.611  11.262 -0.5378  0.6615  0.3931
12865TIP3    H260011   1.667   3.657  11.302 -0.6592 -0.0412  1.6593
12866TIP3   OH260012   6.329   3.537  10.208  0.3479  0.3123  0.3250
12866TIP3    H160013   6.382   3.520  10.130 -0.0509  1.2245 -0.1691
12866TIP3    H260014   6.334   3.632  10.220  0.5445  0.1688  1.5200
12867TIP3   OH260015   0.819   0.489   4.472 -0.5912 -0.1245 -0.5637
12867TIP3    H160016   0.891   0.552   4.465 -0.6436 -0.1132 -1.0201
12867TIP3    H260017   0.859   0.410   4.509 -0.4566  0.0625 -0.3090
12868TIP3   OH260018   3.517   1.911  14.929  0.8586 -0.4892  0.1104
12868TIP3    H160019   3.488   1.916  15.020  2.2651  0.1722  0.5514
12868TIP3    H260020   3.595   1.855  14.932  0.2665 -1.4171 -0.8835
12869TIP3   OH260021   1.741   2.500   3.168  0.1388  0.2746  0.3510
12869TIP3    H160022   1.797   2.483   3.093  0.6993 -1.6095  1.1330
12869TIP3    H260023   1.758   2.592   3.191  0.2110  0.7796 -1.5613
12870TIP3   OH260024   5.994   1.745   3.322 -0.0827 -0.0210  0.4357
12870TIP3    H160025   6.069   1.799   3.346  0.6155  0.1014 -1.8374
12870TIP3    H260026   5.962   1.711   3.405 -0.2393  3.4129  1.9490
12871TIP3   OH260027   1.338   1.934   5.525 -0.5497 -0.0105 -0.2071
12871TIP3    H160028   1.386   1.915   5.445  0.6441 -0.3252  0.5594
12871TIP3    H260029   1.322   1.848   5.565  1.9765  0.2536  1.6235
12872TIP3   OH260030   3.526   3.850   0.862  0.5886  0.9790 -0.6926
12872TIP3    H160031   3.538   3.825   0.954 -2.1832  1.8240  0.0094
12872TIP3    H260032   3.548   3.771   0.813 -0.1441 -0.2926  0.8933
12873TIP3   OH260033   2.192   0.448   5.356  0.2101  0.1844 -0.0608
12873TIP3    H160034   2.146   0.380   5.406 -0.6979  1.2761  0.6461
12873TIP3    H260035   2.282   0.417   5.351 -0.0706 -0.8313  0.6698
12874TIP3   OH260036   6.506   3.090  11.709  0.0912 -0.1044 -0.9916
12874TIP3    H160037   6.590   3.055  11.679  0.8199 -0.4805  1.2812
12874TIP3    H260038   6.460   3.015  11.747 -0.8297  0.3010 -1.2686
12875TIP3   OH260039   5.984   1.462  11.270  0.2642  0.1732 -0.0178
12875TIP3    H160040   6.069   1.427  11.295 -0.2711 -0.6535  0.7501
12875TIP3    H260041   5.923   1.390  11.287 -0.7070  1.0601  0.3743
12876TIP3   OH260042   5.286   2.330   0.063  0.0848 -0.1625  0.8444
12876TIP3    H160043   5.195   2.302   0.050  0.1251  0.6233 -1.6489
12876TIP3    H260044   5.279   2.424   0.081  0.4497  0.1795 -0.7161
12877TIP3   OH260045   5.532   6.700  14.629  0.2810  0.4564  0.4791
12877TIP3    H160046   5.490   6.683  14.545 -1.5350  3.1914  0.7018
12877TIP3    H260047   5.459   6.705  14.691  1.4754 -0.2469  1.9779
12878TIP3   OH260048   3.370   0.851   4.876  0.4987  0.1940  0.0304
12878TIP3    H160049   3.459   0.866   4.846  0.4073  0.6021 -0.0412
12878TIP3    H260050   3.315   0.870   4.800  0.4515 -2.0288 -0.5620
12879TIP3   OH260051   4.681   0.170   0.191 -0.4446  0.5811  0.4832
12879TIP3    H160052   4.639   0.165   0.278 -0.5543 -0.3671  0.3906
12879TIP3    H260053   4.762   0.121   0.201 -1.1419 -0.8078 -0.3129
12880TIP3   OH260054   4.417   4.993   4.014 -0.2458 -0.3045 -0.5173
12880TIP3    H160055   4.357   4.932   3.971 -0.5874  0.8857 -1.7983
12880TIP3    H260056   4.367   5.028   4.088 -0.5654 -0.4819 -0.6490
12881TIP3   OH260057   5.088   2.061  10.473 -0.6989  0.2850  0.0157
12881TIP3    H160058   5.170   2.071  10.423 -0.5429 -0.1194  0.1831
12881TIP3    H260059   5.103   1.983  10.527 -1.0674  0.4143  0.3032
12882TIP3   OH260060   1.085   4.918  14.851  0.1836  0.3609  0.9783
12882TIP3    H160061   1.139   4.942  14.926  2.2596 -0.9050 -0.0308
12882TIP3    H260062   1.017   4.862  14.887  1.3760 -0.5445  1.8790
12883TIP3   OH260063   2.369   6.515   0.349  0.3920  0.1376  0.0615
12883TIP3    H160064   2.370   6.601   0.392  1.3092  0.0288  0.2763
12883TIP3    H260065   2.405   6.532   0.262 -0.0207  0.0793 -0.1222
12884TIP3   OH260066   0.085   4.876   0.102  0.1515 -0.2325 -0.1038
12884TIP3    H160067   0.087   4.864   0.007 -2.0622 -0.3921 -0.1812
12884TIP3    H260068   0.008   4.827   0.130  0.7778 -0.2038  1.7949
12885TIP3   OH260069   3.974   4.181   2.679  0.1416  0.6995  0.1156
12885TIP3    H160070   3.907   4.229   2.728 -0.4534 -0.0725  0.0900
12885TIP3    H260071   3.981   4.229   2.596  0.6037  1.5680  0.6487
12886TIP3   OH260072   6.159   0.748  11.593  0.0813  0.0411  0.1951
12886TIP3    H160073   6.250   0.726  11.570 -0.1895  0.6262 -1.5565
12886TIP3    H260074   6.107   0.677  11.555 -0.4471  1.4500 -1.8404
12887TIP3   OH260075   3.775   6.094  14.867  0.2565  0.4401 -0.2965
12887TIP3    H160076   3.821   6.094  14.951 -0.2857  0.0276  0.0048
12887TIP3    H260077   3.723   6.013  14.867  0.3591  0.3603 -1.0893
12888TIP3   OH260078   0.358   0.882   3.581  0.1143 -0.0893 -0.6817
12888TIP3    H160079   0.323   0.887   3.492 -0.5402 -1.6751 -0.5570
12888TIP3    H260080   0.397   0.795   3.586  1.7307  0.6382  0.0505
12889TIP3   OH260081   3.238   7.104   3.019  0.0680  0.1117 -0.3328
12889TIP3    H160082   3.174   7.036   3.038  2.3047 -1.8357  0.9052
12889TIP3    H260083   3.262   7.140   3.105  1.1196  0.2598 -0.6640
12890TIP3   OH260084   0.020   2.958   2.426 -0.4561 -0.0258 -0.6025
12890TIP3    H160085   0.053   3.047   2.442  0.0811  0.0658 -2.0335
12890TIP3    H260086  -0.040   2.969   2.351 -0.6644 -0.8194 -0.5541
12891TIP3   OH260087   2.183   0.539  11.008 -0.7281  0.2437 -0.1957
12891TIP3    H160088   2.221   0.584  10.932  1.4416 -0.8185  0.1699
12891TIP3    H260089   2.098   0.507  10.978 -0.4159  0.8616 -1.8058
12892TIP3   OH260090   0.056   0.264   2.997 -0.9781  0.3283  0.1915
12892TIP3    H160091   0.025   0.345   2.956 -0.0856  0.6025  0.0354
12892TIP3    H260092   0.042   0.197   2.930  0.4456  0.7685 -0.6067
12893TIP3   OH260093   1.912   4.258  13.041  0.0065  0.0918  0.4947
12893TIP3    H160094   1.944   4.342  13.008 -1.3576 -0.2981 -2.0769
12893TIP3    H260095   1.972   4.193  13.006 -0.2441 -0.1759  0.5570
12894TIP3   OH260096   3.741   2.978   4.189  0.0586 -0.0644  0.5960
12894TIP3    H160097   3.708   3.059   4.228  0.2513  0.2419  0.1343
12894TIP3    H260098   3.737   2.914   4.260  0.2259  0.4320  1.0619
12895TIP3   OH260099   1.536   3.715  15.307  0.6614  0.2351  0.3812
12895TIP3    H160100   1.493   3.683  15.228  1.4497 -0.4351  0.2042
12895TIP3    H260101   1.578   3.797  15.280 -1.1410  1.3381  0.7674
12896TIP3   OH260102   0.369   0.710   0.692 -0.2670  0.8540  0.4420
12896TIP3    H160103   0.288   0.739   0.735 -0.7643 -0.4734  0.4594
12896TIP3    H260104   0.367   0.614   0.702  1.4598  0.8262  0.7155
12897TIP3   OH260105   2.507   0.563  13.717  0.5564 -0.2679 -0.2385
12897TIP3    H160106   2.542   0.652  13.721  1.3086 -0.4923 -1.2371
12897TIP3    H260107   2.553   0.523  13.643 -1.7347 -0.6395 -1.5579
12898TIP3   OH260108   1.404   4.712   4.360 -0.1597 -0.5291  0.0561
12898TIP3    H160109   1.453   4.681   4.284 -0.5882 -1.7563  0.2469
12898TIP3    H260110   1.471   4.738   4.423  0.2651 -1.6022  0.0770
12899TIP3   OH260111   2.120   3.426  11.107  0.0284 -0.4506 -0.8478
12899TIP3    H160112   2.133   3.388  11.194 -0.9436  0.6471 -0.1885
12899TIP3    H260113   2.080   3.355  11.056  1.9259 -1.5773 -0.8616
12900TIP3   OH260114   0.477   2.873   3.779  0.2972  0.0002  0.2461
12900TIP3    H160115   0.396   2.920   3.763  0.5343  0.7466  1.1610
12900TIP3    H260116   0.450   2.781   3.788 -0.5101  0.2968  1.0021
12901TIP3   OH260117   3.981   0.279   0.862  0.0928  0.4097 -0.4243
12901TIP3    H160118   4.004   0.319   0.946 -0.6425  1.9004 -0.9064
12901TIP3    H260119   3.894   0.314   0.842  0.5700  0.6551 -2.1667
12902TIP3   OH260120   0.328   3.164   1.806 -0.5778 -0.8285 -0.0958
12902TIP3    H160121   0.368   3.176   1.719 -0.8593 -0.9442 -0.2416
12902TIP3    H260122   0.327   3.252   1.844 -1.3727 -0.6045 -0.6120
12903TIP3   OH260123   4.317   5.882  15.187  0.6547 -0.2794  0.4509
12903TIP3    H160124   4.338   5.863  15.278 -0.1290 -1.5359  0.3898
12903TIP3    H260125   4.261   5.959  15.191  2.7672  1.3442  0.8078
12904TIP3   OH260126   1.936   5.847  11.586 -0.4508  0.0627 -0.3235
12904TIP3    H160127   1.942   5.825  11.678 -1.1607 -0.9041 -0.4930
12904TIP3    H260128   1.942   5.943  11.583 -0.6632  0.1128  0.7416
12905TIP3   OH260129   0.440   1.606   5.866 -0.2832 -0.0741 -0.4896
12905TIP3    H160130   0.349   1.617   5.838 -0.2999  1.1012 -0.0124
12905TIP3    H260131   0.460   1.686   5.914  1.1432 -0.1404 -0.9405
12906TIP3   OH260132   6.618   0.631  13.433 -0.0814 -0.3550 -0.1492
12906TIP3    H160133   6.593   0.593  13.348  1.4640 -2.6711  0.3291
12906TIP3    H260134   6.541   0.620  13.488 -0.5032 -0.4826 -0.7585
12907TIP3   OH260135   6.900   2.762   1.766  0.6488 -0.0227  0.5934
12907TIP3    H160136   6.841   2.687   1.770 -0.5750  0.9329  1.7686
12907TIP3    H260137   6.962   2.748   1.837 -0.8003  0.9638  2.1522
12908TIP3   OH260138   6.890   1.028  12.209 -0.2022  0.0347 -0.1717
12908TIP3    H160139   6.800   1.059  12.218  0.3205  1.9492 -1.2056
12908TIP3    H260140   6.938   1.072  12.279  0.1978  0.1679 -0.5224
12909TIP3   OH260141   3.700   2.179   5.560 -0.2083  0.1536 -0.0497
12909TIP3    H160142   3.661   2.107   5.610  3.2535 -2.1461 -0.3351
12909TIP3    H260143   3.760   2.136   5.499 -0.2068  3.1807 -2.3987
12910TIP3   OH260144   5.843   4.914  13.033 -0.4797  0.2772  0.3232
12910TIP3    H160145   5.925   4.866  13.048 -0.6905  0.0547  0.7902
12910TIP3    H260146   5.781   4.847  13.004 -0.6198  0.3640  0.4177
12911TIP3   OH260147   1.081   6.601   1.036 -0.1454  0.4895  0.4552
12911TIP3    H160148   1.163   6.632   0.997 -0.7148  1.9454  0.3697
12911TIP3    H260149   1.087   6.626   1.128  0.0308 -0.5537  0.7484
12912TIP3   OH260150   4.128   0.933  13.172  0.0445 -0.3447  0.3037
12912TIP3    H160151   4.130   1.017  13.126  0.5874 -0.9085 -0.7416
12912TIP3    H260152   4.220   0.911  13.187  0.0221 -1.7176 -1.2902
12913TIP3   OH260153   5.470   3.563   4.995  0.5948  0.4972 -0.3634
12913TIP3    H160154   5.437   3.476   5.018  1.2649  0.5332  0.7592
12913TIP3    H260155   5.560   3.564   5.027  0.7166  1.4736 -0.7119
12914TIP3   OH260156   5.531   2.419  12.312  0.0060 -0.2970 -0.7526
12914TIP3    H160157   5.581   2.459  12.240 -1.1890  1.1120 -0.8361
12914TIP3    H260158   5.596   2.407  12.382  1.5565 -3.1011 -2.4806
12915TIP3   OH260159   1.058   2.698  10.649 -0.2828  0.2370 -0.0493
12915TIP3    H160160   1.038   2.786  10.618 -0.5624  0.7228  1.4236
12915TIP3    H260161   1.152   2.697  10.662  0.2145 -0.7220 -3.0193
12916TIP3   OH260162   6.859   6.765   1.701 -0.3578 -0.2319 -0.1638
12916TIP3    H160163   6.867   6.670   1.694 -0.0727 -0.3316  1.1981
12916TIP3    H260164   6.945   6.799   1.676 -0.6387 -0.2702 -1.2491
12917TIP3   OH260165   5.349   0.711   4.329 -0.1675 -0.2870 -0.9732
12917TIP3    H160166   5.257   0.736   4.319 -0.5134 -0.7270  0.7873
12917TIP3    H260167   5.347   0.619   4.355  0.8982 -0.9234 -2.8780
12918TIP3   OH260168   0.745   3.715  12.843 -0.2733 -0.0925  0.2509
12918TIP3    H160169   0.655   3.740  12.824 -0.8834 -2.0546  0.3203
12918TIP3    H260170   0.741   3.620  12.858  1.6611 -0.0938  1.0908
12919TIP3   OH260171   5.818   4.255   1.163 -0.0639 -0.1739  0.1193
12919TIP3    H160172   5.803   4.162   1.176 -0.6600 -0.2314 -0.9378
12919TIP3    H260173   5.896   4.260   1.108 -0.5453 -0.0888 -0.5716
12920TIP3   OH260174   5.268   5.387   3.901 -0.1184  0.3402  0.1376
12920TIP3    H160175   5.321   5.313   3.930  1.5020 -0.0285 -3.2296
12920TIP3    H260176   5.188   5.346   3.866  0.3813  0.2222 -0.8994
12921TIP3   OH260177   6.628   6.320   1.007  0.1504  0.8019 -0.4172
12921TIP3    H160178   6.615   6.410   0.977  3.3668  1.1322 -1.1917
12921TIP3    H260179   6.646   6.271   0.927  1.1628  0.0664  0.2398
12922TIP3   OH260180   0.459   0.253  10.590 -0.3452 -0.1036  0.2367
12922TIP3    H160181   0.473   0.342  10.557  0.9123 -0.4152 -0.1273
12922TIP3    H260182   0.459   0.198  10.511 -0.0716 -0.5372  0.5331
12923TIP3   OH260183   5.797   5.342   2.407  0.2117 -0.0222  0.4747
12923TIP3    H160184   5.827   5.342   2.316  0.6337 -1.1805  0.5887
12923TIP3    H260185   5.735   5.414   2.412  0.8660  0.6350 -0.4999
12924TIP3   OH260186   0.724   6.489   3.178  0.3734  0.2681 -0.3080
12924TIP3    H160187   0.797   6.434   3.148 -2.2571 -2.4700 -2.1970
12924TIP3    H260188   0.708   6.550   3.106  1.0347  1.2341  0.3280
12925TIP3   OH260189   3.662   4.493  14.765  0.0921  0.5081 -0.0505
12925TIP3    H160190   3.702   4.579  14.750  2.4197 -0.1791  1.6710
12925TIP3    H260191   3.625   4.499  14.853 -1.2171  0.2255 -0.5599
12926TIP3   OH260192   7.096   6.276  15.004  0.0567 -0.8905  0.7543
12926TIP3    H160193   7.180   6.230  15.013  0.8114  0.2451 -0.1641
12926TIP3    H260194   7.114   6.365  15.034 -0.6981 -0.5126  0.1257
12927TIP3   OH260195   3.778   3.371   2.942  0.1859  0.6726  0.1585
12927TIP3    H160196   3.748   3.461   2.931  0.2309  0.5976 -0.6546
12927TIP3    H260197   3.719   3.334   3.007 -0.5862  0.9405 -0.3735
12928TIP3   OH260198   6.026   5.463   1.404 -0.6828  0.4321 -0.3926
12928TIP3    H160199   6.032   5.388   1.463 -0.6474  0.2908 -0.5735
12928TIP3    H260200   6.075   5.533   1.447  0.3310 -0.0194 -0.7984
12929TIP3   OH260201   3.439   5.571   5.281 -0.4099  0.1296 -0.0559
12929TIP3    H160202   3.413   5.517   5.355  0.0391  0.6753  0.5223
12929TIP3    H260203   3.481   5.648   5.322  1.0938 -0.2066 -0.9005
12930TIP3   OH260204   0.840   1.710  14.645 -0.3941  0.5353 -0.5026
12930TIP3    H160205   0.805   1.706  14.556 -2.4705  2.8508  0.0844
12930TIP3    H260206   0.764   1.726  14.701  0.6821 -1.8927  1.9012
12931TIP3   OH260207   0.010   2.496   1.649 -0.7631  0.0011 -0.2499
12931TIP3    H160208   0.027   2.404   1.628 -1.6393 -0.0969 -0.5614
12931TIP3    H260209  -0.023   2.534   1.567 -1.9844  0.1802  0.2983
12932TIP3   OH260210   2.689   3.980   1.974 -0.2547  0.4619 -0.4692
12932TIP3    H160211   2.695   4.061   1.923 -0.9252  0.2919 -0.8210
12932TIP3    H260212   2.776   3.941   1.967  0.0273  1.0594 -0.4383
12933TIP3   OH260213   7.132   2.995   1.208 -0.6924 -0.0014 -0.0180
12933TIP3    H160214   7.066   2.926   1.202 -0.1981 -0.3661 -1.5194
12933TIP3    H260215   7.081   3.076   1.212 -1.2578 -0.2294 -1.7617
12934TIP3   OH260216   3.667   4.098   0.327  0.0976 -0.3114 -0.1153
12934TIP3    H160217   3.729   4.116   0.398 -1.7926  1.1510  1.2734
12934TIP3    H260218   3.701   4.148   0.252  0.4844  0.6790  0.6900
12935TIP3   OH260219   0.328   0.233   3.405 -0.2925 -0.4709 -0.2898
12935TIP3    H160220   0.368   0.146   3.410  2.2701  0.6799  1.3211
12935TIP3    H260221   0.248   0.225   3.456  0.2439 -1.7528  0.4155
12936TIP3   OH260222   0.389   0.141  11.497  0.0916 -0.1203  0.0565
12936TIP3    H160223   0.298   0.121  11.520  0.1070  1.4467  1.6773
12936TIP3    H260224   0.427   0.057  11.472 -0.8747 -1.4431  2.7174
12937TIP3   OH260225   0.978   6.139   3.592 -0.1909  0.2183 -0.4828
12937TIP3    H160226   1.003   6.173   3.678 -0.4754  0.9433 -0.6842
12937TIP3    H260227   0.965   6.045   3.607  1.0530  0.1020 -0.0302
12938TIP3   OH260228   6.634   2.714  14.648  0.0090  0.2348  0.0639
12938TIP3    H160229   6.574   2.787  14.660 -1.1691 -0.6345 -0.3539
12938TIP3    H260230   6.716   2.755  14.619 -0.8367  1.3390 -0.8730
12939TIP3   OH260231   7.090   1.265  14.952 -0.2696 -0.1796 -0.2802
12939TIP3    H160232   7.183   1.245  14.940  0.0800  0.6537  0.8578
12939TIP3    H260233   7.076   1.343  14.898 -0.0161  0.3668  0.4261
12940TIP3   OH260234   2.563   5.130   0.657 -0.2734  0.1140 -0.3226
12940TIP3    H160235   2.550   5.114   0.750 -1.3414 -1.7578 -0.7305
12940TIP3    H260236   2.614   5.211   0.653 -0.8313  0.6436  1.8454
12941TIP3   OH260237   0.589   2.150   2.474  0.1592 -0.2177  0.4863
12941TIP3    H160238   0.569   2.136   2.381 -0.1465 -2.6511  0.8698
12941TIP3    H260239   0.684   2.141   2.479  0.1621 -0.2224  0.4275
12942TIP3   OH260240   2.819   5.093   3.463 -0.0372 -0.4247  0.3708
12942TIP3    H160241   2.738   5.065   3.421 -0.2591  0.8102 -0.0827
12942TIP3    H260242   2.873   5.015   3.466 -0.4258 -0.8048 -1.2903
12943TIP3   OH260243   2.841   0.594  15.363  0.3470  0.7778  0.1874
12943TIP3    H160244   2.896   0.670  15.380  0.6542  0.2562  1.6451
12943TIP3    H260245   2.833   0.551  15.448 -0.8402 -0.1424 -0.3645
12944TIP3   OH260246   2.163   0.879   4.160 -0.3144  0.0125  0.1662
12944TIP3    H160247   2.118   0.858   4.242 -0.3790  1.0361  0.4039
12944TIP3    H260248   2.185   0.793   4.122  2.2254 -0.5263  2.5909
12945TIP3   OH260249   2.809   3.623   1.560 -0.3047 -0.6929  0.7705
12945TIP3    H160250   2.731   3.675   1.544 -1.4571 -2.4357  0.5286
12945TIP3    H260251   2.800   3.595   1.651 -0.9096 -2.3716  0.2261
12946TIP3   OH260252   3.357   3.825  13.488 -0.2911 -0.0962 -0.0968
12946TIP3    H160253   3.284   3.875  13.523 -0.4485 -0.7700  0.5724
12946TIP3    H260254   3.394   3.781  13.564  0.7343  0.1330 -0.4514
12947TIP3   OH260255   6.303   3.604  13.802  0.3472  0.8939  0.0166
12947TIP3    H160256   6.251   3.527  13.779  0.5842  0.1920  1.6744
12947TIP3    H260257   6.391   3.570  13.818  0.2449  1.3242  1.6999
12948TIP3   OH260258   5.012   3.442  14.868  0.2221 -0.3477  0.4113
12948TIP3    H160259   5.053   3.446  14.954  0.7200 -0.2863  0.1716
12948TIP3    H260260   4.979   3.530  14.852  1.8171  0.1545 -0.2775
12949TIP3   OH260261   0.023   1.879   5.433 -0.3284 -0.3850 -0.3467
12949TIP3    H160262  -0.050   1.889   5.495  1.5296  1.0808  1.7775
12949TIP3    H260263   0.018   1.957   5.378 -1.7602 -1.5077 -1.9094
12950TIP3   OH260264   6.093   6.922   0.760 -0.0375 -0.4831  0.2104
12950TIP3    H160265   6.075   6.956   0.847 -0.5952 -0.3371  0.0456
12950TIP3    H260266   6.006   6.900   0.725 -0.0684  1.6499 -1.2060
12951TIP3   OH260267   1.758   0.943  10.692 -0.0339  0.0231 -0.1961
12951TIP3    H160268   1.812   0.864  10.698 -0.0391  0.0835  0.7840
12951TIP3    H260269   1.708   0.944  10.773 -0.1298  0.9726 -0.2558
12952TIP3   OH260270   1.055   1.107   3.591  0.3743  0.0699  0.4035
12952TIP3    H160271   1.131   1.155   3.624 -0.0872 -0.0824  1.7048
12952TIP3    H260272   1.043   1.141   3.502  1.3054  0.8797  0.5689
12953TIP3   OH260273   5.366   6.914   3.627  0.0630  0.3186 -0.3347
12953TIP3    H160274   5.337   6.895   3.716 -0.2686 -2.1442 -0.8869
12953TIP3    H260275   5.444   6.859   3.614 -0.6867 -0.4433 -1.9716
12954TIP3   OH260276   1.250   1.044   0.304  0.0472 -0.1987  0.0525
12954TIP3    H160277   1.267   1.103   0.231 -1.0255  0.0716  0.0123
12954TIP3    H260278   1.285   0.959   0.275 -3.9591 -1.2347 -2.6084
12955TIP3   OH260279   4.062   2.644   4.018 -0.6582  0.1115  0.1358
12955TIP3    H160280   4.116   2.569   4.044  0.7124  0.5416 -1.3502
12955TIP3    H260281   3.987   2.641   4.078 -0.5320 -2.3022  0.2573
12956TIP3   OH260282   6.542   0.242   2.056 -0.3394  0.8057  1.1727
12956TIP3    H160283   6.638   0.239   2.055 -0.3483 -0.2517  0.2974
12956TIP3    H260284   6.519   0.301   1.984 -0.3128 -2.1260 -1.4624
12957TIP3   OH260285   3.759   1.560  14.379  0.0978 -0.0917 -0.2345
12957TIP3    H160286   3.685   1.616  14.353 -0.5741 -0.1272  1.4710
12957TIP3    H260287   3.726   1.471  14.369  0.2256 -0.1296 -0.3214
12958TIP3   OH260288   0.763   1.663  14.388  1.0142  0.3016 -0.3161
12958TIP3    H160289   0.840   1.673  14.332 -0.3597  3.3543 -1.9593
12958TIP3    H260290   0.689   1.661  14.327 -0.4776  2.3970  1.2393
12959TIP3   OH260291   6.117   0.771   4.249 -0.7375  0.2181 -0.5230
12959TIP3    H160292   6.135   0.830   4.322 -2.1010  0.3711 -0.2838
12959TIP3    H260293   6.200   0.726   4.234 -0.1302  0.9832  0.3880
12960TIP3   OH260294   2.492   3.133   1.009  0.0779 -0.4082  0.2686
12960TIP3    H160295   2.536   3.184   1.077 -1.3423 -2.8314  3.2499
12960TIP3    H260296   2.539   3.049   1.008 -1.3045 -1.2046 -0.1384
12961TIP3   OH260297   6.970   3.161  14.073 -0.0550  0.0831  0.3916
12961TIP3    H160298   6.999   3.251  14.059 -0.3670  0.1107 -0.0784
12961TIP3    H260299   7.016   3.109  14.007 -0.8924  0.0980 -0.2239
12962TIP3   OH260300   1.655   3.036  13.113  0.1191 -0.8288  0.5771
12962TIP3    H160301   1.657   2.941  13.113  1.8329 -0.8751  2.2962
12962TIP3    H260302   1.747   3.062  13.109 -0.3069  0.7523  0.1529
12963TIP3   OH260303   1.599   5.571   9.504  0.2621 -0.1889  0.0494
12963TIP3    H160304   1.556   5.498   9.460  0.3927  0.3078 -0.9364
12963TIP3    H260305   1.640   5.532   9.582  1.8763 -1.5403 -1.3987
12964TIP3   OH260306   0.400   1.073  11.860 -0.2687  0.4980 -0.2522
12964TIP3    H160307   0.402   1.163  11.826  0.6744  0.4329 -0.4149
12964TIP3    H260308   0.308   1.054  11.873 -0.5606  1.0515 -1.3811
12965TIP3   OH260309   1.445   3.567   2.874  0.7573 -0.0369  0.2635
12965TIP3    H160310   1.440   3.658   2.844  1.6120 -0.1132 -0.1652
12965TIP3    H260311   1.354   3.539   2.881  0.4764  0.8849  0.5183
12966TIP3   OH260312   7.122   0.252   1.220 -0.3382  0.2187  0.1943
12966TIP3    H160313   7.158   0.336   1.250  1.7845 -1.3113  2.2978
12966TIP3    H260314   7.036   0.247   1.262 -1.7165  2.3577 -2.0398
12967TIP3   OH260315   3.335   1.528   2.608 -0.1750 -0.4672  0.2322
12967TIP3    H160316   3.316   1.563   2.521  1.5219 -0.1806 -0.0636
12967TIP3    H260317   3.344   1.606   2.664 -0.0641 -0.5945  0.3933
12968TIP3   OH260318   2.824   3.082  14.356 -0.1127 -0.6709 -0.6226
12968TIP3    H160319   2.834   3.147  14.286  0.3682 -0.8308 -0.7032
12968TIP3    H260320   2.797   3.002  14.311 -2.4537 -0.1164 -0.3640
12969TIP3   OH260321   5.350   6.342   9.968  0.1034 -0.0441 -0.0644
12969TIP3    H160322   5.441   6.340   9.998 -0.0768  0.9671  0.6064
12969TIP3    H260323   5.356   6.340   9.873  0.8478  0.3371 -0.0319
12970TIP3   OH260324   2.000   2.058  12.605  0.3469  0.1614  0.2583
12970TIP3    H160325   2.025   1.974  12.566  0.1456 -0.0295  0.5389
12970TIP3    H260326   2.042   2.057  12.692  3.0154  1.6873 -0.8903
12971TIP3   OH260327   1.462   5.309   2.187  0.1155  0.8756  0.3701
12971TIP3    H160328   1.458   5.237   2.250  0.0596  1.0937  0.6167
12971TIP3    H260329   1.431   5.270   2.105 -0.3219  0.7247  0.6012
12972TIP3   OH260330   5.784   6.940  13.775 -0.1204  0.8175  0.4222
12972TIP3    H160331   5.866   6.922  13.821 -0.4855 -1.6406  0.2613
12972TIP3    H260332   5.716   6.908  13.835 -0.9035  1.6920  0.0277
12973TIP3   OH260333   2.793   1.076  15.371 -0.7008  0.1866 -0.7110
12973TIP3    H160334   2.807   1.164  15.406 -0.5092  0.8570 -2.3671
12973TIP3    H260335   2.722   1.040  15.423  0.0992  0.7998  0.8709
12974TIP3   OH260336   4.762   3.689  13.573 -0.1935 -0.6988 -0.4593
12974TIP3    H160337   4.822   3.633  13.524 -0.6995 -1.3620 -0.3289
12974TIP3    H260338   4.817   3.728  13.642  0.4748  0.0769 -1.4016
12975TIP3   OH260339   6.155   2.615  12.723 -0.2179 -0.0657 -0.1106
12975TIP3    H160340   6.136   2.529  12.687 -0.2496  0.5534 -1.6286
12975TIP3    H260341   6.130   2.608  12.815  0.9704 -2.0568  0.1401
12976TIP3   OH260342   5.812   5.126  12.878 -0.7648  0.2486  0.1384
12976TIP3    H160343   5.793   5.069  12.803  2.5067 -1.1743  0.1881
12976TIP3    H260344   5.819   5.065  12.952  1.1439  0.8795  0.5303
12977TIP3   OH260345   3.733   3.752   9.968 -0.7300 -1.0205  0.0446
12977TIP3    H160346   3.751   3.827   9.912  0.0321  0.1678  1.7895
12977TIP3    H260347   3.641   3.763   9.993 -1.2161 -1.8305 -1.3346
12978TIP3   OH260348   2.898   1.287   2.021 -0.6661 -0.9193 -0.0671
12978TIP3    H160349   2.883   1.317   2.111  1.7432 -0.7522  0.3407
12978TIP3    H260350   2.876   1.362   1.966  2.1866  0.6302  0.7312
12979TIP3   OH260351   2.482   1.510   4.320 -0.0171 -0.6851  0.2367
12979TIP3    H160352   2.532   1.592   4.325 -0.9522 -0.1720  1.7937
12979TIP3    H260353   2.407   1.531   4.266  0.4572 -0.9277 -0.5316
12980TIP3   OH260354   0.614   2.044  14.496  0.1041 -0.6451  0.2094
12980TIP3    H160355   0.620   2.038  14.401  1.6510 -0.7070  0.2945
12980TIP3    H260356   0.656   1.964  14.529  0.2520 -0.2742  0.9513
12981TIP3   OH260357   6.249   6.155   4.543  0.0371 -0.6743 -0.2440
12981TIP3    H160358   6.169   6.176   4.590 -1.4916 -0.7586 -2.6269
12981TIP3    H260359   6.302   6.235   4.549 -0.7118 -0.2165  0.4357
12982TIP3   OH260360   6.068   0.733   1.806  0.2849 -0.0291 -0.5624
12982TIP3    H160361   6.081   0.640   1.824 -1.2676 -0.1115  0.2963
12982TIP3    H260362   5.995   0.736   1.744  1.2569  0.5741 -1.7178
12983TIP3   OH260363   6.340   2.864   5.730  0.3268  0.3428  0.1404
12983TIP3    H160364   6.383   2.780   5.715 -2.1425 -0.9881 -0.0234
12983TIP3    H260365   6.292   2.852   5.812 -1.6961  0.8085 -0.8926
12984TIP3   OH260366   2.312   5.302   5.061 -0.5036 -0.2581 -0.1512
12984TIP3    H160367   2.392   5.346   5.091 -0.9861 -0.3727  1.4072
12984TIP3    H260368   2.324   5.210   5.086 -1.1433 -0.2599  0.1720
12985TIP3   OH260369   6.871   3.207   2.026 -0.0907  0.2863 -0.1038
12985TIP3    H160370   6.840   3.120   2.052 -2.4942  0.9925 -0.3636
12985TIP3    H260371   6.934   3.189   1.956  0.1819 -1.2754  0.4878
12986TIP3   OH260372   2.594   1.022  12.123 -0.7222 -0.1792 -0.3027
12986TIP3    H160373   2.553   1.055  12.203 -1.2140  1.1250 -1.0701
12986TIP3    H260374   2.684   1.002  12.149 -1.1314 -0.6891  0.7969
12987TIP3   OH260375   0.795   5.152   5.446  0.6144  0.1710  0.1224
12987TIP3    H160376   0.873   5.154   5.391 -1.0218 -0.5875 -2.4479
12987TIP3    H260377   0.747   5.232   5.422 -0.6595 -0.7323 -0.4726
12988TIP3   OH260378   0.718   1.961   1.396  0.1587  0.3139  0.7214
12988TIP3    H160379   0.670   1.878   1.406  3.0367 -1.3643  1.6050
12988TIP3    H260380   0.809   1.938   1.412  1.1168  3.6505  0.6740
12989TIP3   OH260381   2.334   0.167  12.557  0.2547 -0.1206 -0.1646
12989TIP3    H160382   2.380   0.245  12.590  2.9717 -1.3067 -0.8397
12989TIP3    H260383   2.384   0.141  12.479 -1.4523 -1.7204 -0.8034
12990TIP3   OH260384   4.687   2.118   1.613 -0.3250 -0.2895 -0.2278
12990TIP3    H160385   4.732   2.169   1.546 -0.1885 -1.8018 -1.3508
12990TIP3    H260386   4.743   2.041   1.626 -1.3773 -1.0175  0.1280
12991TIP3   OH260387   0.721   0.417   1.872  0.5773 -0.0975  0.2007
12991TIP3    H160388   0.690   0.339   1.918 -4.6075  2.0076  0.9411
12991TIP3    H260389   0.732   0.482   1.941 -0.0721  1.1223 -0.8069
12992TIP3   OH260390   4.694   2.871  12.358  0.2992  0.3396  0.5272
12992TIP3    H160391   4.753   2.851  12.286 -1.3023  1.2734 -1.1074
12992TIP3    H260392   4.623   2.807  12.351 -0.1146  0.7339  0.9925
12993TIP3   OH260393   0.165   5.450   9.769 -0.1025  0.3709 -0.5051
12993TIP3    H160394   0.222   5.374   9.760 -0.1391  0.2182  0.5096
12993TIP3    H260395   0.206   5.516   9.713  2.1420  0.8647  1.5448
12994TIP3   OH260396   2.771   4.422   2.738 -0.3061 -0.1830  0.0447
12994TIP3    H160397   2.753   4.493   2.677  0.1973 -0.0985 -0.0074
12994TIP3    H260398   2.794   4.347   2.683  0.9257  0.1089  0.1404
12995TIP3   OH260399   0.546   2.117  12.841 -0.7211 -0.0923  0.6442
12995TIP3    H160400   0.602   2.065  12.899  0.1728 -1.9094 -1.6705
12995TIP3    H260401   0.457   2.084  12.858 -0.2402 -2.0483 -0.3367
12996TIP3   OH260402   5.468   0.037  15.057  0.5086 -0.6267  0.0503
12996TIP3    H160403   5.547   0.075  15.095  0.5400 -0.5448 -0.0971
12996TIP3    H260404   5.447   0.093  14.983 -0.5369  0.2458  0.9693
12997TIP3   OH260405   4.505   5.485   2.571 -0.1568  0.0272 -0.0379
12997TIP3    H160406   4.433   5.547   2.564 -0.3496 -0.1510  0.3425
12997TIP3    H260407   4.503   5.456   2.662  0.4539  0.0910  0.0035
12998TIP3   OH260408   5.306   0.807   4.035 -0.1395 -0.2458 -0.3559
12998TIP3    H160409   5.333   0.776   3.948  2.9596  0.7573  0.1067
12998TIP3    H260410   5.374   0.870   4.060 -0.8823 -0.5347  2.8478
12999TIP3   OH260411   2.280   5.872  14.235  0.1959 -0.1914  0.0218
12999TIP3    H160412   2.292   5.801  14.173 -0.4668 -0.5081  0.2504
12999TIP3    H260413   2.185   5.881  14.245  0.2832 -0.0134  0.8254
13000TIP3   OH260414   4.942   2.631  11.279  0.0938 -0.0869 -0.2713
13000TIP3    H160415   4.973   2.592  11.361  0.8115 -0.8197 -0.8822
13000TIP3    H260416   4.848   2.614  11.278 -0.2035  1.2102  1.0815
13001TIP3   OH260417   3.224   6.356   2.053 -0.4338  0.1568 -0.0906
13001TIP3    H160418   3.253   6.384   2.140  0.8481 -0.1411 -0.4061
13001TIP3    H260419   3.131   6.334   2.065  0.0381 -1.1560  1.5014
13002TIP3   OH260420   0.698   3.694  14.025 -0.0839  0.6269 -0.7648
13002TIP3    H160421   0.740   3.612  13.998 -1.2149  0.1598 -1.1600
13002TIP3    H260422   0.687   3.742  13.943 -0.9776  0.4236 -0.7696
13003TIP3   OH260423   1.724   4.824   1.710  0.4755  0.3578 -0.6104
13003TIP3    H160424   1.685   4.908   1.734  1.6101  1.2874 -1.8243
13003TIP3    H260425   1.815   4.845   1.690  0.5867 -1.0281 -1.7180
13004TIP3   OH260426   3.335   6.839   2.731  0.2277  0.5962  0.0948
13004TIP3    H160427   3.371   6.841   2.820  0.5580 -0.3160 -0.0089
13004TIP3    H260428   3.405   6.874   2.676  0.8875 -0.8891 -0.0669
13005TIP3   OH260429   6.609   3.838   3.658 -0.2110  0.5076  1.0896
13005TIP3    H160430   6.558   3.757   3.662 -0.2999  0.4827 -0.0857
13005TIP3    H260431   6.623   3.862   3.750 -0.8776 -0.3968  1.4492
13006TIP3   OH260432   2.587   0.809   2.570  0.0826  0.8607  0.0456
13006TIP3    H160433   2.492   0.818   2.562  0.0834  0.2940 -0.7641
13006TIP3    H260434   2.622   0.868   2.503  0.2849  0.7359  0.0388
13007TIP3   OH260435   0.499   3.203  15.181  0.2453  0.3079  0.0449
13007TIP3    H160436   0.442   3.133  15.211  1.2995 -0.2384  0.8820
13007TIP3    H260437   0.441   3.266  15.138 -1.1857  0.4428  2.0401
13008TIP3   OH260438   5.801   3.634   1.207 -0.4888 -0.4656  0.5347
13008TIP3    H160439   5.742   3.697   1.248  0.2571  0.2804  0.4630
13008TIP3    H260440   5.748   3.595   1.137 -0.4783  1.2233 -0.4622
13009TIP3   OH260441   3.226   5.135  12.091 -0.1815 -0.4943  0.6599
13009TIP3    H160442   3.178   5.203  12.139 -0.0584  0.9333 -1.1066
13009TIP3    H260443   3.318   5.158  12.103 -0.1583  0.2469 -0.6633
13010TIP3   OH260444   1.728   1.063  13.534  0.3982 -0.6843 -0.0922
13010TIP3    H160445   1.806   1.011  13.552  0.8170 -0.0973 -0.1470
13010TIP3    H260446   1.714   1.053  13.439  0.6779 -0.4353 -0.1622
13011TIP3   OH260447   4.472   3.216  14.967  0.5366 -0.0548  0.0276
13011TIP3    H160448   4.510   3.198  14.881  2.7317 -0.4109  0.9829
13011TIP3    H260449   4.520   3.293  14.998  0.2515 -0.3286  1.1908
13012TIP3   OH260450   1.684   2.574  11.374 -0.4739  0.3874  0.4814
13012TIP3    H160451   1.718   2.641  11.434 -2.5432  1.7991  0.2002
13012TIP3    H260452   1.652   2.624  11.299  2.7775 -1.3433 -2.3756
13013TIP3   OH260453   0.754   0.871  11.285 -0.5818 -0.0377 -0.2055
13013TIP3    H160454   0.829   0.831  11.329  0.7482  0.1882 -2.1547
13013TIP3    H260455   0.732   0.810  11.215 -0.0970  1.4142 -1.6822
13014TIP3   OH260456   6.572   2.097   5.663 -0.0565 -0.2416 -0.7975
13014TIP3    H160457   6.597   2.017   5.617 -0.2509 -0.5397 -0.3855
13014TIP3    H260458   6.536   2.068   5.746 -0.6498  0.2403 -0.8705
13015TIP3   OH260459   0.309   6.946  14.458  0.0238  0.0898  0.8055
13015TIP3    H160460   0.400   6.963  14.483  0.1387  1.0201 -0.1880
13015TIP3    H260461   0.268   7.032  14.458 -0.7996 -0.2983  0.9888
13016TIP3   OH260462   0.686   5.392   3.678 -0.1326  0.1203 -0.4009
13016TIP3    H160463   0.781   5.383   3.684 -0.1510 -0.8983 -1.3238
13016TIP3    H260464   0.666   5.473   3.726  1.0324 -0.4252  1.0532
13017TIP3   OH260465   6.811   0.227   2.059  0.2366  0.4242  0.4504
13017TIP3    H160466   6.872   0.269   2.121  2.7953 -1.5477 -0.5438
13017TIP3    H260467   6.859   0.150   2.027 -1.8093  0.1819 -2.3844
13018TIP3   OH260468   3.686   4.933  14.939  1.2374 -0.3148 -0.2714
13018TIP3    H160469   3.743   5.010  14.931  0.4572  0.3904  0.6509
13018TIP3    H260470   3.665   4.929  15.032 -0.6090 -0.2459 -0.6423
13019TIP3   OH260471   1.624   1.140  11.799  0.2986  0.5773  0.2475
13019TIP3    H160472   1.644   1.116  11.890  2.7919  0.6874 -0.1989
13019TIP3    H260473   1.642   1.234  11.795 -1.8599  1.0210  0.1052
13020TIP3   OH260474   7.023   1.421   4.904  0.3128 -0.0526 -0.0636
13020TIP3    H160475   6.985   1.435   4.818  0.1997  0.1943  0.0257
13020TIP3    H260476   7.096   1.484   4.908  0.3693 -0.1216 -0.0127
13021TIP3   OH260477   7.051   3.197   4.258  0.1521 -0.8594  0.1289
13021TIP3    H160478   7.063   3.288   4.230  3.0053  0.0563  3.4351
13021TIP3    H260479   6.969   3.198   4.308  0.0098 -0.1622 -0.1061
13022TIP3   OH260480   2.571   6.007   0.287 -0.0192 -0.2890 -0.3638
13022TIP3    H160481   2.544   5.917   0.271  0.6568 -0.4480 -0.6377
13022TIP3    H260482   2.545   6.024   0.377  1.8162 -1.4966  0.4420
13023TIP3   OH260483   5.849   3.343   1.694 -0.2040  0.7705  0.2853
13023TIP3    H160484   5.822   3.432   1.672  0.7504  0.4995 -2.3753
13023TIP3    H260485   5.790   3.287   1.644  1.1547  0.0368 -0.5757
13024TIP3   OH260486   5.548   2.842   4.052  0.0540 -0.3400  0.3819
13024TIP3    H160487   5.619   2.804   4.104 -0.7357  0.6726  2.2883
13024TIP3    H260488   5.478   2.777   4.057 -0.7980  0.6417  2.4905
13025TIP3   OH260489   2.355   5.100  15.457  0.3286 -0.4259  0.0267
13025TIP3    H160490   2.394   5.162  15.518  0.6598 -0.5240 -0.0837
13025TIP3    H260491   2.308   5.037  15.512  0.9042 -0.7081  0.2044
13026TIP3   OH260492   0.779   0.276   3.926  0.7438  0.2163  0.0243
13026TIP3    H160493   0.725   0.233   3.859  1.0237  1.2937 -0.9343
13026TIP3    H260494   0.868   0.247   3.907  0.5939 -1.2241  1.3422
13027TIP3   OH260495   0.283   2.768   3.967 -0.2414  0.5483 -0.0973
13027TIP3    H160496   0.353   2.771   4.032  0.7042  0.5180 -1.0785
13027TIP3    H260497   0.244   2.682   3.977  0.7887  0.0246 -0.4552
13028TIP3   OH260498   7.151   5.876   1.603  0.1623 -0.2280 -0.6271
13028TIP3    H160499   7.236   5.845   1.571 -0.0197  1.2051 -2.6748
13028TIP3    H260500   7.173   5.949   1.661  0.3392  1.0219 -2.2085
13029TIP3   OH260501   3.824   4.832  12.361 -0.3198  0.1885  0.0754
13029TIP3    H160502   3.786   4.744  12.370 -3.0986  1.1065 -1.5874
13029TIP3    H260503   3.852   4.837  12.270 -0.7719  1.2095 -0.0193
13030TIP3   OH260504   6.896   7.155   1.053  0.2285 -0.1026 -0.0663
13030TIP3    H160505   6.909   7.067   1.018 -3.4820 -0.3101 -1.3440
13030TIP3    H260506   6.821   7.148   1.112 -0.6835  2.2703 -0.7899
13031TIP3   OH260507   2.323   1.668   3.546 -0.0996 -0.1590 -0.2491
13031TIP3    H160508   2.274   1.743   3.510  1.5576  0.7853 -0.6485
13031TIP3    H260509   2.375   1.636   3.472 -0.6816 -1.6476 -0.0388
13032TIP3   OH260510   5.899   1.336   2.049 -0.1243  0.4208  0.4503
13032TIP3    H160511   5.863   1.373   2.130 -2.4005 -0.6053 -0.0261
13032TIP3    H260512   5.892   1.241   2.061  3.0973  0.0633  0.5416
13033TIP3   OH260513   6.730   1.119   2.763  0.4641 -0.1013 -0.1009
13033TIP3    H160514   6.815   1.146   2.729  0.7004 -0.3769  0.2675
13033TIP3    H260515   6.725   1.025   2.744 -0.0075  0.0324 -0.6480
13034TIP3   OH260516   0.148   2.337  11.184  0.1960 -0.1703  0.0049
13034TIP3    H160517   0.153   2.414  11.127  1.8301 -0.6550 -0.5764
13034TIP3    H260518   0.073   2.354  11.241 -0.9088  0.7764 -1.6358
13035TIP3   OH260519   1.498   6.371  10.677  0.1050 -0.2683 -0.3788
13035TIP3    H160520   1.517   6.353  10.769  0.1353 -1.6500 -0.6382
13035TIP3    H260521   1.549   6.449  10.657  0.1472  0.0172  0.7513
13036TIP3   OH260522   1.136   4.557  14.640  0.4059  0.2929  0.1375
13036TIP3    H160523   1.203   4.605  14.689  0.5958  0.8378 -0.6359
13036TIP3    H260524   1.114   4.615  14.567 -0.6385 -0.0494  0.1672
13037TIP3   OH260525   6.041   4.126   9.656 -0.3711  0.5265  1.0600
13037TIP3    H160526   6.070   4.203   9.609 -0.0728 -0.7393 -0.9371
13037TIP3    H260527   5.959   4.152   9.697 -0.7212  1.6611 -0.2945
13038TIP3   OH260528   2.268   5.802  14.661 -0.2180 -0.1309  0.7898
13038TIP3    H160529   2.341   5.845  14.706  1.2343 -2.3300  0.6804
13038TIP3    H260530   2.253   5.722  14.711 -0.7849 -1.0033 -0.7088
13039TIP3   OH260531   0.782   1.412  12.675  0.5236  0.2882  0.4858
13039TIP3    H160532   0.789   1.468  12.752 -0.1883 -1.2110  1.6956
13039TIP3    H260533   0.745   1.469  12.607 -0.6228  1.1628  1.7909
13040TIP3   OH260534   3.699   1.581  12.331  0.1615  0.1501  0.3328
13040TIP3    H160535   3.655   1.560  12.248 -0.2455 -1.0304  0.8193
13040TIP3    H260536   3.770   1.640  12.306 -0.0982  0.0034 -0.8288
13041TIP3   OH260537   5.147   5.956   4.749 -0.0533 -0.0134  0.1283
13041TIP3    H160538   5.103   5.993   4.826  1.0045  0.6298  0.4392
13041TIP3    H260539   5.105   5.871   4.737  0.4301 -0.5857  2.0290
13042TIP3   OH260540   6.012   4.648  14.734 -0.4917  0.9479 -0.3965
13042TIP3    H160541   6.019   4.704  14.811  1.7840  0.1577  0.0490
13042TIP3    H260542   6.083   4.584  14.744 -1.5270 -0.5581 -2.0501
13043TIP3   OH260543   1.859   1.734   0.676  0.0480 -0.1905  0.2543
13043TIP3    H160544   1.919   1.734   0.751 -0.6460 -0.0340  0.8235
13043TIP3    H260545   1.903   1.786   0.610  0.6164 -0.2197  0.6004
13044TIP3   OH260546   7.144   3.641  12.648 -0.0618 -0.2715  0.2363
13044TIP3    H160547   7.225   3.688  12.627 -0.3156 -0.4712 -1.3126
13044TIP3    H260548   7.082   3.710  12.669  0.1128 -0.0129 -0.0748
13045TIP3   OH260549   6.350   3.073  13.234  0.0562  0.3144 -0.2772
13045TIP3    H160550   6.272   3.095  13.285  0.4702  1.0232  0.0739
13045TIP3    H260551   6.417   3.055  13.300  0.5374  1.0199 -0.5628
13046TIP3   OH260552   1.956   6.864   3.818 -0.1735  0.0811  0.0054
13046TIP3    H160553   1.946   6.845   3.912 -2.3684 -1.4244 -0.4692
13046TIP3    H260554   1.911   6.948   3.806  1.0137  0.8051  0.4352
13047TIP3   OH260555   4.671   1.418   0.212  0.3946 -0.1110  0.1991
13047TIP3    H160556   4.733   1.448   0.278  1.3395 -1.4959 -0.0107
13047TIP3    H260557   4.724   1.398   0.135 -0.6426  1.1013 -0.8900
13048TIP3   OH260558   2.764   1.992   2.129  0.0283 -0.2337 -0.1553
13048TIP3    H160559   2.788   1.943   2.207  0.3812  0.8940  0.4572
13048TIP3    H260560   2.670   2.009   2.139  0.2509  0.6794  0.4761
13049TIP3   OH260561   7.099   3.607   2.750 -0.0967  0.1331 -0.0065
13049TIP3    H160562   7.126   3.698   2.738 -1.4915  0.6974  0.9355
13049TIP3    H260563   7.070   3.602   2.841 -1.4289 -0.8625 -0.4503
13050TIP3   OH260564   0.853   5.929  12.535  0.1861 -0.8591 -0.0011
13050TIP3    H160565   0.848   6.010  12.586  0.9356  0.2374 -1.5672
13050TIP3    H260566   0.764   5.917  12.500  0.1750 -0.4396 -0.1256
13051TIP3   OH260567   6.570   2.305  14.231 -0.3707  0.7850 -0.0501
13051TIP3    H160568   6.651   2.329  14.185  0.1714 -0.3788  0.2497
13051TIP3    H260569   6.530   2.239  14.174 -0.1394 -0.0178  0.6822
13052TIP3   OH260570   4.786   2.672  13.652 -0.0648  0.2169  0.6241
13052TIP3    H160571   4.855   2.720  13.697 -0.3527  0.6506  0.6086
13052TIP3    H260572   4.767   2.724  13.574 -0.2918  0.0144  0.5425
13053TIP3   OH260573   6.976   5.850  13.193  0.0120 -0.6634  0.5694
13053TIP3    H160574   6.952   5.768  13.237  0.1505 -0.6003  0.7626
13053TIP3    H260575   6.978   5.915  13.263  1.4217 -0.7989  0.6698
13054TIP3   OH260576   2.220   5.162   0.231 -0.1508  0.1585  0.2831
13054TIP3    H160577   2.141   5.111   0.247  0.8699 -1.9821 -1.0142
13054TIP3    H260578   2.281   5.134   0.299  1.2849 -2.4967 -1.8767
13055TIP3   OH260579   3.460   6.396   4.534 -0.5577 -0.3416  0.0242
13055TIP3    H160580   3.364   6.404   4.527 -0.6039 -1.4217 -0.9231
13055TIP3    H260581   3.493   6.445   4.459 -0.3606  0.0934  0.3949
13056TIP3   OH260582   4.094   3.934   2.697 -0.1348 -0.5952 -0.5891
13056TIP3    H160583   4.188   3.937   2.711 -0.5680 -0.2424  3.1907
13056TIP3    H260584   4.072   4.022   2.668  0.4292  0.1876  1.2344
13057TIP3   OH260585   6.611   2.491  14.862  0.0831  0.3657 -0.4753
13057TIP3    H160586   6.641   2.460  14.777 -2.5219  0.9588 -1.7037
13057TIP3    H260587   6.517   2.502  14.852 -0.8119 -1.9596  3.2567
13058TIP3   OH260588   3.372   2.268   2.969 -0.5984  0.1794  0.0295
13058TIP3    H160589   3.305   2.212   3.009  0.4034 -0.4758  0.8321
13058TIP3    H260590   3.422   2.302   3.043 -0.0931  0.7429 -0.5594
13059TIP3   OH260591   5.506   4.853  11.081 -0.0172 -0.1124 -0.0113
13059TIP3    H160592   5.508   4.948  11.073 -0.3458 -0.1478 -0.6028
13059TIP3    H260593   5.517   4.821  10.991  3.6485 -0.7237  0.4769
13060TIP3   OH260594   1.666   1.150  15.444 -0.0376  0.2631  0.2646
13060TIP3    H160595   1.641   1.140  15.536  0.6186 -1.5059  0.2881
13060TIP3    H260596   1.618   1.227  15.414 -1.3956  0.0229  1.6996
13061TIP3   OH260597   3.171   5.927   3.792 -0.1000  0.0943  0.0160
13061TIP3    H160598   3.190   5.899   3.703 -1.5995  2.8956 -1.3247
13061TIP3    H260599   3.247   5.981   3.816  0.4190 -0.8625  0.5581
13062TIP3   OH260600   5.592   1.879   1.391 -0.2693 -0.1821  0.3374
13062TIP3    H160601   5.552   1.926   1.463 -2.2981 -1.2764 -0.0101
13062TIP3    H260602   5.662   1.828   1.431  0.6129  1.4921  1.0189
13063TIP3   OH260603   1.089   0.012   2.723 -0.2516  0.5900 -0.1180
13063TIP3    H160604   1.162   0.012   2.661  0.9460  0.0156  1.2455
13063TIP3    H260605   1.115   0.074   2.791 -2.8009  3.4712 -1.4895
13064TIP3   OH260606   6.179   0.388   1.854 -0.2771 -0.3844  0.3072
13064TIP3    H160607   6.170   0.297   1.828  0.4466 -0.0153 -1.3385
13064TIP3    H260608   6.119   0.398   1.928 -1.2520 -1.8886 -0.2434
13065TIP3   OH260609   0.890   0.011   3.672 -0.1751  0.0002  0.1762
13065TIP3    H160610   0.963  -0.040   3.705  0.4655  1.8528  1.8146
13065TIP3    H260611   0.931   0.078   3.616 -1.0761 -1.7888 -2.8778
13066TIP3   OH260612   4.668   6.002   3.795  0.2533 -0.1919  0.2162
13066TIP3    H160613   4.705   6.077   3.750 -1.1456 -0.5645 -1.6924
13066TIP3    H260614   4.733   5.932   3.784 -0.3947 -0.5167 -2.0872
13067TIP3   OH260615   3.076   1.505   3.614 -0.1196 -0.4289 -0.3012
13067TIP3    H160616   3.076   1.456   3.696  2.2132 -1.6718 -0.9757
13067TIP3    H260617   3.074   1.438   3.545 -4.5282  0.5645 -1.4477
13068TIP3   OH260618   2.758   1.616  14.356  0.2221  0.2101 -0.5388
13068TIP3    H160619   2.739   1.567  14.435 -1.1510 -0.4704 -1.2509
13068TIP3    H260620   2.838   1.664  14.376  0.0529 -0.1455  1.1563
13069TIP3   OH260621   3.700   4.891   2.496  0.0566  0.3742 -0.0043
13069TIP3    H160622   3.635   4.959   2.514 -1.7693 -1.2780 -0.0111
13069TIP3    H260623   3.755   4.888   2.574 -0.3638  1.2484  0.3409
13070TIP3   OH260624   4.737   2.853  14.752  0.5839 -0.2880 -0.1063
13070TIP3    H160625   4.723   2.919  14.820  0.0503 -0.9413  0.4331
13070TIP3    H260626   4.813   2.885  14.703  0.8169  0.3278  0.6283
13071TIP3   OH260627   5.648   5.283  10.411 -0.0427 -0.0505  0.1011
13071TIP3    H160628   5.649   5.287  10.315 -0.2285 -0.1828  0.0923
13071TIP3    H260629   5.582   5.348  10.436  0.4076  0.3797  0.1634
13072TIP3   OH260630   0.227   1.533  14.647  0.4190  0.1292 -0.1016
13072TIP3    H160631   0.192   1.600  14.706  0.0300 -0.9934  0.9926
13072TIP3    H260632   0.159   1.523  14.580  0.5660  0.9453 -0.3833
13073TIP3   OH260633   2.633   3.524   0.132  0.3060  0.4195 -0.0547
13073TIP3    H160634   2.698   3.594   0.143 -1.0318  1.8386 -0.7827
13073TIP3    H260635   2.677   3.460   0.076  1.4374  0.8224  0.3253
13074TIP3   OH260636   5.922   3.925   3.940 -0.0064 -0.0536 -0.1223
13074TIP3    H160637   5.882   3.875   3.869  1.7059 -1.3175 -0.2539
13074TIP3    H260638   5.876   3.896   4.019 -0.2734 -0.4716 -0.4282
13075TIP3   OH260639   0.018   0.077  14.958  0.1554 -0.1867 -0.1361
13075TIP3    H160640   0.072   0.053  14.882  0.2347 -0.7816  0.0989
13075TIP3    H260641  -0.051   0.133  14.922 -0.2456 -1.0665 -0.7811
13076TIP3   OH260642   0.083   0.966  15.049 -0.1594 -0.6305  0.2021
13076TIP3    H160643   0.169   0.991  15.085 -0.8993  0.6251  1.2025
13076TIP3    H260644   0.035   0.930  15.123 -1.1507  0.4822  0.1368
13077TIP3   OH260645   6.340   0.270   4.182  0.4899  0.8286  0.1027
13077TIP3    H160646   6.299   0.185   4.197 -0.9474  1.3687 -0.6476
13077TIP3    H260647   6.350   0.276   4.087  1.0222  1.3079  0.1800
13078TIP3   OH260648   0.684   1.235  14.709  0.4287  0.5678 -0.3399
13078TIP3    H160649   0.674   1.140  14.707 -0.8988  0.6439  1.2071
13078TIP3    H260650   0.659   1.263  14.621 -0.3604 -0.4164 -0.4433
13079TIP3   OH260651   2.970   6.740   3.286  0.3549 -0.1010  0.3807
13079TIP3    H160652   3.020   6.659   3.281 -0.8264 -0.8243 -0.2529
13079TIP3    H260653   2.996   6.779   3.369  2.0502 -0.3588  0.0170
13080TIP3   OH260654   1.618   1.702   0.555  0.7168 -0.0005  0.0186
13080TIP3    H160655   1.660   1.661   0.480 -0.0215 -1.3285  0.3125
13080TIP3    H260656   1.691   1.729   0.611  1.2084 -1.7800  0.2768
13081TIP3   OH260657   4.300   7.154   4.656 -0.0782  0.0917 -0.2674
13081TIP3    H160658   4.264   7.242   4.670  0.4142  0.2587 -0.0067
13081TIP3    H260659   4.259   7.124   4.575 -0.6506  0.3497 -0.0836
13082TIP3   OH260660   4.767   6.496   0.860 -1.1071 -0.6186  0.8781
13082TIP3    H160661   4.773   6.434   0.788 -0.6333  0.6010 -0.1817
13082TIP3    H260662   4.857   6.506   0.892 -0.4162  2.2766 -1.4770
13083TIP3   OH260663   3.626   5.604  12.790 -0.2183 -0.5404  0.2280
13083TIP3    H160664   3.601   5.645  12.707 -2.0721 -0.6268  0.7015
13083TIP3    H260665   3.682   5.668  12.833 -1.3080  0.5962 -0.0005
13084TIP3   OH260666   6.887   3.394   0.517 -0.6795 -0.3210 -0.2426
13084TIP3    H160667   6.923   3.396   0.606  0.4320 -0.9178 -0.6518
13084TIP3    H260668   6.798   3.427   0.526  0.5827  3.3747  0.5205
13085TIP3   OH260669   0.623   5.922   1.379  0.2843 -0.2520  0.4747
13085TIP3    H160670   0.602   5.989   1.444 -0.4887 -0.5741  0.5720
13085TIP3    H260671   0.702   5.954   1.336  0.5898  0.1511  1.3102
13086TIP3   OH260672   3.395   2.435   3.402  0.1266  0.1110 -0.3777
13086TIP3    H160673   3.476   2.429   3.454  1.2355  0.6152 -1.9560
13086TIP3    H260674   3.409   2.375   3.329 -0.8629  0.3277 -0.7603
13087TIP3   OH260675   1.998   6.558  14.283 -0.3702  0.9598  0.0219
13087TIP3    H160676   2.040   6.639  14.312  1.0398  0.2957 -0.0968
13087TIP3    H260677   2.029   6.491  14.344 -1.3829  0.4655  0.0132
13088TIP3   OH260678   2.058   6.116  11.100  0.1511 -0.0150  0.1955
13088TIP3    H160679   2.048   6.205  11.066  0.5489  0.2514  0.7590
13088TIP3    H260680   1.983   6.068  11.064  0.8172  0.1201 -1.4535
13089TIP3   OH260681   3.784   2.642   5.182 -0.0034 -0.0942  0.1303
13089TIP3    H160682   3.874   2.617   5.161 -0.2115  0.7630 -2.0021
13089TIP3    H260683   3.737   2.559   5.191  0.8940 -0.5372  0.8791
13090TIP3   OH260684   6.919   1.231   3.857  0.0355  0.2937  0.4259
13090TIP3    H160685   6.880   1.205   3.773 -0.8236  0.6469  0.7076
13090TIP3    H260686   7.004   1.268   3.832  0.7969 -1.6525 -0.0758
13091TIP3   OH260687   1.188   5.023   0.048 -0.2451  0.0168  0.3982
13091TIP3    H160688   1.181   5.080   0.125 -0.4337 -0.3772  0.6736
13091TIP3    H260689   1.164   4.936   0.080  0.6390 -0.3415  0.1217
13092TIP3   OH260690   4.841   2.904   9.565 -0.7196 -0.5430 -0.3941
13092TIP3    H160691   4.932   2.876   9.565 -0.5332  0.0300  0.0840
13092TIP3    H260692   4.837   2.975   9.501 -0.5082  0.3860  0.5983
13093TIP3   OH260693   3.679   4.784   1.681  0.1174 -0.4801 -0.7802
13093TIP3    H160694   3.677   4.877   1.656 -2.5888 -0.2870 -0.1515
13093TIP3    H260695   3.742   4.781   1.753  2.1758  0.3367 -2.4370
13094TIP3   OH260696   3.371   3.426   4.136  0.2987  0.0588  0.3444
13094TIP3    H160697   3.280   3.452   4.119  0.6090  0.7707 -0.2808
13094TIP3    H260698   3.381   3.435   4.230 -0.4596 -0.6285  0.5077
13095TIP3   OH260699   3.997   6.619  13.680 -0.2205  0.6181  0.3746
13095TIP3    H160700   4.004   6.587  13.590  0.4491 -1.1912  1.0206
13095TIP3    H260701   3.929   6.563  13.720 -0.7019  1.5738  0.9277
13096TIP3   OH260702   5.910   4.998   1.934  0.3491  0.4399  0.5172
13096TIP3    H160703   6.000   5.018   1.960  0.8000 -0.1308 -0.5793
13096TIP3    H260704   5.888   4.919   1.984  0.7151  0.1693  0.2598
13097TIP3   OH260705   5.084   6.603  11.023  0.1277 -0.0493 -0.5041
13097TIP3    H160706   5.072   6.562  10.937 -1.0289  1.1238 -0.9344
13097TIP3    H260707   4.998   6.639  11.045  0.3873 -0.3757  1.1871
13098TIP3   OH260708   0.821   2.847   4.257  0.5293  0.7343 -0.6458
13098TIP3    H160709   0.865   2.898   4.324 -1.6976  1.2596  0.5213
13098TIP3    H260710   0.748   2.902   4.229 -0.9013 -1.0665 -0.6583
13099TIP3   OH260711   6.693   6.346   1.270 -0.2327 -0.7246  0.1777
13099TIP3    H160712   6.657   6.323   1.185 -0.5825  0.6989 -0.0902
13099TIP3    H260713   6.752   6.419   1.252 -0.2419 -0.4663  1.1328
13100TIP3   OH260714   6.677   6.223   4.723 -0.9321 -0.0026 -0.4126
13100TIP3    H160715   6.713   6.312   4.725 -0.2946 -0.2679  0.0714
13100TIP3    H260716   6.753   6.166   4.737 -1.4270 -0.6016 -0.1411
13101TIP3   OH260717   7.000   6.000   1.001  0.4120 -0.2835 -0.5432
13101TIP3    H160718   7.060   5.933   1.034 -1.7720 -1.9780  0.2912
13101TIP3    H260719   7.048   6.042   0.929  2.0694 -2.4574 -0.8310
13102TIP3   OH260720   0.177   4.216   3.237 -0.0500  0.0645 -0.0814
13102TIP3    H160721   0.134   4.133   3.256 -1.7396  1.2171  1.4656
13102TIP3    H260722   0.270   4.197   3.246 -0.4084 -1.5671  0.6666
13103TIP3   OH260723   6.013   1.116  13.343 -0.2610 -0.6210  0.0650
13103TIP3    H160724   6.049   1.134  13.256 -0.5586 -0.9667 -0.1303
13103TIP3    H260725   6.049   1.186  13.398  1.4867 -1.4688  0.0914
13104TIP3   OH260726   6.170   5.350   0.953  1.0041 -0.0108 -0.2743
13104TIP3    H160727   6.138   5.405   0.880 -0.3196  0.1642  0.4048
13104TIP3    H260728   6.256   5.386   0.974  0.2463  1.7285  0.0315
13105TIP3   OH260729   0.670   3.385   1.783 -0.3588  0.1152  0.1815
13105TIP3    H160730   0.607   3.437   1.733  0.5631 -0.1882 -1.3249
13105TIP3    H260731   0.643   3.294   1.769  0.7148 -0.0493 -0.9279
13106TIP3   OH260732   6.832   3.618   2.884  0.3405 -0.2964  0.6332
13106TIP3    H160733   6.820   3.607   2.979  2.3234  0.0577  0.9690
13106TIP3    H260734   6.773   3.690   2.861 -1.3571 -1.4173  1.2640
13107TIP3   OH260735   0.185   5.257   5.191 -0.3908  0.4186  0.1982
13107TIP3    H160736   0.101   5.244   5.235 -1.3890  0.3014 -1.6790
13107TIP3    H260737   0.231   5.320   5.248 -1.2513 -0.3660  1.8471
13108TIP3   OH260738   6.400   3.205   4.709  0.1587 -0.4020  0.2263
13108TIP3    H160739   6.401   3.141   4.780  0.3315  0.8762  1.4034
13108TIP3    H260740   6.469   3.267   4.731  1.9028 -1.2761 -2.3289
13109TIP3   OH260741   4.727   6.767  13.433 -0.2618 -0.4462 -0.1890
13109TIP3    H160742   4.656   6.802  13.378  2.8095  3.0199 -2.4395
13109TIP3    H260743   4.723   6.820  13.513  0.7301  1.0823 -1.0863
13110TIP3   OH260744   0.699   1.807  15.002  0.1323 -0.3013 -0.5238
13110TIP3    H160745   0.789   1.797  14.972  0.2469 -0.3429 -0.1767
13110TIP3    H260746   0.662   1.874  14.945  0.5508  0.1170 -0.3163
13111TIP3   OH260747   2.040   0.838  11.430 -0.7270  0.4549 -0.3011
13111TIP3    H160748   2.067   0.770  11.368  0.0469  0.1857  0.3182
13111TIP3    H260749   2.046   0.919  11.379 -0.4563  0.1944 -0.6928
13112TIP3   OH260750   6.919   0.390  11.231 -0.0426  0.1821  0.2584
13112TIP3    H160751   6.906   0.369  11.138 -1.1376 -0.8838  0.6237
13112TIP3    H260752   7.014   0.400  11.240  0.4703 -2.9497 -0.3855
13113TIP3   OH260753   6.121   0.517   3.292  0.3603  0.4837  0.1621
13113TIP3    H160754   6.206   0.523   3.248  1.3607 -0.0386  1.9192
13113TIP3    H260755   6.062   0.570   3.238  2.1257  2.0776 -0.3180
13114TIP3   OH260756   2.009   0.672  13.522 -0.0896 -0.0357 -0.1592
13114TIP3    H160757   1.998   0.606  13.453 -1.1846 -0.0544  0.0144
13114TIP3    H260758   2.076   0.635  13.580 -1.3588 -1.4619  0.4516
13115TIP3   OH260759   4.724   6.501  13.454  0.3860 -0.9791 -1.0190
13115TIP3    H160760   4.646   6.473  13.503 -0.4432 -2.1786 -2.9304
13115TIP3    H260761   4.714   6.596  13.447  0.0657 -0.8813  0.3136
13116TIP3   OH260762   0.080   3.605   0.363  0.2757  1.0170  0.9620
13116TIP3    H160763   0.159   3.574   0.407  0.8448  1.4292  0.2567
13116TIP3    H260764   0.079   3.699   0.379 -0.0362  1.0242  0.9017
13117TIP3   OH260765   7.041   6.487   0.049 -0.3724 -0.5599 -0.0552
13117TIP3    H160766   7.031   6.416  -0.014 -0.5272  0.9121 -1.7744
13117TIP3    H260767   7.123   6.530   0.025  0.3483 -0.8449  1.7164
13118TIP3   OH260768   1.616   4.136   1.344  0.3624  0.5167  0.4975
13118TIP3    H160769   1.701   4.177   1.327  0.1315  1.0447  0.5898
13118TIP3    H260770   1.572   4.137   1.259  0.2080  0.8116  0.5799
13119TIP3   OH260771   5.815   4.558   1.710  0.3723  0.1683 -0.3906
13119TIP3    H160772   5.823   4.472   1.669  2.5526  0.3652 -0.4547
13119TIP3    H260773   5.878   4.557   1.782 -0.4000  1.3210  0.3402
13120TIP3   OH260774   1.990   4.975  12.704 -0.5386 -0.4410 -0.3806
13120TIP3    H160775   2.081   4.948  12.692 -0.2079 -0.8638  2.4273
13120TIP3    H260776   1.983   4.995  12.797 -2.8488  1.5014 -0.8658
13121TIP3   OH260777   0.442   5.672   0.750  0.0234 -0.0592  0.1450
13121TIP3    H160778   0.423   5.701   0.661 -0.8340 -0.0827  0.3045
13121TIP3    H260779   0.537   5.672   0.757  0.0682  0.8732 -0.4568
13122TIP3   OH260780   2.949   3.716  10.831 -0.0765 -0.4149 -0.0674
13122TIP3    H160781   2.943   3.807  10.863 -1.5216 -0.3284 -0.4858
13122TIP3    H260782   2.970   3.665  10.910 -0.2922  0.1733  0.3836
13123TIP3   OH260783   5.806   1.397   4.992  0.1840 -0.1397 -0.0423
13123TIP3    H160784   5.813   1.487   4.961 -1.5044 -1.1341 -3.9753
13123TIP3    H260785   5.887   1.355   4.963 -0.1216 -0.3958 -0.5618
13124TIP3   OH260786   2.928   0.505   2.296  0.4203 -0.2514 -0.6390
13124TIP3    H160787   3.003   0.502   2.237  1.7685 -0.6164  1.0004
13124TIP3    H260788   2.866   0.442   2.260  1.1942 -0.4658 -1.6390
13125TIP3   OH260789   5.359   0.975   1.747 -0.1067 -0.3903 -0.0650
13125TIP3    H160790   5.320   0.936   1.669 -2.8356 -1.2490  1.6047
13125TIP3    H260791   5.334   1.067   1.743  0.0617 -0.3539 -0.3417
13126TIP3   OH260792   1.716   6.497   0.347 -0.2606 -0.3730  0.8162
13126TIP3    H160793   1.760   6.460   0.271 -1.3329  1.6771 -0.9079
13126TIP3    H260794   1.747   6.588   0.351 -2.9168  0.6411  0.5527
13127TIP3   OH260795   1.724   0.329   3.918  0.4292 -0.1245 -0.6585
13127TIP3    H160796   1.747   0.238   3.898 -0.4022 -0.6496  0.6085
13127TIP3    H260797   1.674   0.358   3.842 -1.9220 -1.7771  0.1056
13128TIP3   OH260798   4.655   6.415  14.538 -0.7569  0.1164 -0.8769
13128TIP3    H160799   4.733   6.461  14.570 -1.0681  0.6645 -0.8957
13128TIP3    H260800   4.660   6.422  14.443  0.2198 -1.5968 -0.9978
13129TIP3   OH260801   1.130   0.163   0.880 -0.4425 -0.0982  0.8792
13129TIP3    H160802   1.047   0.120   0.901  0.5241 -1.7563  1.5112
13129TIP3    H260803   1.132   0.166   0.784 -1.1167 -0.2811  0.8557
13130TIP3   OH260804   7.067   3.715  12.198  0.3117 -0.5029 -0.1446
13130TIP3    H160805   7.003   3.710  12.268 -0.8911  0.3490 -1.1217
13130TIP3    H260806   7.018   3.694  12.119  1.7314 -1.8968 -0.7063
13131TIP3   OH260807   7.114   1.504  13.665 -0.5818  0.2371  0.2159
13131TIP3    H160808   7.086   1.432  13.721 -1.9830  0.6437  0.0831
13131TIP3    H260809   7.209   1.495  13.659 -0.5788 -0.7213  1.3922
13132TIP3   OH260810   2.357   3.989  14.763 -0.1283  0.1873  0.2120
13132TIP3    H160811   2.329   3.898  14.771 -1.4434  0.4275 -1.1316
13132TIP3    H260812   2.289   4.039  14.808  1.2715  0.4899  2.1459
13133TIP3   OH260813   3.806   0.550  12.304 -0.0269 -0.0238 -0.1298
13133TIP3    H160814   3.819   0.475  12.247 -1.9670 -0.3039 -0.2684
13133TIP3    H260815   3.870   0.538  12.375  1.2246 -0.5681 -1.3124
13134TIP3   OH260816   1.238   0.568   3.945 -0.1005 -0.1436  0.3183
13134TIP3    H160817   1.185   0.644   3.967  1.5127  1.8102 -1.9550
13134TIP3    H260818   1.327   0.592   3.973  0.3784 -1.3250 -0.1231
13135TIP3   OH260819   4.275   1.831   4.856  0.4530  0.3445  0.2841
13135TIP3    H160820   4.219   1.894   4.901 -1.7012 -1.9848  1.0741
13135TIP3    H260821   4.219   1.754   4.844  3.2998 -1.8872  0.4606
13136TIP3   OH260822   4.438   6.996  15.361 -0.0399  0.1198 -0.4042
13136TIP3    H160823   4.407   7.082  15.389  2.1830  0.1074  2.6219
13136TIP3    H260824   4.367   6.936  15.386 -1.5799  0.9397 -2.4801
13137TIP3   OH260825   2.297   7.042   2.958 -0.5277  0.7565  0.1630
13137TIP3    H160826   2.384   7.060   2.992 -0.4796 -0.5737  0.7996
13137TIP3    H260827   2.311   6.984   2.884 -0.8517  0.9668 -0.0715
13138TIP3   OH260828   5.208   4.104  12.843 -0.5857 -0.2029  0.1541
13138TIP3    H160829   5.194   4.111  12.938 -0.3660 -1.2932  0.2901
13138TIP3    H260830   5.190   4.191  12.809 -1.5743 -0.0221  1.0895
13139TIP3   OH260831   2.631   1.430   3.511 -0.1480  0.0776  0.7122
13139TIP3    H160832   2.687   1.490   3.559  2.6608 -0.6637 -1.3560
13139TIP3    H260833   2.638   1.458   3.420  0.0209 -2.3708 -0.1042
13140TIP3   OH260834   5.529   6.544   1.793 -0.0564 -0.3515 -0.2347
13140TIP3    H160835   5.605   6.521   1.846 -1.0814 -0.0140  1.4581
13140TIP3    H260836   5.457   6.494   1.831 -1.2329  1.4352  0.0339
13141TIP3   OH260837   1.684   0.688  13.249 -0.4385  0.6576  0.2584
13141TIP3    H160838   1.668   0.649  13.163 -0.2442  0.0127  0.5079
13141TIP3    H260839   1.705   0.779  13.230 -0.3174  0.5034 -0.3847
13142TIP3   OH260840   1.639   0.750   1.897 -0.3369 -0.5732 -0.3909
13142TIP3    H160841   1.669   0.717   1.812  4.0589  0.2484  0.5596
13142TIP3    H260842   1.624   0.672   1.950  0.3527 -1.0952 -0.9442
13143TIP3   OH260843   6.527   5.930  10.086 -0.5860 -0.0882 -0.4497
13143TIP3    H160844   6.514   5.949   9.993  1.4793  0.6826 -0.6224
13143TIP3    H260845   6.570   6.008  10.120  0.8905 -1.3200  0.6099
13144TIP3   OH260846   2.704   1.633   2.417  0.7901 -0.0929  0.0173
13144TIP3    H160847   2.685   1.677   2.500 -0.0114 -0.2793 -0.0622
13144TIP3    H260848   2.697   1.540   2.437 -0.8533 -0.1266 -0.5717
13145TIP3   OH260849   5.746   1.507   1.214 -0.0720 -0.2544 -0.6741
13145TIP3    H160850   5.699   1.424   1.228 -0.3223 -0.3643 -2.0745
13145TIP3    H260851   5.677   1.572   1.200  0.1461 -0.2845 -2.0241
13146TIP3   OH260852   4.871   5.298   0.243  0.2827 -0.0570 -0.8581
13146TIP3    H160853   4.965   5.309   0.259  0.1537 -0.1194 -0.0388
13146TIP3    H260854   4.858   5.204   0.239 -0.2452 -0.2166  2.3091
13147TIP3   OH260855   1.624   5.327  10.036 -0.3047  0.0723  0.7623
13147TIP3    H160856   1.712   5.316  10.001 -0.2126  0.7400  0.7707
13147TIP3    H260857   1.568   5.340   9.959  0.0166  2.3647  0.8316
13148TIP3   OH260858   1.124   2.537  13.802 -0.3114 -0.1050 -0.0818
13148TIP3    H160859   1.040   2.580  13.819 -0.0541  0.5807 -0.5165
13148TIP3    H260860   1.171   2.598  13.745  0.7040 -0.2249  0.6143
13149TIP3   OH260861   2.528   3.284  12.924 -0.9251  0.1293  0.1808
13149TIP3    H160862   2.612   3.312  12.888 -1.2937  1.5905  0.3866
13149TIP3    H260863   2.521   3.191  12.900 -0.3018  0.5502 -1.8078
13150TIP3   OH260864   5.843   3.309  13.700 -0.1889 -0.1871 -0.4879
13150TIP3    H160865   5.908   3.249  13.664  0.6582  1.2454 -1.4427
13150TIP3    H260866   5.827   3.371  13.629 -1.4239  0.4142  0.2943
13151TIP3   OH260867   1.199   5.485   0.581  0.4744 -0.5102 -0.0062
13151TIP3    H160868   1.157   5.504   0.666 -0.6916  3.2547 -1.2090
13151TIP3    H260869   1.139   5.425   0.538  0.0358 -0.8597  1.0486
13152TIP3   OH260870   6.106   3.066  12.970  0.4835  0.5564 -0.0151
13152TIP3    H160871   6.177   3.036  13.027  1.4697 -1.4169 -2.1123
13152TIP3    H260872   6.056   2.987  12.951  0.8614  0.8854 -2.7163
13153TIP3   OH260873   2.537   2.721  14.404  0.1149 -0.5255 -0.8098
13153TIP3    H160874   2.515   2.814  14.414 -0.6679 -0.7953  0.2339
13153TIP3    H260875   2.618   2.721  14.354 -0.1857  0.6970 -1.3479
13154TIP3   OH260876   5.633   6.296   0.853  0.4869 -0.2919  0.3487
13154TIP3    H160877   5.565   6.300   0.920  1.4741  0.0531  1.3766
13154TIP3    H260878   5.690   6.371   0.872  0.8732 -0.2710 -0.8006
13155TIP3   OH260879   2.295   6.846  15.007  0.4744 -0.1192 -0.0163
13155TIP3    H160880   2.306   6.787  14.933 -0.5881  0.0773 -0.3603
13155TIP3    H260881   2.276   6.931  14.967 -1.3234 -0.2607  0.4486
13156TIP3   OH260882   2.531   0.257  11.458  0.7010 -0.0748  0.3511
13156TIP3    H160883   2.492   0.287  11.539 -0.0843 -0.7737  0.2517
13156TIP3    H260884   2.497   0.315  11.391  1.0361  0.2549  0.4634
13157TIP3   OH260885   6.312   6.193   3.334 -0.4513  0.2424  0.0213
13157TIP3    H160886   6.251   6.122   3.354  0.4383 -0.7491 -0.6787
13157TIP3    H260887   6.398   6.152   3.337 -0.0390  0.7493 -2.5766
13158TIP3   OH260888   0.218   6.695  12.750  0.6066 -0.0922 -0.6873
13158TIP3    H160889   0.191   6.634  12.819 -0.3104  1.3107  0.2645
13158TIP3    H260890   0.137   6.715  12.702  0.3355  2.1402  0.5262
13159TIP3   OH260891   6.179   5.600  13.659 -0.5316 -0.5505  0.1745
13159TIP3    H160892   6.149   5.522  13.706  1.6057 -1.1505  0.6856
13159TIP3    H260893   6.183   5.668  13.726  1.7480 -1.1977  0.7826
13160TIP3   OH260894   2.654   0.092  12.011  0.0585 -0.4959 -0.0715
13160TIP3    H160895   2.617   0.023  11.956  1.2409 -1.0190 -0.2451
13160TIP3    H260896   2.583   0.155  12.021 -0.8420 -1.4237 -0.4404
13161TIP3   OH260897   3.167   0.647   2.674 -0.0195  0.0958 -0.2054
13161TIP3    H160898   3.238   0.707   2.652  0.0597  0.1116  0.0813
13161TIP3    H260899   3.114   0.695   2.737 -0.3826  0.1476 -0.5545
13162TIP3   OH260900   0.077   4.007   3.449  0.1600 -0.0367 -0.2051
13162TIP3    H160901   0.078   3.932   3.509  0.9291  1.4265  1.7468
13162TIP3    H260902  -0.014   4.035   3.448  0.0996 -0.2095  0.1482
13163TIP3   OH260903   6.741   1.704   3.388  0.2345 -0.6499 -0.1709
13163TIP3    H160904   6.744   1.641   3.460 -0.7292  0.0930  0.5571
13163TIP3    H260905   6.821   1.756   3.398 -1.3941  1.6919  2.5705
13164TIP3   OH260906   1.393   0.344  13.965 -0.1903 -0.2730  0.3595
13164TIP3    H160907   1.398   0.278  13.896  0.5712 -1.2274  1.2793
13164TIP3    H260908   1.309   0.328  14.008  0.4494 -1.4211  1.2695
13165TIP3   OH260909   6.972   6.945  14.499  0.1611  0.5346  0.0677
13165TIP3    H160910   6.924   7.004  14.557 -2.2461 -1.0677 -0.1402
13165TIP3    H260911   6.960   6.982  14.412 -0.3861  0.3553  0.0636
13166TIP3   OH260912   3.365   2.022  12.019  0.2906 -0.2877 -0.0222
13166TIP3    H160913   3.382   1.932  11.990  1.3990 -0.3445  0.7711
13166TIP3    H260914   3.373   2.019  12.114 -2.1363  0.1464  0.2594
13167TIP3   OH260915   1.840   5.146  12.041  0.6851  0.2685  0.2634
13167TIP3    H160916   1.846   5.162  12.135 -1.5092 -1.2546  0.7292
13167TIP3    H260917   1.749   5.164  12.019  0.3729 -2.3007 -0.9280
13168TIP3   OH260918   5.447   0.902  14.456 -0.1608  0.0611  0.3162
13168TIP3    H160919   5.380   0.842  14.489 -1.4770  0.8544 -0.8135
13168TIP3    H260920   5.463   0.873  14.366  1.9371 -0.8555  0.9214
13169TIP3   OH260921   0.716   6.323   5.178 -0.3083  0.3483  0.0204
13169TIP3    H160922   0.711   6.374   5.097  1.0005  0.4317 -0.0415
13169TIP3    H260923   0.687   6.383   5.247 -0.1802  0.7080 -0.2390
13170TIP3   OH260924   0.477   4.646   0.054  0.6769 -0.2390  0.2619
13170TIP3    H160925   0.514   4.665   0.140  0.1685 -2.2466  0.9936
13170TIP3    H260926   0.547   4.599   0.009  1.5188  2.1637 -1.0715
13171TIP3   OH260927   0.572   6.794  13.591  0.1410 -0.2414 -0.3405
13171TIP3    H160928   0.558   6.862  13.657  1.0711  0.5151 -0.8915
13171TIP3    H260929   0.545   6.713  13.634  0.1262  0.3193  0.7488
13172TIP3   OH260930   1.115   5.657  14.243  0.2194 -0.4314 -0.1979
13172TIP3    H160931   1.061   5.719  14.192  0.1430  0.2000  0.6343
13172TIP3    H260932   1.202   5.695  14.242 -0.2116  0.7609  1.9508
13173TIP3   OH260933   0.028   1.340  13.333  0.1880  0.2741  0.1975
13173TIP3    H160934   0.070   1.286  13.266  0.0088  2.0194 -1.4017
13173TIP3    H260935   0.094   1.350  13.401  0.3285 -1.6639  0.4048
13174TIP3   OH260936   2.403   2.824   0.360 -0.1246 -0.3697 -0.0887
13174TIP3    H160937   2.400   2.766   0.284  2.1083 -0.8754  0.1475
13174TIP3    H260938   2.313   2.855   0.370 -0.8759 -1.8591 -1.7106
13175TIP3   OH260939   1.238   1.883   1.105 -0.0351  0.0496 -1.0220
13175TIP3    H160940   1.183   1.851   1.033 -0.6222 -0.1720 -0.4834
13175TIP3    H260941   1.225   1.819   1.175 -0.2299  0.7962 -0.3724
13176TIP3   OH260942   2.840   5.203  11.090  0.1407  0.0428  0.2468
13176TIP3    H160943   2.758   5.195  11.138  0.5714  0.0779  0.9986
13176TIP3    H260944   2.902   5.238  11.153  0.7484 -0.0074 -0.3052
13177TIP3   OH260945   6.643   5.300  12.424  0.2918 -0.0734 -0.3480
13177TIP3    H160946   6.605   5.354  12.492  0.4861 -0.8142  0.3628
13177TIP3    H260947   6.694   5.361  12.370 -0.9618  0.7348 -0.6479
13178TIP3   OH260948   6.874   6.914   3.000 -0.5998  0.1390 -0.1416
13178TIP3    H160949   6.835   6.985   2.950 -0.5691  0.4426  0.2591
13178TIP3    H260950   6.825   6.836   2.974 -2.2686  0.6819  1.2022
13179TIP3   OH260951   1.282   5.769   4.148  0.1023  0.2185 -0.4471
13179TIP3    H160952   1.282   5.863   4.162  1.2223  0.0963  0.5425
13179TIP3    H260953   1.192   5.742   4.162 -0.4701  1.2697 -1.8302
13180TIP3   OH260954   2.040   4.918  13.408  0.3507 -0.0028  0.5886
13180TIP3    H160955   2.004   5.002  13.435  0.5584  0.1281  0.4601
13180TIP3    H260956   1.965   4.858  13.407 -0.2412  0.6860 -1.4741
13181TIP3   OH260957   6.225   4.701   0.288  0.1064 -0.2152 -1.1236
13181TIP3    H160958   6.314   4.670   0.299 -0.1165 -0.5322 -0.1480
13181TIP3    H260959   6.233   4.776   0.229  0.9530 -0.5175 -1.4126
13182TIP3   OH260960   0.520   4.836   1.675  0.2122  0.1070 -0.8272
13182TIP3    H160961   0.526   4.774   1.747 -0.8270  0.3713 -0.4862
13182TIP3    H260962   0.568   4.913   1.705 -2.6032  1.3599  0.8820
13183TIP3   OH260963   4.707   6.216   5.684 -0.2485  0.2820  0.0587
13183TIP3    H160964   4.761   6.137   5.692 -1.0184 -0.1143  2.0376
13183TIP3    H260965   4.658   6.219   5.767 -2.1127  1.4564 -1.0266
13184TIP3   OH260966   6.679   1.314   4.834 -0.1319  0.2779 -0.5748
13184TIP3    H160967   6.589   1.346   4.844 -1.0106 -1.7634 -1.4544
13184TIP3    H260968   6.699   1.275   4.919  0.3183  1.5793 -0.0581
13185TIP3   OH260969   3.122   1.635  13.053  0.4082  0.2552  0.1481
13185TIP3    H160970   3.213   1.627  13.082  0.1645 -1.4216  0.5409
13185TIP3    H260971   3.097   1.547  13.027 -0.8414  0.8594 -0.8145
13186TIP3   OH260972   3.353   5.318  13.309 -0.8894  0.7159 -0.6608
13186TIP3    H160973   3.345   5.298  13.215  0.2292 -1.5041 -0.3617
13186TIP3    H260974   3.282   5.269  13.350  1.2493 -2.0900 -0.0022
13187TIP3   OH260975   1.815   3.928   2.231  0.0552  0.2321  0.1359
13187TIP3    H160976   1.737   3.890   2.274  0.7880  0.4936  1.7689
13187TIP3    H260977   1.814   4.020   2.258  2.1709 -0.2519  2.1905
13188TIP3   OH260978   1.894   3.483  13.663 -0.5248 -0.1968  0.4753
13188TIP3    H160979   1.967   3.421  13.663 -0.2859  0.0110  2.3689
13188TIP3    H260980   1.933   3.565  13.694 -1.0569  0.6264 -0.9713
13189TIP3   OH260981   6.451   0.453   1.872 -0.4668  0.0193 -0.2388
13189TIP3    H160982   6.358   0.448   1.851 -0.7695  0.1920  1.0023
13189TIP3    H260983   6.490   0.498   1.797 -1.8138  2.4520  0.4266
13190TIP3   OH260984   5.083   5.580   2.243  0.4095  0.0289 -0.0830
13190TIP3    H160985   4.988   5.572   2.246  0.5438 -2.7747 -0.5094
13190TIP3    H260986   5.114   5.493   2.218  3.1897  0.3545  1.7614
13191TIP3   OH260987   6.728   2.975   5.517  0.4212  0.4597 -0.2485
13191TIP3    H160988   6.780   2.900   5.487 -0.0104  0.7680 -1.8625
13191TIP3    H260989   6.702   2.952   5.606  1.9279 -0.4333  0.0088
13192TIP3   OH260990   6.631   3.877   4.744 -0.1265 -0.2028 -0.3379
13192TIP3    H160991   6.649   3.783   4.737  2.6426  0.2535 -0.6909
13192TIP3    H260992   6.598   3.889   4.833 -1.7293 -1.6397 -0.6988
13193TIP3   OH260993   0.702   5.401   2.538 -0.1312 -0.1913  0.0736
13193TIP3    H160994   0.715   5.489   2.505  3.0728 -1.2305 -1.9473
13193TIP3    H260995   0.625   5.369   2.491  0.4213  0.6005 -1.4425
13194TIP3   OH260996   3.506   3.667  12.942 -0.5447  0.2692  0.5592
13194TIP3    H160997   3.511   3.731  13.013  0.6032 -0.3813  1.0837
13194TIP3    H260998   3.568   3.599  12.966  1.6974  1.1587 -2.2134
13195TIP3   OH260999   6.426   4.461   4.675 -0.5112 -0.3754 -0.0124
13195TIP3    H161000   6.458   4.428   4.759  0.3488  1.5792  0.4710
13195TIP3    H261001   6.501   4.451   4.616 -0.7776 -0.7682 -0.2894
13196TIP3   OH261002   3.332   5.310  14.974  0.4315  0.4003 -0.5610
13196TIP3    H161003   3.320   5.403  14.994 -0.2158  0.3628 -0.7562
13196TIP3    H261004   3.405   5.283  15.030 -0.3944  0.6483  0.6793
13197TIP3   OH261005   2.245   0.844   2.023  0.5983  0.1501  0.6904
13197TIP3    H161006   2.319   0.899   2.049 -0.9549  2.3281  0.7935
13197TIP3    H261007   2.183   0.905   1.983 -0.8288 -1.7208 -0.0920
13198TIP3   OH261008   4.126   5.641   2.917  0.1739 -0.0473 -0.0141
13198TIP3    H161009   4.094   5.553   2.938 -0.6954  0.5630  1.3737
13198TIP3    H261010   4.047   5.694   2.909  0.7325  0.9278  0.7364
13199TIP3   OH261011   4.393   5.159   2.988 -0.5599 -0.2227  0.3745
13199TIP3    H161012   4.382   5.248   3.021 -0.6063  0.9043 -2.4612
13199TIP3    H261013   4.378   5.104   3.065  2.4758  2.2045  3.0121
13200TIP3   OH261014   5.420   4.722   3.721 -0.2794 -0.2104  0.0528
13200TIP3    H161015   5.333   4.749   3.751 -0.2588  0.3721 -0.4111
13200TIP3    H261016   5.451   4.662   3.790 -0.1187  1.3080  1.3530
13201TIP3   OH261017   1.365   3.584  13.381 -0.0721  0.0083  0.5238
13201TIP3    H161018   1.459   3.596  13.397  0.0707  2.0803 -1.5168
13201TIP3    H261019   1.354   3.489  13.374  1.3255 -0.4919  3.4336
13202TIP3   OH261020   2.235   7.105   2.204  0.2012 -0.5868  0.5172
13202TIP3    H161021   2.238   7.201   2.210  1.6488 -0.6394  0.9406
13202TIP3    H261022   2.316   7.081   2.159  0.2251 -1.6563  1.0961
13203TIP3   OH261023   4.263   0.647  13.616  0.6832  0.1372 -0.4293
13203TIP3    H161024   4.250   0.553  13.613 -1.1512  0.3696 -1.1030
13203TIP3    H261025   4.340   0.663  13.563  0.7604 -0.9380 -0.6597
13204TIP3   OH261026   0.051   1.824   0.713  0.5641  0.3881  0.0352
13204TIP3    H161027   0.132   1.842   0.665  0.0816  0.0834 -0.8977
13204TIP3    H261028   0.027   1.735   0.688 -1.2583  1.2460 -1.4776
13205TIP3   OH261029   4.958   3.542   4.722 -0.9024 -0.2183 -0.1560
13205TIP3    H161030   4.881   3.571   4.771 -0.4991  0.9003 -0.1454
13205TIP3    H261031   4.935   3.555   4.630 -0.8712 -0.2482 -0.1682
13206TIP3   OH261032   4.710   1.722   4.529 -0.0114 -0.4276 -0.2866
13206TIP3    H161033   4.805   1.716   4.529 -0.0017 -0.8628  1.6305
13206TIP3    H261034   4.680   1.632   4.540 -0.6581 -0.2844 -0.7960
13207TIP3   OH261035   6.649   2.612  10.706 -0.3209 -0.3835 -0.6160
13207TIP3    H161036   6.716   2.544  10.693  0.6687  0.2052  1.0256
13207TIP3    H261037   6.673   2.682  10.645  0.3699 -0.3302 -0.2961
13208TIP3   OH261038   5.853   0.838  13.990  0.2858 -0.5469 -0.0571
13208TIP3    H161039   5.825   0.763  14.043  1.8569 -1.8778 -1.0019
13208TIP3    H261040   5.914   0.800  13.927  1.7703  1.6812 -0.0431
13209TIP3   OH261041   4.086   4.057  14.307 -0.3415  0.2807 -0.2413
13209TIP3    H161042   4.025   4.128  14.328  0.6480  1.4767 -1.2220
13209TIP3    H261043   4.098   4.064  14.212  2.3833  1.0116  0.0824
13210TIP3   OH261044   1.763   3.064   0.576 -0.1773 -0.1148 -0.0344
13210TIP3    H161045   1.719   2.993   0.622  0.8905  0.0846  1.3472
13210TIP3    H261046   1.695   3.103   0.521 -1.1241 -1.2821  0.2764
13211TIP3   OH261047   1.655   6.054  13.703 -0.0213 -0.3680  0.1106
13211TIP3    H161048   1.595   6.055  13.778  0.7260 -0.1461  0.7176
13211TIP3    H261049   1.616   6.114  13.640 -1.1023 -1.1958 -0.0412
13212TIP3   OH261050   1.246   6.376   5.318  0.4197 -0.4353 -0.0902
13212TIP3    H161051   1.338   6.387   5.298  0.5635 -0.4974  0.4951
13212TIP3    H261052   1.246   6.335   5.405 -0.1709  0.4626  0.3423
13213TIP3   OH261053   0.993   2.821   5.183 -0.1923 -0.2790  0.2170
13213TIP3    H161054   1.077   2.823   5.138  0.0658 -1.1120  0.6480
13213TIP3    H261055   1.015   2.822   5.276 -0.6446 -0.8959  0.3349
13214TIP3   OH261056   3.191   1.632  12.264 -0.4326  0.2018 -0.3532
13214TIP3    H161057   3.220   1.567  12.200  1.2818  1.0217 -0.4628
13214TIP3    H261058   3.170   1.581  12.342 -0.9617 -0.6474 -1.0273
13215TIP3   OH261059   6.355   4.254   2.147  0.8388  0.0677  0.3095
13215TIP3    H161060   6.281   4.224   2.200  1.0986 -1.2076 -0.0257
13215TIP3    H261061   6.327   4.339   2.112 -0.7315 -0.7022 -0.3525
13216TIP3   OH261062   3.953   6.580  14.040 -0.0211  0.6617 -0.1937
13216TIP3    H161063   3.959   6.520  14.114 -0.1608  1.4131  0.4393
13216TIP3    H261064   3.901   6.653  14.072  0.7595  1.4731 -0.7011
13217TIP3   OH261065   6.168   4.604   5.633  0.2907  0.7017  0.0450
13217TIP3    H161066   6.128   4.561   5.708  1.4231  1.1695  0.9518
13217TIP3    H261067   6.186   4.693   5.663 -1.6208  1.7473 -1.6534
13218TIP3   OH261068   1.823   2.913  11.144 -0.0540  0.4572 -0.0208
13218TIP3    H161069   1.802   2.997  11.185 -0.1597  0.1411  0.5852
13218TIP3    H261070   1.883   2.871  11.206 -4.5859 -2.5936  2.8838
13219TIP3   OH261071   4.327   4.859  15.031  0.3466 -0.5756  0.4394
13219TIP3    H161072   4.407   4.904  15.005  0.1536 -1.1208 -1.1856
13219TIP3    H261073   4.329   4.776  14.984 -1.1965 -0.5825  0.3250
13220TIP3   OH261074   2.236   2.524   2.433  0.0125 -0.2701  0.8513
13220TIP3    H161075   2.215   2.470   2.510  0.5088  1.6728  2.4292
13220TIP3    H261076   2.169   2.592   2.432  2.1437  2.0350  1.9760
13221TIP3   OH261077   1.179   3.570   3.324  0.0736 -0.2842  0.1434
13221TIP3    H161078   1.198   3.515   3.248  0.7132 -0.6733  0.5747
13221TIP3    H261079   1.104   3.624   3.296 -1.6187 -2.4450  0.2272
13222TIP3   OH261080   4.925   3.344  10.348 -0.2045  0.1619 -0.4898
13222TIP3    H161081   4.903   3.253  10.368 -1.1261  0.9155  2.5330
13222TIP3    H261082   4.927   3.348  10.253  0.9371 -3.2202 -0.7501
13223TIP3   OH261083   3.362   4.683  11.641  0.1638  0.2323 -0.3515
13223TIP3    H161084   3.332   4.604  11.595  1.2112 -0.1725 -0.3691
13223TIP3    H261085   3.348   4.754  11.579  0.1784 -0.0904 -0.7307
13224TIP3   OH261086   3.398   3.952   5.607 -0.0163  0.4657  0.0098
13224TIP3    H161087   3.377   3.862   5.632 -2.6376  0.9908 -0.0161
13224TIP3    H261088   3.342   3.969   5.531  2.0064  1.4729 -1.3306
13225TIP3   OH261089   6.125   0.007  13.950 -0.6337 -0.6512 -0.2647
13225TIP3    H161090   6.201   0.003  14.008  1.4130 -1.0884 -2.7783
13225TIP3    H261091   6.057   0.050  14.002  1.1720 -0.5988  2.2485
13226TIP3   OH261092   6.355   2.732   1.133 -0.5617  0.2337 -0.6670
13226TIP3    H161093   6.371   2.820   1.098 -0.8423 -0.0470 -1.5220
13226TIP3    H261094   6.426   2.679   1.097 -0.5270  0.0514 -0.3393
13227TIP3   OH261095   5.212   6.856   2.823 -0.8228  0.0997 -0.1731
13227TIP3    H161096   5.153   6.787   2.851 -1.1995  1.0253  1.4914
13227TIP3    H261097   5.299   6.815   2.824 -1.0239 -0.3523  0.9048
13228TIP3   OH261098   3.885   3.220  11.216 -0.2652  0.1248 -0.0907
13228TIP3    H161099   3.921   3.282  11.153  2.6534  0.5436  1.7678
13228TIP3    H261100   3.861   3.273  11.292  2.7835 -0.8539  1.7462
13229TIP3   OH261101   3.917   5.226   3.103  0.6021  0.1146 -0.1833
13229TIP3    H161102   3.988   5.194   3.159  1.3581  1.7421 -0.1640
13229TIP3    H261103   3.837   5.206   3.153  1.1907  0.5089  0.9526
13230TIP3   OH261104   1.928   5.334  14.563  0.6919 -0.3402 -0.0643
13230TIP3    H161105   1.956   5.243  14.560 -0.8737 -0.8238 -0.4816
13230TIP3    H261106   2.004   5.381  14.599  1.6087 -1.7510 -0.0965
13231TIP3   OH261107   5.043   2.627   5.643  0.3151  1.1246 -0.4665
13231TIP3    H161108   5.130   2.609   5.677 -0.0478 -2.2238 -0.9158
13231TIP3    H261109   5.031   2.562   5.573 -1.8591  2.7035 -1.7054
13232TIP3   OH261110   3.227   4.241   0.981  0.6128  0.2433  0.0341
13232TIP3    H161111   3.236   4.303   1.054  0.4353 -0.2791  0.5074
13232TIP3    H261112   3.262   4.287   0.905  0.5955  0.8760  0.4092
13233TIP3   OH261113   3.089   5.053   1.432  0.0533  0.1628 -0.2889
13233TIP3    H161114   3.067   4.964   1.406  0.6114  0.4014 -1.6697
13233TIP3    H261115   3.011   5.085   1.477  0.6878 -1.8317  2.5365
13234TIP3   OH261116   6.633   1.249   5.104  0.3159 -0.0077  0.1684
13234TIP3    H161117   6.573   1.313   5.141  1.2656  0.4731  0.9242
13234TIP3    H261118   6.701   1.238   5.170  1.8089  0.4933 -1.1996
13235TIP3   OH261119   0.742   1.710   5.078  0.0219  0.3093 -0.4478
13235TIP3    H161120   0.708   1.704   5.167  2.0240 -1.0232  0.2927
13235TIP3    H261121   0.723   1.624   5.039  0.8341  0.2175 -0.6538
13236TIP3   OH261122   1.742   0.724  14.481  0.7795 -0.5642 -0.1799
13236TIP3    H161123   1.805   0.734  14.409 -1.0426 -1.4194 -1.9819
13236TIP3    H261124   1.669   0.781  14.457 -0.1871 -1.4417  0.6263
13237TIP3   OH261125   0.935   4.779   0.973  0.5404  0.2366 -0.3265
13237TIP3    H161126   0.926   4.740   0.886 -2.1313  0.8432 -0.4186
13237TIP3    H261127   0.862   4.742   1.023  0.4760  1.8455  0.8426
13238TIP3   OH261128   0.188   0.304   1.522  0.1662  0.3460  0.0326
13238TIP3    H161129   0.094   0.290   1.536  0.0530 -0.7139 -1.4475
13238TIP3    H261130   0.207   0.386   1.567 -0.9562 -0.5905  2.3797
13239TIP3   OH261131   6.760   5.867  11.285 -0.1982 -0.0899  0.4154
13239TIP3    H161132   6.772   5.795  11.347  1.6132 -0.7569 -0.6488
13239TIP3    H261133   6.846   5.879  11.245 -1.5180 -0.5116 -2.8532
13240TIP3   OH261134   5.026   3.712   4.257  0.8659  0.0655 -0.2426
13240TIP3    H161135   5.033   3.620   4.285 -0.6439  0.1088  0.3568
13240TIP3    H261136   4.995   3.708   4.166  2.3598 -0.0210 -0.7708
13241TIP3   OH261137   1.127   4.961   0.797 -0.3980 -0.2064  0.1066
13241TIP3    H161138   1.116   4.946   0.891 -0.2171 -0.5995  0.0666
13241TIP3    H261139   1.042   4.940   0.759 -0.9238  1.3551  0.3399
13242TIP3   OH261140   5.379   2.817   2.646  0.6658 -0.0437  0.5337
13242TIP3    H161141   5.401   2.793   2.556 -0.5936  1.7956 -0.3246
13242TIP3    H261142   5.284   2.805   2.651  0.6372  0.5029  1.4085
13243TIP3   OH261143   0.367   3.143  14.705  0.1799 -0.7076 -0.4679
13243TIP3    H161144   0.358   3.207  14.776 -1.6176 -1.3608 -0.0343
13243TIP3    H261145   0.413   3.190  14.636  1.3431  0.1780  0.8343
13244TIP3   OH261146   3.233   3.243   2.715  0.2044 -0.2949  0.4712
13244TIP3    H161147   3.144   3.209   2.725 -0.3588  0.7978 -0.5695
13244TIP3    H261148   3.242   3.307   2.785 -0.7742  1.4147 -0.8890
13245TIP3   OH261149   4.581   5.867  13.689 -0.5562 -0.2280  0.3485
13245TIP3    H161150   4.626   5.906  13.614 -1.7081 -1.5930 -1.1100
13245TIP3    H261151   4.635   5.891  13.764  1.4143 -0.0109 -1.0695
13246TIP3   OH261152   5.066   3.499   0.881 -0.0316  0.3056  0.4052
13246TIP3    H161153   5.039   3.585   0.914  0.0367  0.5723 -0.2117
13246TIP3    H261154   5.160   3.496   0.895 -0.2439 -0.3213  1.8730
13247TIP3   OH261155   1.717   2.132   1.024  0.3542  0.2571 -0.2940
13247TIP3    H161156   1.791   2.173   1.070 -0.1138  0.7508  0.0246
13247TIP3    H261157   1.659   2.102   1.094 -0.0167  0.3659 -0.5567
13248TIP3   OH261158   5.104   4.824  15.225  0.6107  0.1797  0.6991
13248TIP3    H161159   5.114   4.766  15.149  1.6529  0.4256  0.6401
13248TIP3    H261160   5.031   4.881  15.202 -1.9558 -2.4365  1.6190
13249TIP3   OH261161   6.825   4.179   0.035  0.2283  0.2009  0.2108
13249TIP3    H161162   6.752   4.240   0.045  0.0602 -0.0145  0.3047
13249TIP3    H261163   6.819   4.150  -0.057  0.3165  0.3354  0.1625
13250TIP3   OH261164   1.929   5.494   4.440  0.6796  0.0563 -0.4624
13250TIP3    H161165   2.001   5.494   4.503  0.7379  0.6018 -0.5223
13250TIP3    H261166   1.850   5.489   4.494  0.7199  0.7575 -0.3224
13251TIP3   OH261167   1.094   2.255  10.846 -0.1824 -0.0228  0.0565
13251TIP3    H161168   1.170   2.290  10.892 -1.2569  0.0160  1.9020
13251TIP3    H261169   1.022   2.314  10.870 -1.5351 -2.0706  1.3314
13252TIP3   OH261170   5.303   6.497   4.931  0.2266 -0.0312  0.0352
13252TIP3    H161171   5.275   6.502   4.840 -0.2234 -1.1717  0.0881
13252TIP3    H261172   5.396   6.476   4.926  0.1207 -0.4645 -0.1686
13253TIP3   OH261173   6.037   2.677   3.715  0.2498  0.0558 -0.2326
13253TIP3    H161174   6.071   2.590   3.697  0.4155  0.2645 -0.9457
13253TIP3    H261175   5.944   2.672   3.694  0.3439  0.1635 -0.6815
13254TIP3   OH261176   0.368   6.207   3.275  0.4089  0.4324 -0.9059
13254TIP3    H161177   0.409   6.235   3.357 -1.0140 -0.2387  0.0825
13254TIP3    H261178   0.307   6.278   3.253 -1.6241 -0.7710  0.4518
13255TIP3   OH261179   2.319   6.972   0.079 -1.1452 -0.1128 -0.1084
13255TIP3    H161180   2.316   6.878   0.060 -0.1949  0.0862 -1.3470
13255TIP3    H261181   2.318   6.977   0.174 -0.5900 -1.4092 -0.0136
13256TIP3   OH261182   0.160   6.143  15.029 -0.5403  0.2692 -0.2762
13256TIP3    H161183   0.178   6.089  14.952  2.3091  0.1728  0.3420
13256TIP3    H261184   0.246   6.171  15.059 -1.6482  1.3339  2.1676
13257TIP3   OH261185   6.172   5.215  11.526  0.6324  0.1400  0.6333
13257TIP3    H161186   6.143   5.188  11.439  1.2589 -0.9409  0.7307
13257TIP3    H261187   6.183   5.132  11.574 -0.1126  0.7298  1.8822
13258TIP3   OH261188   6.873   2.950   3.695  0.0584  1.0122 -0.1399
13258TIP3    H161189   6.925   2.871   3.707  0.7429  1.4217 -0.4145
13258TIP3    H261190   6.836   2.968   3.782  0.5718  0.8664  0.1081
13259TIP3   OH261191   5.025   4.775   4.636 -0.2532 -0.0164 -0.1907
13259TIP3    H161192   5.084   4.744   4.705 -0.4570 -0.4517 -0.2120
13259TIP3    H261193   5.083   4.790   4.561 -0.2608 -1.1062 -0.4257
13260TIP3   OH261194   6.078   4.551   1.519  0.0475  0.3584 -0.4904
13260TIP3    H161195   6.064   4.639   1.484  4.0090  1.3361 -0.0827
13260TIP3    H261196   6.152   4.517   1.469  0.7349 -1.4136  1.5884
13261TIP3   OH261197   3.438   2.050  14.149 -0.1715 -0.0083 -0.4443
13261TIP3    H161198   3.478   2.106  14.215 -1.9785 -1.7472  2.3294
13261TIP3    H261199   3.356   2.093  14.127 -1.2200 -1.1211  1.1471
13262TIP3   OH261200   6.371   0.963  10.992  0.1683  0.5268 -0.2400
13262TIP3    H161201   6.440   0.898  11.004 -1.2611 -0.6417  2.2835
13262TIP3    H261202   6.359   0.967  10.897  1.5738 -1.5265 -0.5657
13263TIP3   OH261203   1.303   2.491  14.797 -0.4674 -0.4369  0.6457
13263TIP3    H161204   1.277   2.424  14.734  0.5481  0.6133 -0.9625
13263TIP3    H261205   1.309   2.445  14.880 -1.0985 -2.0424 -0.1607
13264TIP3   OH261206   4.278   0.886   0.862  0.3697 -0.2640  0.3044
13264TIP3    H161207   4.195   0.837   0.860 -0.6928  1.3355 -3.2372
13264TIP3    H261208   4.259   0.962   0.918 -0.3376 -0.2382  0.0403
13265TIP3   OH261209   1.255   1.249  13.120 -0.4977  0.1592  0.6590
13265TIP3    H161210   1.272   1.319  13.183 -1.8739  0.1761  1.0371
13265TIP3    H261211   1.299   1.278  13.040  1.0274  0.2813  1.4984
13266TIP3   OH261212   6.004   3.463   0.884  0.9096  0.0898 -1.0671
13266TIP3    H161213   5.910   3.462   0.904  1.1041 -0.0590 -0.0900
13266TIP3    H261214   6.029   3.370   0.885  1.2635  0.1849 -0.2797
13267TIP3   OH261215   6.492   4.861  12.955  0.6008  0.3824 -0.0743
13267TIP3    H161216   6.476   4.868  12.861  0.7959  1.3162 -0.0406
13267TIP3    H261217   6.570   4.913  12.971  2.0163 -1.7194  0.2432
13268TIP3   OH261218   6.452   2.282   2.833 -0.0342  0.0909 -0.3019
13268TIP3    H161219   6.472   2.360   2.783  3.2770  1.2545  2.4391
13268TIP3    H261220   6.381   2.308   2.892 -1.2975 -0.1361 -1.6555
13269TIP3   OH261221   4.358   6.420  13.834 -0.4015 -0.6442 -0.3194
13269TIP3    H161222   4.326   6.450  13.919  0.5361 -0.7182  0.0806
13269TIP3    H261223   4.295   6.353  13.806 -0.4671 -0.9552  0.5403
13270TIP3   OH261224   5.671   0.191   2.423  0.2772 -0.8270 -0.3622
13270TIP3    H161225   5.586   0.147   2.417 -0.4861  0.5250  0.1084
13270TIP3    H261226   5.705   0.165   2.509 -1.5139  1.6733  1.2639
13271TIP3   OH261227   5.586   0.664   0.934  0.2744 -0.0776  0.7608
13271TIP3    H161228   5.612   0.573   0.925 -0.1517 -0.0133 -1.7125
13271TIP3    H261229   5.646   0.712   0.876 -0.6377  0.9845  0.6594
13272TIP3   OH261230   0.795   2.016  13.275 -0.5163  0.2228 -0.1298
13272TIP3    H161231   0.786   2.105  13.241  0.2726  0.3962  0.1006
13272TIP3    H261232   0.769   2.024  13.367  1.2442  0.5971  0.3698
13273TIP3   OH261233   3.534   3.641   0.679 -0.1883 -0.5293  0.0986
13273TIP3    H161234   3.454   3.644   0.627 -0.0751 -0.1089 -0.0582
13273TIP3    H261235   3.526   3.561   0.731 -0.5735 -0.6425 -0.1305
13274TIP3   OH261236   2.328   3.247   1.270  0.0246  0.7003 -0.7259
13274TIP3    H161237   2.284   3.326   1.303 -1.0481  0.6285 -1.9005
13274TIP3    H261238   2.258   3.197   1.228 -0.0163 -2.3722  2.5334
13275TIP3   OH261239   6.654   1.107  10.869 -0.4224 -0.3031 -0.1059
13275TIP3    H161240   6.744   1.098  10.836 -0.1892 -1.2202  0.7028
13275TIP3    H261241   6.654   1.054  10.949 -1.7037 -0.3385 -0.1228
13276TIP3   OH261242   4.143   3.007   2.889  0.6100 -0.3429 -0.2572
13276TIP3    H161243   4.188   3.056   2.958 -0.4683  0.8094 -0.3330
13276TIP3    H261244   4.131   2.919   2.926 -0.4164  0.3872  1.2703
13277TIP3   OH261245   3.201   1.441  10.298 -0.1540 -0.4499  0.0078
13277TIP3    H161246   3.252   1.520  10.313 -2.1358  0.9506 -0.1105
13277TIP3    H261247   3.141   1.436  10.372 -2.0022 -0.1536 -1.3787
13278TIP3   OH261248   5.481   6.822  10.402 -0.2140  0.2099  0.0973
13278TIP3    H161249   5.568   6.783  10.398 -0.6549 -0.7618 -0.5633
13278TIP3    H261250   5.496   6.914  10.422  0.9430 -0.0100  0.2980
13279TIP3   OH261251   0.927   5.663   0.550  0.2828  0.0677  0.4157
13279TIP3    H161252   0.874   5.687   0.474  0.3975  0.4763  0.4625
13279TIP3    H261253   1.014   5.700   0.531  1.0428 -1.9996 -0.4371
13280TIP3   OH261254   2.923   6.852  15.078 -0.2565 -0.3118 -0.3035
13280TIP3    H161255   2.875   6.866  15.160 -0.9732  1.2969 -0.9622
13280TIP3    H261256   3.010   6.825  15.106 -0.3344  0.7042  1.0172
13281TIP3   OH261257   0.741   0.755   0.974  0.3921  0.6765 -0.2263
13281TIP3    H161258   0.746   0.802   0.890 -0.3086 -1.5764 -1.6293
13281TIP3    H261259   0.798   0.679   0.961 -0.4465 -0.1868  1.0217
13282TIP3   OH261260   0.293   3.653   3.182  0.4000 -0.3858 -0.9095
13282TIP3    H161261   0.389   3.642   3.180  0.5119 -0.5243  1.8197
13282TIP3    H261262   0.265   3.599   3.256 -1.5681  1.1787 -0.4510
13283TIP3   OH261263   1.936   2.976   0.766  0.6513  0.1244  0.8940
13283TIP3    H161264   1.859   2.954   0.715  1.7339 -1.1019 -0.3110
13283TIP3    H261265   1.995   3.019   0.704  2.2091 -1.8638  0.9082
13284TIP3   OH261266   2.364   3.056   1.984  0.3006 -0.0943  0.4532
13284TIP3    H161267   2.302   3.127   1.997  0.7034  0.0765  1.4808
13284TIP3    H261268   2.448   3.099   1.970  0.0724 -0.2817 -1.9623
13285TIP3   OH261269   4.441   3.609   5.760 -0.2420 -0.4160 -0.0109
13285TIP3    H161270   4.431   3.698   5.793 -0.5389 -0.4179 -0.0935
13285TIP3    H261271   4.531   3.585   5.782  0.8331  0.9370 -2.4495
13286TIP3   OH261272   6.619   7.150  11.915  0.2567 -0.4099  0.3483
13286TIP3    H161273   6.571   7.068  11.899 -0.1962  0.2826 -2.5576
13286TIP3    H261274   6.551   7.217  11.915  0.9123  0.2766 -0.8034
13287TIP3   OH261275   4.797   3.664   1.105 -0.5317  0.4218 -0.3544
13287TIP3    H161276   4.861   3.735   1.100 -0.3324  0.2552 -0.2245
13287TIP3    H261277   4.779   3.642   1.014 -0.1733  0.2691 -0.3919
13288TIP3   OH261278   5.260   5.737  12.561  0.2134  0.3427 -0.7258
13288TIP3    H161279   5.172   5.769  12.580  0.3451  0.6736 -0.6692
13288TIP3    H261280   5.246   5.652  12.520 -0.0927 -0.5173  1.0307
13289TIP3   OH261281   6.192   1.352  13.124  0.2780 -0.5049  0.0362
13289TIP3    H161282   6.197   1.390  13.037  1.5675  0.0359  0.3219
13289TIP3    H261283   6.192   1.258  13.110  2.7294 -0.4749 -0.4982
13290TIP3   OH261284   0.879   5.247   4.728 -0.2468  0.6761 -0.1469
13290TIP3    H161285   0.962   5.249   4.776 -0.6740 -1.2639  0.7544
13290TIP3    H261286   0.835   5.328   4.753  0.7787  1.0847  0.4201
13291TIP3   OH261287   0.015   6.059  13.722  0.3568  0.1166  0.0564
13291TIP3    H161288  -0.003   6.125  13.656 -2.1494  0.3635  0.8865
13291TIP3    H261289   0.103   6.079  13.754  0.9551  0.9706 -2.0091
13292TIP3   OH261290   3.232   5.040   4.805 -0.1988 -0.2897  0.1378
13292TIP3    H161291   3.254   4.964   4.859  0.3255  0.1892  0.6172
13292TIP3    H261292   3.139   5.054   4.820 -0.5046 -1.3732 -0.6570
13293TIP3   OH261293   5.293   3.029  15.300 -0.5409 -0.2072 -0.0165
13293TIP3    H161294   5.202   3.053  15.318 -0.5688  0.5545 -1.0507
13293TIP3    H261295   5.290   2.936  15.278 -1.2292  0.0453 -1.0293
13294TIP3   OH261296   0.679   0.577   3.968  0.3891  0.1010 -0.3133
13294TIP3    H161297   0.756   0.577   4.026  0.0405 -2.6129  0.3149
13294TIP3    H261298   0.711   0.537   3.887 -0.2863 -1.0334 -0.0489
13295TIP3   OH261299   2.176   3.077  15.067 -0.3629 -0.0696 -0.1133
13295TIP3    H161300   2.269   3.057  15.078 -0.5093 -0.4769  0.4098
13295TIP3    H261301   2.149   3.025  14.991 -0.4574 -0.9460  0.5064
13296TIP3   OH261302   3.015   5.644   2.492 -0.1791  0.4413 -0.3974
13296TIP3    H161303   3.104   5.656   2.526 -0.1272 -1.6395  0.3472
13296TIP3    H261304   3.009   5.703   2.417  1.1153  2.1272  0.7638
13297TIP3   OH261305   3.228   6.495   0.763  0.4660  0.6656  0.7944
13297TIP3    H161306   3.186   6.416   0.796  0.2802  0.3674 -0.1242
13297TIP3    H261307   3.311   6.500   0.811 -0.3664  0.9943  2.2670
13298TIP3   OH261308   4.677   5.515   0.710  0.0136  0.4895  0.4017
13298TIP3    H161309   4.751   5.455   0.704  0.4209  0.9283  0.8997
13298TIP3    H261310   4.623   5.495   0.634  0.6554  0.1785  0.0257
13299TIP3   OH261311   3.127   0.911   2.832 -0.2109 -0.2256 -0.2955
13299TIP3    H161312   3.036   0.882   2.819 -0.5673  0.3650  0.7512
13299TIP3    H261313   3.139   0.980   2.767 -0.9007  0.4775  0.3034
13300TIP3   OH261314   1.929   0.422  13.789  0.1421  0.2829 -0.6799
13300TIP3    H161315   1.987   0.468  13.849  0.4371 -1.4518  0.4275
13300TIP3    H261316   1.856   0.392  13.843 -0.0315 -0.5457 -1.3417
13301TIP3   OH261317   4.692   1.736  10.738  0.2213 -0.1876 -0.0689
13301TIP3    H161318   4.602   1.743  10.769  0.9554  0.6639  2.0599
13301TIP3    H261319   4.729   1.661  10.785  1.0914  0.5147  0.4102
13302TIP3   OH261320   2.095   6.003  13.055  0.0871 -0.3417 -0.2742
13302TIP3    H161321   2.085   6.071  12.989 -0.7488 -1.1484 -1.0267
13302TIP3    H261322   2.153   5.938  13.014 -0.3374 -0.7875 -0.1854
13303TIP3   OH261323   5.117   4.816  14.234  0.0997 -0.0185 -0.3862
13303TIP3    H161324   5.022   4.824  14.228 -0.4807 -4.1051  0.0246
13303TIP3    H261325   5.140   4.752  14.167  2.3917 -0.0538  0.3424
13304TIP3   OH261326   0.600   1.338  13.249  0.0534  0.1249  0.3386
13304TIP3    H161327   0.621   1.279  13.321  0.0147  1.2186  1.2765
13304TIP3    H261328   0.510   1.367  13.267  0.2864  0.9341  0.2458
13305TIP3   OH261329   5.806   6.312  14.836  0.2238  0.2278 -0.6653
13305TIP3    H161330   5.780   6.384  14.893  0.4477 -0.8509  0.8538
13305TIP3    H261331   5.832   6.242  14.896  0.3695 -0.9934 -2.0971
13306TIP3   OH261332   5.339   1.912   2.322 -0.0033 -0.2605  0.1164
13306TIP3    H161333   5.353   1.903   2.416  0.1234  0.1046  0.1328
13306TIP3    H261334   5.246   1.895   2.310  0.2162 -1.6165  0.1441
13307TIP3   OH261335   1.514   1.171   4.625  0.5339  0.2548  0.4549
13307TIP3    H161336   1.527   1.196   4.533 -2.8634 -0.9966 -0.5292
13307TIP3    H261337   1.484   1.080   4.620  0.1623  0.2046  2.8080
13308TIP3   OH261338   0.139   4.118  13.360 -0.0024  0.6396  0.0978
13308TIP3    H161339   0.233   4.135  13.353  0.5112 -1.8899 -0.2130
13308TIP3    H261340   0.129   4.072  13.443 -0.6495 -0.6933 -0.6843
13309TIP3   OH261341   5.198   6.527   1.680 -0.0356  0.2706 -0.4888
13309TIP3    H161342   5.134   6.530   1.751 -1.2602 -0.2929 -1.5224
13309TIP3    H261343   5.224   6.618   1.668 -1.3260  0.6454 -0.6176
13310TIP3   OH261344   5.029   4.180   0.227  0.1067  0.0460 -0.1949
13310TIP3    H161345   5.044   4.141   0.313 -1.2426  1.0576  0.5274
13310TIP3    H261346   5.105   4.237   0.213 -0.0687  0.5109  0.7029
13311TIP3   OH261347   2.092   4.520  14.306  0.2401 -0.3922  0.3579
13311TIP3    H161348   2.018   4.527  14.246 -0.3861 -0.6270  1.0815
13311TIP3    H261349   2.072   4.442  14.358  1.1301 -0.6057  0.3858
13312TIP3   OH261350   2.813   6.958   3.649  0.1421  0.2677 -0.1407
13312TIP3    H161351   2.767   6.885   3.607  0.2848  0.0311  0.1163
13312TIP3    H261352   2.903   6.950   3.619  0.0601  0.6235 -0.4959
13313TIP3   OH261353   1.295   1.518  13.250  0.2602  0.3752  0.3138
13313TIP3    H161354   1.356   1.578  13.208 -0.0522  0.3614 -0.1676
13313TIP3    H261355   1.220   1.572  13.275  0.2728  0.3104  0.4942
13314TIP3   OH261356   2.885   2.088  11.247 -0.1945  0.4850  0.1476
13314TIP3    H161357   2.857   2.177  11.267  1.4848  1.3426 -1.0167
13314TIP3    H261358   2.806   2.043  11.220 -0.7853  2.2176 -1.1844
13315TIP3   OH261359   2.505   0.040   1.233 -0.0365  0.0085 -0.2053
13315TIP3    H161360   2.553   0.006   1.309 -0.4779 -0.5535 -0.1719
13315TIP3    H261361   2.421  -0.005   1.236 -0.6292  1.0838 -0.1843
13316TIP3   OH261362   2.372   3.236   0.186  0.1434  0.1546  0.2095
13316TIP3    H161363   2.285   3.200   0.200  0.0964  0.0729 -0.2675
13316TIP3    H261364   2.425   3.160   0.159  0.0688  0.4067 -0.6927
13317TIP3   OH261365   2.610   6.731   1.279  0.2620 -0.9102  0.6516
13317TIP3    H161366   2.591   6.700   1.367  2.1004 -2.1069  0.6909
13317TIP3    H261367   2.705   6.723   1.271  0.4814  1.7188 -0.5312
13318TIP3   OH261368   3.678   0.566  13.568 -0.2253  0.0630  0.5478
13318TIP3    H161369   3.676   0.658  13.593  1.2292  1.3036 -3.1868
13318TIP3    H261370   3.727   0.523  13.638  0.8549  2.5125  1.4141
13319TIP3   OH261371   4.445   5.248   0.337  0.2101 -0.4757 -0.0253
13319TIP3    H161372   4.495   5.246   0.418  0.6622 -1.0887 -0.3112
13319TIP3    H261373   4.356   5.222   0.362 -0.0468  0.8612  0.5262
13320TIP3   OH261374   6.269   0.055  12.779  0.2466 -0.4121  0.3602
13320TIP3    H161375   6.201   0.092  12.835  0.4014 -0.6927  0.7355
13320TIP3    H261376   6.345   0.112  12.793 -0.3955  0.9424 -1.3596
13321TIP3   OH261377   5.239   1.228   3.289 -0.2043  0.3206 -0.1494
13321TIP3    H161378   5.253   1.171   3.213  1.3238  1.7056 -0.9839
13321TIP3    H261379   5.251   1.317   3.254  0.7686  0.9840  1.7542
13322TIP3   OH261380   4.765   5.439   0.026 -0.8335 -0.3964  0.2099
13322TIP3    H161381   4.837   5.428  -0.036 -1.5981  0.3039 -0.8384
13322TIP3    H261382   4.795   5.397   0.106  0.8342  0.0795 -0.1341
13323TIP3   OH261383   6.860   6.401  12.271  0.3894  0.2267  0.3549
13323TIP3    H161384   6.920   6.391  12.197  1.3951  0.1729  1.1742
13323TIP3    H261385   6.815   6.484  12.254 -0.3703 -0.4199 -0.9991
13324TIP3   OH261386   5.876   5.898  12.532  0.0043 -0.0042  0.8375
13324TIP3    H161387   5.904   5.880  12.442  1.1565  1.5701  0.8377
13324TIP3    H261388   5.786   5.931  12.522 -0.8666 -2.2706  0.5589
13325TIP3   OH261389   5.925   0.162  10.075 -0.1546  0.0824 -0.0379
13325TIP3    H161390   5.874   0.124  10.004 -1.8725  0.1589  1.0780
13325TIP3    H261391   5.902   0.255  10.075  1.1901  0.4340 -0.4602
13326TIP3   OH261392   3.784   5.488  11.641  0.4120 -0.0879 -0.2946
13326TIP3    H161393   3.689   5.495  11.643  0.4262 -0.1346  0.7869
13326TIP3    H261394   3.805   5.473  11.548 -0.7790 -2.2941 -0.2608
13327TIP3   OH261395   4.248   5.833   1.316  0.2592 -0.1215  0.0391
13327TIP3    H161396   4.253   5.755   1.371  0.8688  0.7052  1.2211
13327TIP3    H261397   4.310   5.894   1.356  1.3364  0.2568 -2.0348
13328TIP3   OH261398   3.710   5.877   3.583 -0.2925 -0.2451  0.0341
13328TIP3    H161399   3.729   5.967   3.556  0.7212 -0.1938  0.8637
13328TIP3    H261400   3.698   5.882   3.678 -0.2077 -0.9853  0.0916
13329TIP3   OH261401   4.696   6.799   1.697  0.3541 -0.2935 -0.0895
13329TIP3    H161402   4.718   6.759   1.781  2.2098  0.0634 -0.3568
13329TIP3    H261403   4.631   6.866   1.718 -0.0934 -1.0001  0.8697
13330TIP3   OH261404   0.218   3.533  11.448  0.2365  0.0285  0.0302
13330TIP3    H161405   0.285   3.529  11.380  0.3027  1.0459  0.0164
13330TIP3    H261406   0.230   3.454  11.499  1.9780  0.5790  0.5153
13331TIP3   OH261407   4.871   1.653   0.024 -0.4290  0.3858  0.1585
13331TIP3    H161408   4.859   1.560   0.008 -2.3184  0.3410  1.4640
13331TIP3    H261409   4.936   1.681  -0.040 -0.1798 -1.7158 -0.5691
13332TIP3   OH261410   5.327   6.999  11.633  0.0956 -0.9284 -0.6141
13332TIP3    H161411   5.390   6.936  11.598 -1.5413 -1.9063 -2.0000
13332TIP3    H261412   5.314   7.062  11.562  0.4427 -0.0002  0.1297
13333TIP3   OH261413   6.008   4.203   0.662  0.0337  0.3603 -0.0805
13333TIP3    H161414   6.096   4.193   0.700  0.3675  0.1361 -0.8854
13333TIP3    H261415   5.980   4.291   0.689  0.8752  0.7837 -0.5272
13334TIP3   OH261416   1.776   6.312  12.047 -0.0978 -0.8293  0.7491
13334TIP3    H161417   1.742   6.274  11.967  3.5372  0.6313 -1.7365
13334TIP3    H261418   1.822   6.241  12.091  0.5857 -0.9442 -0.1410
13335TIP3   OH261419   2.357   0.900  10.837 -0.0997 -0.1820 -0.3290
13335TIP3    H161420   2.380   0.899  10.930  0.5873  0.7706 -0.4673
13335TIP3    H261421   2.288   0.966  10.830  0.3497  0.2748 -0.5831
13336TIP3   OH261422   3.053   5.363  12.825 -0.1855  0.0346 -0.1640
13336TIP3    H161423   3.082   5.451  12.847 -1.8535  0.6395 -0.3006
13336TIP3    H261424   3.023   5.326  12.908  3.1828 -1.5649  0.5383
13337TIP3   OH261425   4.912   7.104   1.797  0.2609  0.2178  0.1361
13337TIP3    H161426   4.821   7.105   1.766  0.6019 -1.9210 -1.0803
13337TIP3    H261427   4.946   7.191   1.775 -1.4829  1.1008  0.7114
13338TIP3   OH261428   5.777   5.908  14.215  1.0630  0.6581 -0.3698
13338TIP3    H161429   5.858   5.884  14.260  0.8093 -0.5894 -0.5512
13338TIP3    H261430   5.756   5.995  14.249  3.2825  1.6893 -1.4273
13339TIP3   OH261431   6.795   5.869  12.958  0.4440  0.5773 -0.0873
13339TIP3    H161432   6.829   5.921  13.031  2.6005  0.0656 -0.6605
13339TIP3    H261433   6.730   5.812  12.999 -0.8399  2.5544  0.8210
13340TIP3   OH261434   5.025   6.640  12.755  1.0869 -0.1073  0.1344
13340TIP3    H161435   5.076   6.587  12.817 -0.0240 -0.5851  0.6667
13340TIP3    H261436   5.059   6.615  12.669  0.2584 -2.1217  0.3278
13341TIP3   OH261437   0.491   6.279  10.726  0.4156  0.9768  0.2260
13341TIP3    H161438   0.577   6.272  10.685  0.3609  1.1792  0.0725
13341TIP3    H261439   0.500   6.233  10.809 -0.0785 -1.3473 -0.9220
13342TIP3   OH261440   1.318   3.960   4.578 -0.0312 -0.2464  0.4953
13342TIP3    H161441   1.343   3.940   4.668  0.9719 -1.4133 -0.0155
13342TIP3    H261442   1.317   3.875   4.534  0.9409  0.4588 -0.9571
13343TIP3   OH261443   3.626   5.123  11.275  0.2354  0.0254  0.0358
13343TIP3    H161444   3.544   5.091  11.237  0.4246 -0.5220  0.0756
13343TIP3    H261445   3.599   5.188  11.339 -0.2511 -1.0042  0.9117
13344TIP3   OH261446   0.855   5.048   4.964 -0.7184 -0.1600  0.0662
13344TIP3    H161447   0.763   5.054   4.989 -0.8102 -0.1298 -0.2722
13344TIP3    H261448   0.867   5.116   4.897 -0.4617 -0.1934  0.0744
13345TIP3   OH261449   2.293   5.184   3.019  0.7081  0.2269 -0.0474
13345TIP3    H161450   2.327   5.130   3.090 -0.0518  1.1894  1.0968
13345TIP3    H261451   2.288   5.125   2.943 -0.1918 -1.3306  1.1659
13346TIP3   OH261452   3.031   1.231   0.362 -0.3610 -0.1824 -0.4575
13346TIP3    H161453   3.078   1.149   0.345  0.7617  0.4747 -0.5882
13346TIP3    H261454   3.091   1.300   0.335 -1.7502  0.6847 -1.4727
13347TIP3   OH261455   2.644   1.746   2.650 -0.7288  0.2841 -0.1919
13347TIP3    H161456   2.573   1.809   2.641 -0.5273  0.3620 -1.3232
13347TIP3    H261457   2.629   1.706   2.736 -0.9783  1.7089  0.4548
13348TIP3   OH261458   4.441   3.828  10.718  0.1066  0.0199 -1.0214
13348TIP3    H161459   4.382   3.754  10.704 -0.4134  0.4855 -1.3716
13348TIP3    H261460   4.469   3.819  10.809 -1.2801  0.3014 -0.5300
13349TIP3   OH261461   2.780   1.465   5.247  0.0212 -0.2702  0.0992
13349TIP3    H161462   2.777   1.372   5.270 -2.0140 -0.8070 -1.9706
13349TIP3    H261463   2.740   1.509   5.323  2.3180 -0.8290  1.7473
13350TIP3   OH261464   3.336   4.640  15.269 -0.2813 -0.3650  0.2596
13350TIP3    H161465   3.298   4.717  15.228 -1.2278 -1.1605 -0.4338
13350TIP3    H261466   3.305   4.644  15.360 -0.3206  0.0693  0.2293
13351TIP3   OH261467   4.968   3.132  14.633  0.2184 -0.4848  0.3851
13351TIP3    H161468   5.049   3.173  14.663  0.0610 -0.0569  0.2238
13351TIP3    H261469   4.987   3.038  14.635  1.1243 -0.3384 -0.8245
13352TIP3   OH261470   3.808   7.145  12.482 -0.2549 -0.0180 -0.0734
13352TIP3    H161471   3.749   7.204  12.528  0.8399  1.0287  0.0356
13352TIP3    H261472   3.801   7.062  12.530 -1.3144  0.2022  0.1737
13353TIP3   OH261473   6.745   1.410  10.837  0.1577  0.2283 -0.5991
13353TIP3    H161474   6.683   1.482  10.832  0.4067  0.4982  0.1418
13353TIP3    H261475   6.707   1.349  10.900  0.7215  0.4874  0.0133
13354TIP3   OH261476   1.594   2.833  14.268 -0.6356  0.2969 -0.5659
13354TIP3    H161477   1.590   2.761  14.205  0.0911  0.6728 -1.0545
13354TIP3    H261478   1.649   2.801  14.339  0.2501  0.5864 -1.0983
13355TIP3   OH261479   6.463   0.505   4.237  0.1153 -0.7463 -0.3781
13355TIP3    H161480   6.530   0.490   4.305  0.4312  1.0315 -0.2584
13355TIP3    H261481   6.430   0.417   4.218  1.9601 -1.6089  0.0901
13356TIP3   OH261482   1.999   4.975   2.075 -0.2570 -0.1444 -0.2999
13356TIP3    H161483   2.056   5.010   2.143 -1.5372  1.2742  0.1116
13356TIP3    H261484   2.032   5.013   1.994 -0.5091  0.5543 -0.0832
13357TIP3   OH261485   2.412   5.007   4.349  0.1557 -0.4099  0.1304
13357TIP3    H161486   2.387   4.981   4.438 -3.3147 -1.4733 -0.9915
13357TIP3    H261487   2.471   4.938   4.320 -0.3061 -1.1691  0.9440
13358TIP3   OH261488   4.062   5.608   1.835 -0.2967  0.3736 -0.3585
13358TIP3    H161489   4.078   5.648   1.921  0.4143  0.3477 -0.4729
13358TIP3    H261490   4.072   5.514   1.851 -1.5838  0.2586 -0.1705
13359TIP3   OH261491   0.404   7.030   1.985  0.2459  0.1906  0.1683
13359TIP3    H161492   0.337   7.028   1.916  0.3427  0.4613  0.0652
13359TIP3    H261493   0.466   7.097   1.957 -0.8362  1.8685  1.5444
13360TIP3   OH261494   3.553   5.807  13.507  0.3381  0.0901 -0.2034
13360TIP3    H161495   3.554   5.734  13.568 -1.5411 -0.4919 -0.8024
13360TIP3    H261496   3.571   5.884  13.561  0.3300 -0.5984  0.7932
13361TIP3   OH261497   5.811   6.040   1.405  0.5388 -0.5156  0.8221
13361TIP3    H161498   5.827   6.084   1.321 -0.0961  3.0852  2.3835
13361TIP3    H261499   5.717   6.022   1.405 -0.0603  2.2196  1.8158
13362TIP3   OH261500   0.083   4.085   1.431 -0.4692 -0.3036 -0.3524
13362TIP3    H161501   0.050   4.163   1.474  0.5520 -0.2198  0.3011
13362TIP3    H261502   0.168   4.110   1.395 -0.3753 -0.9598 -0.6180
13363TIP3   OH261503   5.622   0.267  13.781  0.4986  0.0640 -0.4746
13363TIP3    H161504   5.628   0.300  13.691 -0.0327 -0.2182 -0.6160
13363TIP3    H261505   5.709   0.283  13.817  0.7185  0.1861 -1.0380
13364TIP3   OH261506   0.136   6.757  15.193 -0.5519  0.1552  0.0471
13364TIP3    H161507   0.165   6.770  15.103  0.4294  1.2615  0.4979
13364TIP3    H261508   0.133   6.845  15.231 -0.7527 -0.3063  1.1514
13365TIP3   OH261509   0.878   5.349  12.408 -0.3523 -0.0099 -0.0109
13365TIP3    H161510   0.828   5.390  12.478 -0.4038  1.7408 -0.9883
13365TIP3    H261511   0.812   5.322  12.344 -0.1562  1.2298 -0.7651
13366TIP3   OH261512   6.626   6.251  11.082  0.5848  0.1458  0.1617
13366TIP3    H161513   6.658   6.275  11.170 -1.8660 -2.1618  1.8289
13366TIP3    H261514   6.538   6.286  11.079  0.0295 -1.2539 -0.6742
13367TIP3   OH261515   6.392   3.808  12.839 -0.4994  0.0773  0.2089
13367TIP3    H161516   6.479   3.786  12.805 -0.3004  0.2236  0.6121
13367TIP3    H261517   6.389   3.904  12.836 -0.3502  0.1121  0.8985
13368TIP3   OH261518   2.090   0.436   3.045  0.0463  0.2048 -0.3665
13368TIP3    H161519   2.058   0.508   3.098  1.9092 -0.3579  1.6269
13368TIP3    H261520   2.133   0.478   2.971 -0.9493  1.0384 -0.4974
13369TIP3   OH261521   6.197   5.373  14.686  0.5440 -0.0584  0.6583
13369TIP3    H161522   6.258   5.446  14.679  0.7619 -0.3281 -0.5512
13369TIP3    H261523   6.127   5.405  14.742 -0.0863  1.6109 -0.9674
13370TIP3   OH261524   2.200   4.286  11.673  0.1414  0.0556 -0.0457
13370TIP3    H161525   2.164   4.375  11.667  2.9858  1.2730 -1.2709
13370TIP3    H261526   2.201   4.255  11.582 -1.3111 -1.5379  0.4249
13371TIP3   OH261527   1.749   6.793   2.414  0.2940  0.4220 -0.0626
13371TIP3    H161528   1.776   6.753   2.332  0.7439  1.1704 -0.2964
13371TIP3    H261529   1.831   6.824   2.453 -0.1162  2.0634 -0.4177
13372TIP3   OH261530   6.005   1.401  13.701  0.2546 -0.1724 -0.0572
13372TIP3    H161531   6.010   1.496  13.704  0.3389 -0.1910  1.3353
13372TIP3    H261532   6.058   1.376  13.625  0.2627  0.8867 -0.4059
13373TIP3   OH261533   0.750   4.589   3.038  0.2121 -0.3386 -0.4584
13373TIP3    H161534   0.709   4.537   2.969  0.0879  0.0241 -0.6555
13373TIP3    H261535   0.792   4.524   3.094 -1.7769 -0.8506  0.5289
13374TIP3   OH261536   0.265   7.150   9.688  0.2025 -0.3168 -0.0072
13374TIP3    H161537   0.317   7.149   9.768  0.5437 -0.7843 -0.2310
13374TIP3    H261538   0.199   7.082   9.702 -0.2968  0.2009  0.2321
13375TIP3   OH261539   6.645   4.899   5.067 -0.0527  0.6216  0.4960
13375TIP3    H161540   6.719   4.957   5.086 -1.3730  2.0743  1.3681
13375TIP3    H261541   6.631   4.852   5.149  1.2930 -1.3746 -0.3257
13376TIP3   OH261542   1.470   0.837   5.194 -0.0120  0.0354  0.9027
13376TIP3    H161543   1.521   0.778   5.139  0.0202 -0.5444  1.5379
13376TIP3    H261544   1.383   0.839   5.153 -0.3412 -1.3355  1.4825
13377TIP3   OH261545   0.698   3.857  10.664 -0.1044  0.0721  0.5367
13377TIP3    H161546   0.745   3.781  10.628  0.3130 -0.0418  1.2939
13377TIP3    H261547   0.624   3.818  10.712 -1.7447  0.2978 -1.6650
13378TIP3   OH261548   5.169   4.737   3.470 -0.4229 -0.4200 -0.6593
13378TIP3    H161549   5.124   4.742   3.385 -3.1832  1.9858  0.7772
13378TIP3    H261550   5.176   4.828   3.499  3.2457 -0.8763  0.4618
13379TIP3   OH261551   1.641   1.181  12.888  0.2666  0.1232  0.4287
13379TIP3    H161552   1.677   1.252  12.834 -0.5769  1.2258  1.2494
13379TIP3    H261553   1.703   1.109  12.878  0.8565  0.7684 -0.8925
13380TIP3   OH261554   1.216   4.820  14.224 -0.3116 -0.4385  0.6292
13380TIP3    H161555   1.218   4.891  14.160  2.4266  1.3548  2.5198
13380TIP3    H261556   1.276   4.754  14.188  0.1918 -0.0240  0.6966
13381TIP3   OH261557   2.741   2.476  11.336 -0.1261  0.1168 -0.0038
13381TIP3    H161558   2.707   2.462  11.247 -0.3456  0.3793  0.0380
13381TIP3    H261559   2.663   2.475  11.392  0.0445 -0.3976  0.2329
13382TIP3   OH261560   4.761   1.812   3.062 -0.1592  0.1398  0.3076
13382TIP3    H161561   4.772   1.907   3.052  0.1304 -0.0155 -0.9728
13382TIP3    H261562   4.675   1.802   3.103 -1.3954  0.8853 -1.9423
13383TIP3   OH261563   1.896   4.168   1.232 -0.0634 -0.5472  0.2065
13383TIP3    H161564   1.877   4.076   1.217  0.6465 -0.5387 -0.8899
13383TIP3    H261565   1.986   4.170   1.264  0.2191 -0.1920 -0.5815
13384TIP3   OH261566   1.648   5.700  15.349  0.0246 -0.4667  0.5162
13384TIP3    H161567   1.613   5.727  15.264 -1.8251 -0.4469  1.2165
13384TIP3    H261568   1.716   5.636  15.329  0.2719  0.2341 -0.9899
13385TIP3   OH261569   5.156   1.217   1.449  0.4976  0.1578 -0.1465
13385TIP3    H161570   5.141   1.256   1.363  0.7796 -1.7099 -1.0926
13385TIP3    H261571   5.080   1.243   1.501 -1.9803 -2.2273 -2.2832
13386TIP3   OH261572   2.456   5.938   3.439 -0.1183  0.1181  0.0116
13386TIP3    H161573   2.511   5.876   3.391  0.2065 -0.0241  0.5608
13386TIP3    H261574   2.386   5.883   3.475  0.8634 -0.1799  1.5758
13387TIP3   OH261575   0.167   0.461  13.494  0.0593 -0.2996  0.0541
13387TIP3    H161576   0.170   0.410  13.575 -2.2396 -0.3332  0.1824
13387TIP3    H261577   0.116   0.538  13.517  0.3459  0.2413 -1.0867
13388TIP3   OH261578   2.189   5.133   9.792  0.1934  1.0413 -0.2042
13388TIP3    H161579   2.131   5.206   9.770 -0.7467  0.1323 -0.8470
13388TIP3    H261580   2.234   5.113   9.711 -1.0936 -0.4062 -0.6096
13389TIP3   OH261581   6.220   6.869  11.321 -0.2243 -0.5478 -0.5172
13389TIP3    H161582   6.187   6.911  11.401  0.8601  0.2580 -0.4814
13389TIP3    H261583   6.173   6.786  11.317 -1.8953  0.3265 -0.1989
13390TIP3   OH261584   0.671   3.764   0.659  0.3026 -0.5025  0.1052
13390TIP3    H161585   0.695   3.677   0.626 -1.3493 -1.3114  0.9421
13390TIP3    H261586   0.641   3.811   0.581  0.6352 -0.8851 -0.2597
13391TIP3   OH261587   0.770   6.526   3.562 -0.7711  0.5458 -0.1314
13391TIP3    H161588   0.786   6.616   3.535  0.4367  0.5899  0.6875
13391TIP3    H261589   0.820   6.473   3.501 -0.7789  0.4748 -0.0762
13392TIP3   OH261590   6.139   0.162   1.075 -0.2513  0.6626  0.1605
13392TIP3    H161591   6.087   0.146   0.996 -0.5061 -0.5620  0.5582
13392TIP3    H261592   6.074   0.163   1.146  0.0312  1.3018  0.4137
13393TIP3   OH261593   2.844   3.184   1.547 -0.3898  0.2082  0.2596
13393TIP3    H161594   2.833   3.096   1.512  0.7044  0.3582 -0.4941
13393TIP3    H261595   2.919   3.220   1.500 -1.0788  1.7034  0.2344
13394TIP3   OH261596   0.213   0.749   1.279  0.2698  0.5511  0.0187
13394TIP3    H161597   0.281   0.750   1.212  0.8259  2.0757  0.5551
13394TIP3    H261598   0.259   0.727   1.360 -0.0379  0.7199  0.2413
13395TIP3   OH261599   7.007   1.816   2.856 -0.2485  0.5286  0.7116
13395TIP3    H161600   7.098   1.828   2.829 -0.2241 -0.1404  0.4554
13395TIP3    H261601   7.008   1.825   2.951  0.3098 -0.6902  0.8405
13396TIP3   OH261602   1.519   1.561   1.167  0.0299 -0.1805 -0.3901
13396TIP3    H161603   1.452   1.549   1.100  1.1129 -3.6835 -1.0739
13396TIP3    H261604   1.470   1.582   1.246 -1.6537 -0.2784 -1.3635
13397TIP3   OH261605   2.857   0.306   1.002  0.5914 -0.0505  0.0054
13397TIP3    H161606   2.793   0.239   1.026 -1.5847  1.5951 -0.8588
13397TIP3    H261607   2.913   0.264   0.937  0.1886 -1.4543  0.5385
13398TIP3   OH261608   0.643   4.845   2.318 -0.4068  0.3245 -0.2198
13398TIP3    H161609   0.597   4.890   2.247 -1.0869 -0.9289 -0.5964
13398TIP3    H261610   0.644   4.753   2.291  0.1255 -0.0356  0.9820
13399TIP3   OH261611   3.715   4.979   3.485 -0.0233  0.1792  0.1679
13399TIP3    H161612   3.767   4.911   3.528  2.6727  1.6983 -0.4441
13399TIP3    H261613   3.751   5.061   3.518 -3.2879  1.4179  1.0081
13400TIP3   OH261614   3.480   4.876  14.707  0.2506  0.1451 -0.1902
13400TIP3    H161615   3.462   4.967  14.685  0.9687  0.2033 -0.5556
13400TIP3    H261616   3.523   4.880  14.792  0.2950  0.1439 -0.2130
13401TIP3   OH261617   6.321   3.233   2.881 -0.5566  0.3694 -0.3621
13401TIP3    H161618   6.325   3.168   2.811 -0.8181 -0.1224  0.0743
13401TIP3    H261619   6.376   3.197   2.951 -1.7883 -0.0738  0.4281
13402TIP3   OH261620   3.956   3.301   0.503  0.0454  0.5360  0.0865
13402TIP3    H161621   4.024   3.275   0.566  1.1973  0.2550 -1.2176
13402TIP3    H261622   4.002   3.306   0.419 -1.7657 -0.7005 -1.0492
13403TIP3   OH261623   4.901   1.539   1.773 -0.4821 -0.1036 -1.2342
13403TIP3    H161624   4.870   1.458   1.813 -1.7184  0.2351 -1.4488
13403TIP3    H261625   4.929   1.593   1.847  0.4232 -0.7475 -1.0992
13404TIP3   OH261626   0.639   3.511  12.562 -0.0151 -0.2940  0.2837
13404TIP3    H161627   0.643   3.492  12.656 -0.0627 -3.9572 -0.2990
13404TIP3    H261628   0.723   3.480  12.527  0.1494  1.3378 -0.8918
13405TIP3   OH261629   5.799   6.661   4.798 -0.5111  0.1541 -0.1486
13405TIP3    H161630   5.815   6.605   4.722 -2.9865  0.3056 -0.8697
13405TIP3    H261631   5.753   6.738   4.763 -0.0075  1.1557  1.2563
13406TIP3   OH261632   0.977   5.399   1.199 -0.3113 -0.0251 -0.1670
13406TIP3    H161633   0.902   5.380   1.143 -0.1927 -0.3428 -0.2200
13406TIP3    H261634   0.959   5.487   1.234 -0.3825  0.1771 -0.7027
13407TIP3   OH261635   5.095   5.433   0.517 -0.2066 -0.0878 -0.7899
13407TIP3    H161636   5.183   5.432   0.479 -0.3324 -0.0646 -1.0867
13407TIP3    H261637   5.084   5.521   0.552 -0.3459  0.1100 -1.3164
13408TIP3   OH261638   0.537   5.239   4.377  0.0938 -0.3122  0.3354
13408TIP3    H161639   0.503   5.313   4.326  0.4003 -0.4507 -0.0758
13408TIP3    H261640   0.630   5.236   4.356  0.0119 -1.0404  0.0600
13409TIP3   OH261641   0.480   1.825  11.771 -0.0676  0.0203  0.0326
13409TIP3    H161642   0.543   1.803  11.702 -0.2152  0.5683 -0.2759
13409TIP3    H261643   0.533   1.827  11.851  0.3529  0.6978 -0.2572
13410TIP3   OH261644   2.721   5.139  13.873  0.4287  0.4154 -0.3057
13410TIP3    H161645   2.795   5.195  13.898  0.8522  0.5816 -1.8264
13410TIP3    H261646   2.761   5.068  13.823 -0.0176 -1.6968  2.1209
13411TIP3   OH261647   4.628   5.414   4.907 -0.1069  0.5716  0.0036
13411TIP3    H161648   4.712   5.368   4.898 -0.1045  0.4328  0.6505
13411TIP3    H261649   4.570   5.369   4.846 -0.0109 -0.0871  0.3781
13412TIP3   OH261650   5.988   4.339   3.573  0.5794 -0.3752  0.2958
13412TIP3    H161651   5.973   4.298   3.658  1.7134  0.3386  0.8655
13412TIP3    H261652   5.965   4.272   3.509 -0.9930 -0.6742  1.1421
13413TIP3   OH261653   5.366   2.702   3.821  0.3477 -0.3110  0.3632
13413TIP3    H161654   5.447   2.750   3.805  1.2866 -1.8275  0.3590
13413TIP3    H261655   5.320   2.705   3.737  1.4475 -1.2662 -0.3239
13414TIP3   OH261656   4.433   0.720   3.927 -0.5058  0.0838  0.0255
13414TIP3    H161657   4.522   0.691   3.946 -0.7836 -0.8900 -0.0902
13414TIP3    H261658   4.417   0.691   3.837 -1.2983 -0.6991  0.4025
13415TIP3   OH261659   0.894   2.814  14.744  0.2166  0.0086 -0.2551
13415TIP3    H161660   0.846   2.846  14.820  0.2500 -1.3085  0.3465
13415TIP3    H261661   0.962   2.758  14.781  0.9957  0.2974 -1.2021
13416TIP3   OH261662   5.516   1.708   4.612 -0.3404 -0.3971 -0.3044
13416TIP3    H161663   5.525   1.803   4.601 -1.4051 -0.2946 -0.4448
13416TIP3    H261664   5.437   1.699   4.665 -0.3303 -1.2171 -0.4304
13417TIP3   OH261665   5.581   6.437   2.971 -0.1405  0.6532 -0.0910
13417TIP3    H161666   5.495   6.457   3.008 -0.6300 -1.7347  0.2136
13417TIP3    H261667   5.627   6.521   2.971 -2.0105  1.7470  0.9245
13418TIP3   OH261668   0.010   1.691   9.674  0.2141 -0.6797  0.8366
13418TIP3    H161669   0.081   1.699   9.737  0.7527 -1.5265  0.3521
13418TIP3    H261670  -0.067   1.667   9.727  0.4254 -0.3746  1.2839
13419TIP3   OH261671   4.624   6.128   2.915 -0.4128  0.1013  0.1151
13419TIP3    H161672   4.708   6.114   2.870 -0.4116  0.7014 -0.0708
13419TIP3    H261673   4.558   6.104   2.850 -0.3946 -0.0184  0.1401
13420TIP3   OH261674   4.719   5.002   0.641 -0.2310  0.1619 -0.3685
13420TIP3    H161675   4.800   5.039   0.676 -0.5471  0.4948  0.0268
13420TIP3    H261676   4.687   5.068   0.580  0.2754 -0.3824 -1.2439
13421TIP3   OH261677   6.374   6.683   4.542  0.2613  0.7561 -0.6126
13421TIP3    H161678   6.464   6.658   4.565  0.1606  0.9499  0.0206
13421TIP3    H261679   6.320   6.635   4.604 -0.0799  0.5852 -1.0417
13422TIP3   OH261680   3.408   0.434   0.757 -0.2077 -0.0934  0.0337
13422TIP3    H161681   3.327   0.484   0.773  0.3623  0.6233  0.8136
13422TIP3    H261682   3.458   0.445   0.838  1.5857  1.2623 -1.1810
13423TIP3   OH261683   2.174   5.332   4.810 -0.0887 -0.0855  0.6006
13423TIP3    H161684   2.238   5.294   4.750  1.7892  1.6977  1.3700
13423TIP3    H261685   2.209   5.314   4.897 -1.8628 -1.0579  1.1746
13424TIP3   OH261686   1.151   1.950  14.895  0.0885  0.5530  0.4928
13424TIP3    H161687   1.243   1.927  14.890 -0.3533 -1.0599 -1.1441
13424TIP3    H261688   1.147   2.043  14.870  1.1408  0.3333 -0.5366
13425TIP3   OH261689   3.100   4.808   5.334  0.5501 -0.1419  0.7260
13425TIP3    H161690   3.191   4.779   5.344  0.1787 -1.3498  0.7625
13425TIP3    H261691   3.052   4.759   5.401 -0.3876 -0.8126 -0.3982
13426TIP3   OH261692   1.653   5.778   0.475 -0.8916 -0.1868  0.1624
13426TIP3    H161693   1.565   5.748   0.496 -0.7372 -1.9636 -1.4679
13426TIP3    H261694   1.644   5.823   0.391 -0.5191  1.3000  0.8861
13427TIP3   OH261695   5.368   5.323  15.122 -0.0797  0.5211  0.2578
13427TIP3    H161696   5.335   5.243  15.082 -2.4038  1.7422 -0.4246
13427TIP3    H261697   5.351   5.311  15.216 -0.7917  0.3590  0.1149
13428TIP3   OH261698   0.556   2.847  13.615 -0.0854  0.1164 -0.5149
13428TIP3    H161699   0.510   2.810  13.691 -0.2202  0.6281 -0.3426
13428TIP3    H261700   0.558   2.941  13.632  0.7174  0.1418 -0.6916
13429TIP3   OH261701   6.501   5.241   0.951 -0.4799 -0.3696 -0.4522
13429TIP3    H161702   6.466   5.211   0.867  0.6539  0.4809 -1.2547
13429TIP3    H261703   6.596   5.229   0.943 -0.3520 -0.2326  0.7012
13430TIP3   OH261704   4.924   0.518   0.423  0.2896  0.4993  0.0309
13430TIP3    H161705   4.851   0.458   0.408 -0.0065  1.2185 -1.6765
13430TIP3    H261706   4.994   0.463   0.459  0.2372 -1.0602 -2.0344
13431TIP3   OH261707   6.395   4.812   4.245  0.6485 -0.3613  0.4117
13431TIP3    H161708   6.330   4.861   4.194 -1.0329 -0.2574  2.5000
13431TIP3    H261709   6.417   4.737   4.191 -1.9195 -0.8618 -0.0733
13432TIP3   OH261710   0.185   1.816  11.699 -0.4667  0.5722  0.3855
13432TIP3    H161711   0.279   1.814  11.716 -0.5593 -1.5334  0.9679
13432TIP3    H261712   0.173   1.884  11.633  1.7912 -0.7041 -1.4458
13433TIP3   OH261713   6.985   0.520  14.466  0.0838 -0.2086  0.2358
13433TIP3    H161714   6.893   0.546  14.476  0.8122  3.6455 -1.3002
13433TIP3    H261715   7.018   0.514  14.555 -0.9074  1.9089  0.8200
13434TIP3   OH261716   3.537   1.510   5.245  0.1256 -0.2239 -0.1725
13434TIP3    H161717   3.497   1.520   5.159 -0.4157  0.0456  0.1044
13434TIP3    H261718   3.631   1.510   5.228  0.0208 -0.3003 -0.7742
13435TIP3   OH261719   2.799   4.154   2.591 -0.6179  0.2081 -0.1172
13435TIP3    H161720   2.822   4.108   2.671 -0.5161 -0.5040 -0.5484
13435TIP3    H261721   2.705   4.138   2.581 -0.5686  0.0243 -0.3043
13436TIP3   OH261722   5.704   1.591   0.796 -0.0744  0.2302 -0.2554
13436TIP3    H161723   5.701   1.679   0.833 -0.3535  0.4893 -0.8809
13436TIP3    H261724   5.645   1.594   0.720  0.3492 -0.3327 -0.6223
13437TIP3   OH261725   2.679   2.549   2.955  0.0206  0.5296  0.0793
13437TIP3    H161726   2.744   2.558   2.885  0.5253  1.1741  0.6141
13437TIP3    H261727   2.695   2.624   3.012  0.7483 -0.8917  1.8311
13438TIP3   OH261728   0.620   5.590   1.149 -0.0813 -0.1365  0.6772
13438TIP3    H161729   0.715   5.585   1.142 -0.1117 -0.0798  0.1394
13438TIP3    H261730   0.602   5.682   1.167 -0.0708 -0.0050  0.0302
13439TIP3   OH261731   6.007   5.523  12.417  0.0583 -0.6663  0.7496
13439TIP3    H161732   6.037   5.575  12.343  0.2784  0.2308  1.4618
13439TIP3    H261733   5.913   5.542  12.424  0.0761 -0.6036  0.8187
13440TIP3   OH261734   6.712   4.993  13.697 -0.0324  0.3626  0.2635
13440TIP3    H161735   6.794   5.039  13.682  0.3310 -0.4900 -0.4570
13440TIP3    H261736   6.689   5.014  13.788  0.6857  1.0564  0.2966
13441TIP3   OH261737   1.022   4.069   1.605  0.2585  0.4207  0.0713
13441TIP3    H161738   1.100   4.063   1.660  1.2021  0.7144 -1.1625
13441TIP3    H261739   0.972   4.142   1.642 -0.7467 -1.3507  2.4091
13442TIP3   OH261740   5.765   5.636   3.179  0.3614 -0.5951 -0.6033
13442TIP3    H161741   5.687   5.646   3.124  0.4772 -1.0731 -0.8629
13442TIP3    H261742   5.802   5.723   3.185 -0.6152 -0.2072  0.1607
13443TIP3   OH261743   6.922   3.635  12.450 -0.1566 -0.2979  0.0475
13443TIP3    H161744   6.984   3.656  12.520 -1.2635 -0.6411  1.1685
13443TIP3    H261745   6.847   3.596  12.495 -1.2658  0.2459 -1.2514
13444TIP3   OH261746   1.931   4.589   3.549 -0.2079 -0.1419 -0.6806
13444TIP3    H161747   1.960   4.609   3.461  1.5085  0.5951  0.0161
13444TIP3    H261748   1.917   4.494   3.549 -2.2938  0.1048 -2.2860
13445TIP3   OH261749   1.464   3.348   1.959  0.5473 -0.3518  0.1161
13445TIP3    H161750   1.382   3.393   1.938  0.7018 -0.5166 -0.8898
13445TIP3    H261751   1.495   3.390   2.038 -0.4439 -0.1945  0.4323
13446TIP3   OH261752   7.053   4.504   0.989 -0.2803  0.4035 -0.1799
13446TIP3    H161753   7.077   4.583   0.941  2.0896 -0.5201 -0.6471
13446TIP3    H261754   6.975   4.471   0.944 -1.0050  2.1523 -0.2891
13447TIP3   OH261755   5.336   3.366   3.366  0.1514  0.0828 -0.3488
13447TIP3    H161756   5.374   3.376   3.454 -0.8941  4.0036 -0.1522
13447TIP3    H261757   5.409   3.382   3.307  0.3281  0.0350 -0.1473
13448TIP3   OH261758   6.840   1.143   0.570 -0.0666 -0.7325 -0.3838
13448TIP3    H161759   6.745   1.141   0.562 -0.2071 -0.4397  0.9829
13448TIP3    H261760   6.863   1.058   0.609  0.3042 -1.0359 -1.2267
13449TIP3   OH261761   6.895   0.218   4.995 -0.2947  0.6643 -0.5287
13449TIP3    H161762   6.831   0.281   5.028  0.0041  1.3032 -1.1333
13449TIP3    H261763   6.966   0.272   4.960  0.0991 -0.0154 -0.8006
13450TIP3   OH261764   4.779   0.693  12.372  0.3107 -0.4825 -0.0525
13450TIP3    H161765   4.835   0.770  12.362 -0.1055 -0.1990 -0.2235
13450TIP3    H261766   4.819   0.627  12.316  1.3851 -0.8005  1.0399
13451TIP3   OH261767   4.702   6.669   1.937 -0.0928 -0.1199 -0.1601
13451TIP3    H161768   4.616   6.626   1.944 -0.3859  0.5028  0.1714
13451TIP3    H261769   4.753   6.630   2.009 -0.6725  0.7662  0.7650
13452TIP3   OH261770   0.990   4.699  15.187  0.0294  0.1939  0.0234
13452TIP3    H161771   0.987   4.772  15.125 -0.0705 -0.2623 -0.5049
13452TIP3    H261772   0.943   4.628  15.144  0.5042 -0.3298  0.3607
13453TIP3   OH261773   1.004   4.259   0.957 -0.5288 -0.2616  0.0359
13453TIP3    H161774   0.956   4.291   0.881  0.8605 -0.0339 -0.7700
13453TIP3    H261775   1.095   4.284   0.941 -0.3947  1.2329  2.5169
13454TIP3   OH261776   0.327   5.683   3.053 -0.0807  0.3752  0.3723
13454TIP3    H161777   0.243   5.644   3.075  0.7169 -2.5133 -1.0749
13454TIP3    H261778   0.342   5.749   3.120 -2.9238  0.1332  1.3638
13455TIP3   OH261779   2.305   2.529   4.059 -0.2895 -0.2274  0.1715
13455TIP3    H161780   2.247   2.476   4.114 -0.5100  0.2756  0.4264
13455TIP3    H261781   2.390   2.523   4.102 -0.7431  1.2615  1.3580
13456TIP3   OH261782   2.926   0.022  15.364  0.3461  0.2417  0.0875
13456TIP3    H161783   2.992   0.040  15.432  1.4596 -1.0330 -0.5995
13456TIP3    H261784   2.977   0.012  15.284 -0.8473  0.6211 -0.7435
13457TIP3   OH261785   1.729   1.508   4.116 -0.3448 -0.3192 -0.2901
13457TIP3    H161786   1.790   1.582   4.111 -1.8291  1.0288  0.4722
13457TIP3    H261787   1.668   1.533   4.185 -1.7503 -1.6170 -1.0104
13458TIP3   OH261788   0.738   6.919   1.951 -0.0021  0.3559 -0.2162
13458TIP3    H161789   0.731   6.971   2.031  0.0284  0.6874 -0.4271
13458TIP3    H261790   0.736   6.828   1.981  0.1344  0.4794  0.1701
13459TIP3   OH261791   0.326   0.628   5.249  0.7966 -0.2239  0.3132
13459TIP3    H161792   0.311   0.705   5.194 -2.1469  0.2845  1.6288
13459TIP3    H261793   0.299   0.554   5.195  0.6944 -0.0163  0.0799
13460TIP3   OH261794   3.326   0.227  12.440  0.4488  0.4152 -0.2952
13460TIP3    H161795   3.311   0.185  12.355 -0.6125  1.0642 -0.4465
13460TIP3    H261796   3.356   0.315  12.417  0.3502  0.5267  0.0088
13461TIP3   OH261797   3.528   3.134  12.932  0.2508 -0.4657 -0.1026
13461TIP3    H161798   3.528   3.224  12.963  1.4402 -0.6580  0.5321
13461TIP3    H261799   3.553   3.140  12.840 -0.2537 -0.1112 -0.2186
13462TIP3   OH261800   5.907   7.147   0.584  0.0321 -1.0200  0.2550
13462TIP3    H161801   5.842   7.212   0.610  0.2714 -0.8352  0.4038
13462TIP3    H261802   5.977   7.198   0.544  0.7060 -1.0661  1.3277
13463TIP3   OH261803   7.113   6.624   2.582 -0.1819  0.1322 -0.4716
13463TIP3    H161804   7.197   6.577   2.582 -0.1903  0.1123 -0.0941
13463TIP3    H261805   7.049   6.558   2.609 -0.4170 -0.0149 -1.3717
13464TIP3   OH261806   3.068   1.503  13.848  0.0216 -0.2847  0.1825
13464TIP3    H161807   3.160   1.500  13.822 -0.0862  1.5903 -0.5129
13464TIP3    H261808   3.026   1.559  13.783 -1.5159 -0.6245  0.8317
13465TIP3   OH261809   5.535   4.622  13.432 -0.2959  0.7100 -0.5438
13465TIP3    H161810   5.533   4.713  13.464  1.7447  0.3260  0.8540
13465TIP3    H261811   5.617   4.615  13.384 -0.0232 -0.5792  0.0557
13466TIP3   OH261812   4.676   2.134   2.024  0.0589 -0.3870  0.2806
13466TIP3    H161813   4.603   2.113   1.965  0.0328  0.9238 -0.2065
13466TIP3    H261814   4.656   2.223   2.054  0.7726 -0.5336  1.2194
13467TIP3   OH261815   2.822   4.680   0.560  0.1861  0.4730 -0.2011
13467TIP3    H161816   2.891   4.614   0.574 -1.1485 -0.8390  0.5272
13467TIP3    H261817   2.758   4.662   0.629 -0.7210  1.8894 -0.6339
13468TIP3   OH261818   4.980   4.456   0.401  0.4967  0.2275  0.1459
13468TIP3    H161819   4.922   4.523   0.366  0.5677  0.2061 -0.0153
13468TIP3    H261820   4.926   4.376   0.401  1.1230 -0.2630 -1.9399
13469TIP3   OH261821   0.073   3.645  14.663  0.3111 -0.0449 -0.3089
13469TIP3    H161822   0.023   3.717  14.624  0.6013  0.4344  0.1821
13469TIP3    H261823   0.034   3.566  14.626 -0.8809  0.3130  0.1288
13470TIP3   OH261824   2.348   4.580   1.464 -0.1485  0.1437 -0.3186
13470TIP3    H161825   2.414   4.527   1.420 -2.2811 -1.3860 -1.8148
13470TIP3    H261826   2.372   4.575   1.557  3.2899  1.8090 -0.9234
13471TIP3   OH261827   3.231   4.087  13.825  0.0177  0.2553 -0.3758
13471TIP3    H161828   3.210   4.037  13.746 -0.8855  1.1546 -0.7158
13471TIP3    H261829   3.313   4.132  13.803  0.1467 -0.0516 -0.5346
13472TIP3   OH261830   4.567   1.659  15.337 -0.1911  0.0001 -0.0148
13472TIP3    H161831   4.508   1.707  15.279 -0.6519 -0.1996  0.2868
13472TIP3    H261832   4.653   1.667  15.295 -0.2565  1.0746  0.0232
13473TIP3   OH261833   7.062   2.178   1.298 -1.0909 -0.8448  0.0768
13473TIP3    H161834   7.019   2.145   1.377 -1.1648  1.1623  0.9552
13473TIP3    H261835   7.134   2.231   1.331 -3.2164  3.0567 -0.8971
13474TIP3   OH261836   2.688   5.315   4.871 -0.3908  0.6148 -0.1763
13474TIP3    H161837   2.658   5.406   4.875  1.0159  1.0785  0.3961
13474TIP3    H261838   2.725   5.298   4.958 -1.2181 -0.7242 -0.0689
13475TIP3   OH261839   7.115   3.197   5.036 -0.1968 -0.0619 -0.0176
13475TIP3    H161840   7.193   3.169   5.084  0.5768  1.4806 -0.3139
13475TIP3    H261841   7.141   3.194   4.944 -1.3266 -1.9508 -0.3347
13476TIP3   OH261842   5.044   2.913  14.069  0.2292  0.1415 -0.1078
13476TIP3    H161843   5.039   3.001  14.033 -0.1884 -0.0721 -0.5699
13476TIP3    H261844   5.040   2.926  14.164 -1.5416  0.5193 -0.2064
13477TIP3   OH261845   1.871   6.672   1.040  0.0812 -0.2401  0.3037
13477TIP3    H161846   1.914   6.589   1.061 -0.8233 -0.9226 -0.4293
13477TIP3    H261847   1.876   6.677   0.944 -0.7284  0.0783  0.2756
13478TIP3   OH261848   2.572   4.857   0.611 -0.3530  0.3053  0.0371
13478TIP3    H161849   2.608   4.946   0.621  1.4167 -0.3920  0.3202
13478TIP3    H261850   2.590   4.815   0.695  0.5743 -0.8818 -0.7154
13479TIP3   OH261851   6.340   0.853   1.749  0.2805  0.0353 -0.3725
13479TIP3    H161852   6.255   0.852   1.792  0.9708 -0.6784  1.0232
13479TIP3    H261853   6.333   0.788   1.680 -1.0615  1.6667 -1.8917
13480TIP3   OH261854   5.202   0.480   4.043 -0.1860 -0.3672  0.0661
13480TIP3    H161855   5.145   0.447   4.112  0.0260 -1.6548 -0.3369
13480TIP3    H261856   5.269   0.531   4.089 -0.1703 -1.0208  0.7968
13481TIP3   OH261857   3.120   1.231   4.098 -0.1713  1.0411 -0.1638
13481TIP3    H161858   3.141   1.185   4.178 -0.2379  1.2349 -0.0337
13481TIP3    H261859   3.176   1.309   4.099  1.1160  0.1749 -1.1548
13482TIP3   OH261860   2.866   4.698   3.021 -0.5637  0.5617 -0.1702
13482TIP3    H161861   2.879   4.721   2.929 -1.4164 -0.6661 -0.6299
13482TIP3    H261862   2.772   4.680   3.028 -1.0158  3.0895  1.5562
13483TIP3   OH261863   2.251   3.468   4.711  0.0644  0.0613  0.3001
13483TIP3    H161864   2.169   3.458   4.759 -0.7521  0.7882 -0.8906
13483TIP3    H261865   2.245   3.555   4.672  0.8626 -0.3695 -0.8105
13484TIP3   OH261866   0.616   2.271  13.914  0.2445  0.0829  0.4465
13484TIP3    H161867   0.673   2.347  13.925  0.6642 -0.1920  0.2135
13484TIP3    H261868   0.671   2.197  13.938 -0.3904 -0.0895  1.4154
13485TIP3   OH261869   3.974   3.154  12.618 -0.2309 -0.0302  0.1475
13485TIP3    H161870   4.018   3.233  12.587 -0.1175 -0.2625 -0.2814
13485TIP3    H261871   3.939   3.179  12.704  1.2969 -0.0312  0.8081
13486TIP3   OH261872   0.980   1.822  15.217  0.0601  0.5471  0.1150
13486TIP3    H161873   1.064   1.776  15.218 -0.5502 -0.5910  0.6421
13486TIP3    H261874   0.933   1.785  15.142 -1.5575 -1.8573  2.1719
13487TIP3   OH261875   1.860   4.004   3.944 -0.6200  0.3794  0.2729
13487TIP3    H161876   1.817   4.016   3.859  0.0094 -0.4695 -0.1930
13487TIP3    H261877   1.835   4.080   3.996 -0.9530  0.9484 -0.7066
13488TIP3   OH261878   1.578   1.154   5.482  0.1451  0.2906  0.1059
13488TIP3    H161879   1.673   1.153   5.485  0.1603  1.6247  0.4190
13488TIP3    H261880   1.551   1.206   5.557 -0.6730  3.3186 -2.0875
13489TIP3   OH261881   0.120   6.115   3.701  0.0909  0.2077  0.5841
13489TIP3    H161882   0.133   6.179   3.631  0.2216  0.5184  0.8890
13489TIP3    H261883   0.054   6.055   3.666  1.2775 -0.5654 -0.4315
13490TIP3   OH261884   2.996   1.064   0.100 -0.4042  0.5135  0.5948
13490TIP3    H161885   3.083   1.103   0.102  1.6719 -3.0922 -3.4023
13490TIP3    H261886   2.942   1.127   0.052  1.6292  0.5062 -1.8912
13491TIP3   OH261887   2.510   0.243   4.825  0.6126 -0.4200  0.1400
13491TIP3    H161888   2.451   0.171   4.801  0.8005  0.3932 -3.2184
13491TIP3    H261889   2.498   0.308   4.756  1.6209  2.1343  2.1975
13492TIP3   OH261890   3.050   2.709   4.108  0.5680  0.0908 -0.2922
13492TIP3    H161891   3.022   2.798   4.127  0.0153 -0.4690  1.8429
13492TIP3    H261892   2.975   2.668   4.065 -0.0130  0.0759  0.6983
13493TIP3   OH261893   3.133   5.384  11.862 -0.6839  0.1393  0.1434
13493TIP3    H161894   3.206   5.367  11.803 -1.8425  0.1524 -1.3688
13493TIP3    H261895   3.166   5.364  11.949  0.7112 -1.1161 -0.6432
13494TIP3   OH261896   4.979   3.043   3.213 -0.2693 -0.8263  0.2808
13494TIP3    H161897   4.939   3.024   3.298 -2.2741 -0.0805 -0.4311
13494TIP3    H261898   5.041   3.114   3.230 -1.9061  0.5204  0.8899
13495TIP3   OH261899   5.431   4.020   1.691  0.0487  0.2432 -0.0001
13495TIP3    H161900   5.443   4.113   1.711 -2.4500  0.2480  2.0161
13495TIP3    H261901   5.364   4.019   1.623  0.4166 -0.0719 -0.3555
13496TIP3   OH261902   0.083   0.006   4.077  0.1308  0.2448  0.1206
13496TIP3    H161903   0.138  -0.066   4.046 -1.9903 -0.6798 -1.8095
13496TIP3    H261904   0.127   0.085   4.045  1.1564 -0.3365  0.0350
13497TIP3   OH261905   1.198   6.799  14.655 -0.4358 -0.0191 -0.0198
13497TIP3    H161906   1.155   6.781  14.572  1.8656 -3.4127 -0.6919
13497TIP3    H261907   1.138   6.768  14.722 -0.8690 -0.5086 -0.6347
13498TIP3   OH261908   3.909   2.645   0.685  0.6761 -0.6311  0.3051
13498TIP3    H161909   3.818   2.639   0.656  0.6113  0.9020  0.1316
13498TIP3    H261910   3.960   2.647   0.604  0.9823 -2.4726  0.3973
13499TIP3   OH261911   2.979   5.915   2.385 -0.1618  0.2349  0.3883
13499TIP3    H161912   2.898   5.964   2.402  0.5790  1.5892  0.1311
13499TIP3    H261913   3.028   5.970   2.324  0.2584 -1.3292 -0.7402
13500TIP3   OH261914   2.181   6.006   3.111  0.4143 -0.3005  0.0383
13500TIP3    H161915   2.243   5.942   3.145  1.1155  0.4369  0.1788
13500TIP3    H261916   2.225   6.090   3.122 -0.7535  0.2788  0.4706
13501TIP3   OH261917   0.207   5.658  15.492  0.3796  0.4914  0.9505
13501TIP3    H161918   0.262   5.605  15.434  0.1088  1.0278  0.1873
13501TIP3    H261919   0.117   5.634  15.468  0.2679  0.0364  1.8013
13502TIP3   OH261920   1.698   4.914   0.901 -0.3926 -0.0568 -0.3712
13502TIP3    H161921   1.610   4.899   0.868 -0.2383  0.1992 -0.9093
13502TIP3    H261922   1.721   4.833   0.946  0.2221 -1.3250 -2.7715
13503TIP3   OH261923   3.703   0.947   1.936 -0.1076 -0.2535 -0.3019
13503TIP3    H161924   3.675   0.964   1.846  2.6515 -0.0761 -1.1982
13503TIP3    H261925   3.719   1.034   1.973 -1.4718 -0.3081  0.5195
13504TIP3   OH261926   4.385   4.989   3.444 -0.2739 -0.2638  0.1663
13504TIP3    H161927   4.366   4.990   3.350 -0.7325 -1.1971  0.2351
13504TIP3    H261928   4.463   5.043   3.453 -0.2715 -0.0932 -0.7430
13505TIP3   OH261929   3.200   6.959  15.095  0.3303 -0.3649 -0.8965
13505TIP3    H161930   3.284   7.006  15.100  0.2342  0.2024 -3.3617
13505TIP3    H261931   3.134   7.027  15.105  0.1834 -0.3787 -1.7252
13506TIP3   OH261932   6.733   4.248   3.675 -0.2046 -0.2064  0.1631
13506TIP3    H161933   6.802   4.311   3.655 -2.1566  1.5754 -1.3509
13506TIP3    H261934   6.701   4.274   3.761  0.2846 -0.3787  0.4009
13507TIP3   OH261935   2.616   0.571   3.339 -0.7289 -0.0720 -0.1757
13507TIP3    H161936   2.641   0.603   3.252  1.4101  0.0806  0.4286
13507TIP3    H261937   2.541   0.514   3.323 -1.1538  0.9164 -1.9524
13508TIP3   OH261938   0.133   0.891   4.720  0.1938  0.1492 -0.6955
13508TIP3    H161939   0.046   0.928   4.737  0.4192  0.5351 -0.4009
13508TIP3    H261940   0.191   0.966   4.715  0.7579 -0.1860  0.5277
13509TIP3   OH261941   6.688   1.458   0.757 -0.1832  0.4728  0.0095
13509TIP3    H161942   6.647   1.373   0.740  1.2918 -0.5714  1.3579
13509TIP3    H261943   6.725   1.483   0.672 -0.8212 -0.1176 -0.4552
13510TIP3   OH261944   2.410   5.420   3.102  0.3632 -0.1746  0.2685
13510TIP3    H161945   2.435   5.407   3.194 -0.5998 -2.1552  0.2928
13510TIP3    H261946   2.374   5.336   3.075 -0.1562  0.6377 -1.6945
13511TIP3   OH261947   6.240   6.515   4.706 -0.3332  0.8489 -0.2616
13511TIP3    H161948   6.144   6.514   4.710 -0.4139  2.7901 -0.6806
13511TIP3    H261949   6.267   6.454   4.775 -1.8106 -3.0788 -2.8129
13512TIP3   OH261950   0.336   2.141   3.836  0.2521 -0.2055  0.3610
13512TIP3    H161951   0.358   2.102   3.920  0.6109  1.2972  0.9995
13512TIP3    H261952   0.245   2.115   3.820  0.1022 -0.3073  1.3261
13513TIP3   OH261953   1.719   5.060  11.118 -0.5124 -0.5592 -0.7933
13513TIP3    H161954   1.698   5.026  11.031 -0.3397  0.3895 -1.2104
13513TIP3    H261955   1.784   4.999  11.152 -2.2832 -2.3190 -0.3370
13514TIP3   OH261956   2.164   0.817   0.711  0.2431 -0.4648 -0.3090
13514TIP3    H161957   2.105   0.880   0.753  0.8200 -0.7105  0.9282
13514TIP3    H261958   2.150   0.829   0.617 -0.8403  0.3622 -0.0580
13515TIP3   OH261959   3.791   2.682   3.799  0.3655 -0.3219 -0.2364
13515TIP3    H161960   3.868   2.660   3.747  0.2147  0.0866 -0.6345
13515TIP3    H261961   3.825   2.697   3.887  0.2946 -3.8206  0.5408
13516TIP3   OH261962   1.705   3.791  13.865  0.4386 -0.3627  0.1077
13516TIP3    H161963   1.726   3.786  13.958 -0.0764  2.9401  0.5217
13516TIP3    H261964   1.634   3.855  13.860  1.3723  0.6201 -2.6681
13517TIP3   OH261965   6.885   5.369   0.479  0.0358  0.4617 -0.2169
13517TIP3    H161966   6.831   5.448   0.478  1.2636  1.3707  1.1911
13517TIP3    H261967   6.838   5.307   0.423 -1.5195  1.8065 -0.4707
13518TIP3   OH261968   6.611   0.588  12.336  0.1383  0.7449 -0.0954
13518TIP3    H161969   6.645   0.640  12.409  0.4027 -0.3753  0.6053
13518TIP3    H261970   6.683   0.584  12.274  0.9500 -0.6881  0.8893
13519TIP3   OH261971   4.527   2.021  15.100 -0.0248  0.1734 -0.4373
13519TIP3    H161972   4.524   2.115  15.081 -0.7768  0.5037  1.2188
13519TIP3    H261973   4.540   2.016  15.194  0.0099 -1.4015 -0.5119
13520TIP3   OH261974   1.495   5.110   2.910 -0.1770 -0.5102  0.2418
13520TIP3    H161975   1.421   5.136   2.855 -0.4017  0.0345  0.7896
13520TIP3    H261976   1.569   5.105   2.850 -0.6968 -1.2787 -0.3540
13521TIP3   OH261977   3.621   1.700  13.430 -0.3054 -0.1940 -0.1322
13521TIP3    H161978   3.620   1.633  13.362  1.9366  2.0557 -2.6626
13521TIP3    H261979   3.703   1.685  13.477 -1.4986 -1.2894  1.7088
13522TIP3   OH261980   6.946   4.688   2.637  0.3423 -0.0393  0.4512
13522TIP3    H161981   7.036   4.659   2.651  0.1113 -1.2486 -0.3781
13522TIP3    H261982   6.954   4.781   2.616  1.3667 -0.0549  0.7198
13523TIP3   OH261983   1.488   6.989   0.807 -0.1671 -0.5006 -0.2645
13523TIP3    H161984   1.458   6.970   0.718 -1.2812  1.3201 -0.3363
13523TIP3    H261985   1.546   6.917   0.829  0.1701 -0.9782 -2.4916
13524TIP3   OH261986   0.077   6.283   2.946 -0.3653  0.2651  0.7170
13524TIP3    H161987   0.017   6.236   2.889 -0.1135  0.0339  0.6394
13524TIP3    H261988   0.047   6.262   3.035  0.1454 -0.5921  0.7015
13525TIP3   OH261989   5.841   2.188   1.452  0.7246  0.3294  0.0030
13525TIP3    H161990   5.801   2.233   1.378 -1.3151 -1.4131 -0.0622
13525TIP3    H261991   5.779   2.200   1.524  1.2435 -0.4354  0.5968
13526TIP3   OH261992   6.529   1.562  14.475  0.0119 -0.2372 -0.3341
13526TIP3    H161993   6.472   1.624  14.429 -1.1584 -0.5936  0.5548
13526TIP3    H261994   6.475   1.532  14.549  0.7788 -1.8351 -0.3869
13527TIP3   OH261995   1.412   3.135   2.203 -0.3816  0.0959  0.2931
13527TIP3    H161996   1.462   3.189   2.264 -0.2758  1.0851 -0.6276
13527TIP3    H261997   1.341   3.192   2.174  2.0250  1.4547 -3.8879
13528TIP3   OH261998   4.043   0.579   3.540  0.4250  0.2090  0.6167
13528TIP3    H161999   4.076   0.502   3.586  1.3813  0.8542  1.0380
13528TIP3    H262000   4.111   0.599   3.476 -0.0035  0.4747  0.2447
13529TIP3   OH262001   2.046   1.672   3.783 -0.1784 -0.6190  0.2874
13529TIP3    H162002   2.001   1.588   3.786  0.4671 -0.9770 -0.0739
13529TIP3    H262003   2.056   1.692   3.690  3.5418 -2.2611  0.1787
13530TIP3   OH262004   6.365   6.916   3.870 -0.1834 -0.1677 -0.1244
13530TIP3    H162005   6.416   6.996   3.858 -1.5147  1.0065  1.5806
13530TIP3    H262006   6.296   6.921   3.805 -0.1340 -0.0507 -0.1685
13531TIP3   OH262007   1.441   6.481   0.922 -0.4655  0.0459  0.1715
13531TIP3    H162008   1.463   6.573   0.909 -0.0781 -0.0162  0.3578
13531TIP3    H262009   1.372   6.463   0.859 -1.8458  0.9530  1.3519
13532TIP3   OH262010   4.131   0.058   0.882  0.5159  0.1808 -0.3099
13532TIP3    H162011   4.070   0.132   0.877 -0.7859 -0.6096  2.1829
13532TIP3    H262012   4.083  -0.010   0.929  1.7786 -2.1992 -2.2619
13533TIP3   OH262013   6.803   5.722  10.977  0.2447  0.2094  0.4924
13533TIP3    H162014   6.761   5.638  10.996 -0.3727  0.4107  0.0653
13533TIP3    H262015   6.730   5.784  10.971  0.6417  0.6524  0.1854
13534TIP3   OH262016   1.059   0.361   1.399 -0.3150 -0.8988 -0.1245
13534TIP3    H162017   0.965   0.372   1.385 -0.3893 -2.1503 -0.7708
13534TIP3    H262018   1.098   0.442   1.365 -0.9336 -1.6421 -2.8396
13535TIP3   OH262019   6.303   0.373  13.927  0.4669 -0.1755  1.0396
13535TIP3    H162020   6.265   0.294  13.888  0.8126 -0.4727  1.3020
13535TIP3    H262021   6.265   0.445  13.877  1.3680 -0.5693 -0.2623
13536TIP3   OH262022   3.779   5.004   4.036 -0.5487  0.1052 -0.1881
13536TIP3    H162023   3.779   5.037   4.126 -1.3436  0.5735 -0.3476
13536TIP3    H262024   3.692   4.965   4.025 -0.6577  0.5378 -0.9271
13537TIP3   OH262025   4.600   4.208   4.805  0.0958  0.2709 -0.1963
13537TIP3    H162026   4.642   4.126   4.780 -2.3937 -1.0560 -0.3194
13537TIP3    H262027   4.585   4.201   4.900 -0.9037  0.1572 -0.3450
13538TIP3   OH262028   3.327   0.879  13.960 -0.3990 -0.4875  0.9795
13538TIP3    H162029   3.264   0.870  13.888  0.2799 -0.4497  0.3780
13538TIP3    H262030   3.363   0.791  13.972 -0.3308 -0.4410  1.1140
13539TIP3   OH262031   6.767   0.483  14.212  0.2051  0.2760 -0.5295
13539TIP3    H162032   6.850   0.459  14.169  1.2849 -1.2243  2.1543
13539TIP3    H262033   6.770   0.578  14.216  1.5936  0.2799 -0.9189
13540TIP3   OH262034   6.750   2.367   3.495  0.0601 -0.4695 -0.6130
13540TIP3    H162035   6.739   2.282   3.537 -1.3464  0.2196  0.4845
13540TIP3    H262036   6.840   2.392   3.516  0.4521 -1.6057 -0.8521
13541TIP3   OH262037   2.711   4.535  14.507 -0.8140 -0.1851 -0.8405
13541TIP3    H162038   2.774   4.546  14.435 -0.7343 -0.2362 -0.7771
13541TIP3    H262039   2.627   4.561  14.469 -0.4521  1.8501 -0.3518
13542TIP3   OH262040   3.294   6.999  15.433  0.6109 -0.2324 -0.1079
13542TIP3    H162041   3.340   7.083  15.441  0.8957 -0.2890 -1.0059
13542TIP3    H262042   3.334   6.957  15.357 -0.1102 -0.8174 -0.1765
13543TIP3   OH262043   4.087   5.406   3.532 -0.4388  0.2771 -0.0946
13543TIP3    H162044   4.179   5.405   3.507 -0.2126 -0.1025  0.7056
13543TIP3    H262045   4.064   5.499   3.534  0.2571  0.4490  0.8102
13544TIP3   OH262046   3.207   0.536   1.757  0.3670 -0.3043 -0.3785
13544TIP3    H162047   3.301   0.539   1.739  0.4514  0.4873  0.1840
13544TIP3    H262048   3.175   0.623   1.736 -0.2677 -0.5972 -0.6603
13545TIP3   OH262049   5.300   2.211   3.399 -0.0425  0.8597 -0.8877
13545TIP3    H162050   5.246   2.144   3.441  0.8001  1.1252  0.6568
13545TIP3    H262051   5.237   2.278   3.372 -0.6507  0.4813 -0.4636
13546TIP3   OH262052   4.538   0.751  12.473  0.0028 -0.1113  0.1620
13546TIP3    H162053   4.630   0.740  12.449 -0.1692 -0.2772 -0.4344
13546TIP3    H262054   4.494   0.770  12.391 -0.8101 -2.0630  0.0881
13547TIP3   OH262055   6.521   5.238   2.293 -0.7727  0.3658  0.2931
13547TIP3    H162056   6.549   5.327   2.271 -1.7058  0.4067 -0.8654
13547TIP3    H262057   6.594   5.183   2.265 -0.8784  0.6508 -0.6028
13548TIP3   OH262058   2.650   0.131   5.024  0.3715 -0.3638 -0.1801
13548TIP3    H162059   2.593   0.179   4.964  2.1784  1.4287 -0.5795
13548TIP3    H262060   2.616   0.153   5.111 -0.9457 -1.2255 -0.4574
13549TIP3   OH262061   0.041   4.888   4.889  0.6625  0.3597  0.6809
13549TIP3    H162062   0.109   4.873   4.823  0.3233 -0.6591  0.5410
13549TIP3    H262063   0.000   4.802   4.901 -0.0476  0.7810  1.3758
13550TIP3   OH262064   4.559   5.790  10.548  0.0719  0.2907  0.9580
13550TIP3    H162065   4.518   5.872  10.521 -0.2702 -0.8946 -2.5986
13550TIP3    H262066   4.486   5.734  10.574  0.3084  1.0069  3.4313
13551TIP3   OH262067   3.335   0.789   3.826  0.2804 -0.4523  0.1345
13551TIP3    H162068   3.327   0.775   3.732 -1.7822 -1.7380  0.4369
13551TIP3    H262069   3.346   0.884   3.835  0.4144 -0.3020 -1.3891
13552TIP3   OH262070   3.190   1.789   4.011  0.2610 -0.5037 -0.0009
13552TIP3    H162071   3.123   1.855   3.993 -0.6204 -1.6280 -1.0063
13552TIP3    H262072   3.244   1.827   4.081 -1.1512  0.6147  0.5128
13553TIP3   OH262073   7.040   5.804   0.182  0.1770 -0.1054 -0.3088
13553TIP3    H162074   7.025   5.713   0.157  0.4436 -0.8297  1.9241
13553TIP3    H262075   7.021   5.854   0.103 -1.2307 -1.9809 -1.2403
13554TIP3   OH262076   5.415   6.391   4.630  0.4322 -0.0693  0.2127
13554TIP3    H162077   5.327   6.430   4.632  0.6441  0.4218  0.0124
13554TIP3    H262078   5.399   6.297   4.626 -0.0867  0.0075  0.3529
13555TIP3   OH262079   2.429   6.944   2.479  0.3041  0.3082 -0.1939
13555TIP3    H162080   2.421   6.997   2.399  2.6547  1.1145  0.0423
13555TIP3    H262081   2.479   6.867   2.452  0.7126  0.3614  0.4042
13556TIP3   OH262082   5.521   1.165  14.830 -0.1135 -0.1986 -0.4139
13556TIP3    H162083   5.474   1.084  14.811 -0.7349  0.1215 -0.2752
13556TIP3    H262084   5.601   1.137  14.874  0.3817 -0.8211 -1.6864
13557TIP3   OH262085   6.577   1.142   0.291 -0.2312 -0.0990 -0.1113
13557TIP3    H162086   6.492   1.109   0.260 -0.1774  0.5365 -0.9979
13557TIP3    H262087   6.591   1.222   0.240 -0.8247  1.8972  2.6051
13558TIP3   OH262088   6.307   2.922   3.685  0.0767  0.6532 -0.2177
13558TIP3    H162089   6.377   2.858   3.676  0.7101  0.9312  1.9676
13558TIP3    H262090   6.226   2.871   3.679  0.5370 -0.1012 -0.1658
13559TIP3   OH262091   5.180   0.267   0.559 -0.0197  0.2468  0.2234
13559TIP3    H162092   5.155   0.191   0.508  0.4722 -0.6128  1.2278
13559TIP3    H262093   5.129   0.260   0.640  0.6408  0.5210  0.6768
13560TIP3   OH262094   1.611   5.866   3.692  0.1698 -0.1885  0.0053
13560TIP3    H162095   1.524   5.862   3.654 -0.2806  1.3627  0.7869
13560TIP3    H262096   1.637   5.958   3.682  0.6323 -0.0500  2.0692
13561TIP3   OH262097   6.726   5.264   2.673  0.1460 -1.3037  0.3479
13561TIP3    H162098   6.728   5.293   2.765 -0.6152 -1.2644  0.3640
13561TIP3    H262099   6.733   5.169   2.678 -0.6104 -1.3640  0.5063
13562TIP3   OH262100   6.169   6.871   3.119 -0.1228 -0.2153 -0.2080
13562TIP3    H162101   6.102   6.886   3.185 -0.8837  1.9909 -1.3822
13562TIP3    H262102   6.251   6.896   3.161 -0.5409  0.7456  0.0725
13563TIP3   OH262103   7.129   1.489  12.486 -0.8023 -0.2505 -0.2961
13563TIP3    H162104   7.192   1.422  12.459 -0.2393  0.8307 -1.7898
13563TIP3    H262105   7.159   1.517  12.572 -1.5928 -2.5389  0.8027
13564TIP3   OH262106   3.190   6.756   2.121 -0.0591  0.6723  0.2196
13564TIP3    H162107   3.248   6.832   2.114  0.5052  0.3438  1.1843
13564TIP3    H262108   3.172   6.731   2.030  2.2426  0.0829 -0.1224
13565TIP3   OH262109   0.694   5.965   5.813 -0.3424 -0.0838 -0.1393
13565TIP3    H162110   0.781   5.978   5.775 -0.3165  0.5976  0.1352
13565TIP3    H262111   0.700   5.881   5.858 -0.4568 -1.0467 -1.8458
13566TIP3   OH262112   3.956   3.126  14.160  0.4740 -0.2434 -0.1149
13566TIP3    H162113   4.037   3.156  14.120  0.8813 -1.5370 -0.3064
13566TIP3    H262114   3.966   3.031  14.166 -0.5857 -0.3145  0.8393
13567TIP3   OH262115   5.295   3.538  14.565  0.2220  0.3632  0.0110
13567TIP3    H162116   5.266   3.448  14.577  0.4701  0.3473  0.5583
13567TIP3    H262117   5.245   3.588  14.630  1.0715  0.4022  0.6553
13568TIP3   OH262118   4.410   2.328  14.015  0.1676  0.1822 -0.3474
13568TIP3    H162119   4.379   2.398  14.072 -0.3444 -0.9660  0.8312
13568TIP3    H262120   4.488   2.295  14.059  0.1842 -0.2389 -0.6960
13569TIP3   OH262121   2.232   1.489   3.898  0.0033 -0.3467  0.1214
13569TIP3    H162122   2.170   1.559   3.876  1.2889  0.4016 -1.3024
13569TIP3    H262123   2.315   1.534   3.912  1.2627 -1.6494 -2.4780
13570TIP3   OH262124   0.633   6.795   3.343 -0.1771 -0.2795  0.6255
13570TIP3    H162125   0.599   6.705   3.346 -0.1316 -0.3845 -1.1226
13570TIP3    H262126   0.597   6.831   3.262  0.7125  0.9082  0.7420
13571TIP3   OH262127   0.814   4.891  12.833  0.4666  0.5480 -0.6138
13571TIP3    H162128   0.859   4.974  12.816  0.6922  0.8631  1.3322
13571TIP3    H262129   0.779   4.900  12.922  0.3932 -1.3926 -0.4035
13572TIP3   OH262130   4.647   5.259   0.859  0.1898  0.2120 -0.5658
13572TIP3    H162131   4.668   5.324   0.926  0.8319 -2.2150  1.7403
13572TIP3    H262132   4.727   5.251   0.807 -0.3750  2.2448 -1.8797
13573TIP3   OH262133   0.883   1.358   1.594  0.2396  0.1094  0.0318
13573TIP3    H162134   0.800   1.391   1.557  0.2598 -0.4639 -0.5477
13573TIP3    H262135   0.898   1.413   1.670 -0.9526 -0.1096  0.4580
13574TIP3   OH262136   4.277   5.494   5.696 -0.5760  0.5304 -0.5092
13574TIP3    H162137   4.344   5.483   5.628 -0.3894  0.2093 -0.2757
13574TIP3    H262138   4.298   5.578   5.736 -0.3216  0.4402 -0.4489
13575TIP3   OH262139   5.328   4.829   0.230 -0.6219 -0.4368  0.2274
13575TIP3    H162140   5.297   4.747   0.267 -2.5510  0.1789  0.0746
13575TIP3    H262141   5.396   4.803   0.168 -1.5595 -1.9795 -0.2217
13576TIP3   OH262142   5.066   1.838   1.667  1.0222 -0.1120  0.2055
13576TIP3    H162143   5.144   1.785   1.651 -0.1853 -2.4550  1.4972
13576TIP3    H262144   5.086   1.885   1.748  1.7502  0.7055 -0.4354
13577TIP3   OH262145   2.027   2.791  14.616  0.1422  0.6317 -0.1954
13577TIP3    H162146   2.087   2.727  14.576 -0.9532 -0.0458 -0.8160
13577TIP3    H262147   2.023   2.766  14.708  0.8784  0.7371 -0.1313
13578TIP3   OH262148   2.561   6.943  14.327  0.1967 -0.7230  0.4334
13578TIP3    H162149   2.619   6.948  14.250  0.8975 -1.9365  0.8566
13578TIP3    H262150   2.529   6.853  14.327  0.6037 -0.8925  1.8357
13579TIP3   OH262151   6.788   5.646   2.084  0.4978  0.0400 -0.0336
13579TIP3    H162152   6.845   5.612   2.152  0.8924 -2.5839 -1.5278
13579TIP3    H262153   6.837   5.634   2.003  0.1608  3.3019 -0.8555
13580TIP3   OH262154   2.596   2.080   4.722  0.1110 -0.7397  0.0405
13580TIP3    H162155   2.608   2.111   4.812  0.3559 -0.3638 -0.1210
13580TIP3    H262156   2.501   2.069   4.713 -0.0153  0.3160 -0.0124
13581TIP3   OH262157   4.788   3.018   5.430  0.1252 -0.2123  0.2928
13581TIP3    H162158   4.724   2.960   5.471  0.0695 -1.0005 -0.8489
13581TIP3    H262159   4.789   2.991   5.338  0.3824  1.3525 -0.1983
13582TIP3   OH262160   5.495   4.978  12.940  0.0557  0.7149 -0.4552
13582TIP3    H162161   5.538   5.063  12.951 -0.4134  0.8937  0.0364
13582TIP3    H262162   5.556   4.915  12.979  0.5239  0.7876 -1.0557
13583TIP3   OH262163   4.597   5.922   4.359 -0.2077  0.0674  0.0744
13583TIP3    H162164   4.624   5.912   4.268  2.2444 -1.0326  0.8457
13583TIP3    H262165   4.568   6.013   4.365 -0.0751  0.2709 -1.7045
13584TIP3   OH262166   4.922   5.683   5.417 -0.6670 -0.6447 -0.1132
13584TIP3    H162167   4.871   5.751   5.461  0.7957  0.1384  0.4478
13584TIP3    H262168   5.006   5.683   5.463 -0.3707 -2.3227 -0.6013
13585TIP3   OH262169   3.356   0.205   5.442  0.1134 -0.0901 -0.2870
13585TIP3    H162170   3.420   0.233   5.377 -0.8281  1.0662 -0.7620
13585TIP3    H262171   3.271   0.216   5.398 -0.4984  0.0110  0.8820
13586TIP3   OH262172   5.310   3.755   0.999  0.0802 -0.7557  0.4541
13586TIP3    H162173   5.387   3.798   0.963 -0.7601 -1.3895 -2.3279
13586TIP3    H262174   5.310   3.668   0.959 -2.1095 -0.7332  0.2841
13587TIP3   OH262175   7.150   2.935  14.500  0.9004  0.0970  0.4382
13587TIP3    H162176   7.164   2.871  14.431  0.9907  0.3175  0.2497
13587TIP3    H262177   7.076   2.901  14.550  1.1475 -0.3098  0.5286
13588TIP3   OH262178   4.539   3.925  12.786 -0.0161  0.1519 -0.3645
13588TIP3    H162179   4.480   3.915  12.860 -1.1915 -1.0767 -1.4066
13588TIP3    H262180   4.555   3.836  12.756 -0.6823  0.6734 -2.4128
13589TIP3   OH262181   6.802   4.107   0.972  0.0175 -0.2851 -0.4495
13589TIP3    H162182   6.768   4.127   0.885  0.9799 -0.2192 -0.8172
13589TIP3    H262183   6.761   4.024   0.996  0.7470 -0.9708 -1.5211
13590TIP3   OH262184   1.392   4.298  10.439 -0.0105  0.3230  0.0116
13590TIP3    H162185   1.486   4.307  10.454 -0.0606  0.7797  0.0643
13590TIP3    H262186   1.380   4.207  10.412  0.5812  0.5507 -1.0546
13591TIP3   OH262187   6.116   4.250   1.753  1.1599 -0.3151 -0.6058
13591TIP3    H162188   6.158   4.244   1.667 -1.9012 -0.1273 -2.2715
13591TIP3    H262189   6.077   4.163   1.766 -0.4943  0.3749 -0.6546
13592TIP3   OH262190   1.386   3.771   3.349 -0.4896 -0.5594  0.0112
13592TIP3    H162191   1.334   3.695   3.376 -1.8317  0.0305 -0.7706
13592TIP3    H262192   1.437   3.740   3.275 -1.9497 -0.4367 -1.0988
13593TIP3   OH262193   2.238   6.732  11.866  0.0645 -0.1526  0.1052
13593TIP3    H162194   2.282   6.678  11.802  0.8021 -0.9242  1.2256
13593TIP3    H262195   2.230   6.818  11.824  1.9446 -0.1954 -0.4213
13594TIP3   OH262196   5.293   6.210  12.905  0.0902  0.0277 -0.5748
13594TIP3    H162197   5.252   6.136  12.861 -0.0621 -0.1083 -0.1981
13594TIP3    H262198   5.383   6.211  12.870 -0.3063  0.5051 -1.6170
13595TIP3   OH262199   0.549   3.321  15.469 -0.0073 -0.5680 -0.0433
13595TIP3    H162200   0.511   3.318  15.381 -1.1566 -0.9192  0.4572
13595TIP3    H262201   0.492   3.380  15.518  1.8815  1.4752 -0.0775
13596TIP3   OH262202   4.086   3.716  15.146 -0.3089 -0.6112 -0.1705
13596TIP3    H162203   4.030   3.713  15.069 -2.1311  0.7830  1.0209
13596TIP3    H262204   4.173   3.736  15.111 -1.1515  0.3551 -1.8478
13597TIP3   OH262205   6.527   1.874   1.267  0.6315  0.0879  0.6407
13597TIP3    H162206   6.530   1.964   1.233  0.6220  0.0727  0.5998
13597TIP3    H262207   6.554   1.882   1.358 -1.8500  0.5232  1.4297
13598TIP3   OH262208   3.006   1.863   5.310 -0.2807 -0.4515  0.2343
13598TIP3    H162209   2.992   1.830   5.398 -1.2076  1.4536  0.8601
13598TIP3    H262210   2.931   1.920   5.294  0.4099  0.0578 -1.3830
13599TIP3   OH262211   5.732   1.154  13.188 -0.7496  0.8715 -0.4459
13599TIP3    H162212   5.771   1.183  13.106  0.5264 -2.0148 -0.9737
13599TIP3    H262213   5.807   1.141  13.247 -1.3663  0.0420  0.1820
13600TIP3   OH262214   4.716   1.822   3.380  0.4994 -0.0085  0.2642
13600TIP3    H162215   4.665   1.903   3.375 -0.4996 -0.5043  1.8618
13600TIP3    H262216   4.651   1.753   3.393  1.4593 -0.8277  0.8500
13601TIP3   OH262217   3.506   1.473   2.897  0.0968 -0.1625  0.0001
13601TIP3    H162218   3.450   1.536   2.852  0.4004  0.1328  0.0386
13601TIP3    H262219   3.535   1.519   2.976 -1.0425 -0.9266  0.8962
13602TIP3   OH262220   4.684   6.654   9.590  0.1465  0.6451  0.3580
13602TIP3    H162221   4.594   6.653   9.558  0.7180  2.9716 -1.5522
13602TIP3    H262222   4.737   6.629   9.515  1.2524  1.7466  0.7425
13603TIP3   OH262223   0.000   0.669  13.572 -0.4601 -0.2895 -0.2995
13603TIP3    H162224   0.000   0.741  13.508  1.9002  0.0885  0.0256
13603TIP3    H262225  -0.074   0.688  13.630  2.2883  4.3901  2.3432
13604TIP3   OH262226   4.753   2.998  10.132  0.8468  0.1510  0.3608
13604TIP3    H162227   4.809   2.921  10.133 -1.5029 -1.6536  0.7153
13604TIP3    H262228   4.691   2.984  10.203 -1.3850  0.9578 -1.2949
13605TIP3   OH262229   4.765   4.364   1.391  0.3357  0.5696  0.5432
13605TIP3    H162230   4.823   4.296   1.423  0.1755  0.3830  0.4356
13605TIP3    H262231   4.732   4.407   1.470  1.8679  1.7414  0.5935
13606TIP3   OH262232   5.870   6.637   2.020 -0.2334 -0.4238  0.6561
13606TIP3    H162233   5.792   6.691   2.017  0.7719  1.0455  0.0773
13606TIP3    H262234   5.841   6.551   1.989 -1.6989 -0.0297  0.8773
13607TIP3   OH262235   4.465   3.979   4.641 -0.2641  0.5425 -0.1302
13607TIP3    H162236   4.484   3.914   4.708 -1.1339 -0.3920 -0.7503
13607TIP3    H262237   4.546   3.988   4.591 -0.2766 -0.4284 -0.3287
13608TIP3   OH262238   7.051   1.173   4.992  0.0627 -0.1407 -0.0136
13608TIP3    H162239   7.040   1.268   4.984  2.2119  0.1612 -0.1764
13608TIP3    H262240   7.085   1.146   4.906  3.5891 -0.2871  1.2747
13609TIP3   OH262241   2.764   4.304   2.366 -0.3904 -0.3706  1.1847
13609TIP3    H162242   2.751   4.246   2.441 -1.1208  1.9308  2.9737
13609TIP3    H262243   2.839   4.359   2.391  0.0704 -0.2807 -0.2792
13610TIP3   OH262244   4.745   3.431   2.971  0.2636  0.0985 -0.0584
13610TIP3    H162245   4.726   3.525   2.967 -0.0662  0.0789  0.8660
13610TIP3    H262246   4.840   3.426   2.977  0.2294  0.4332  1.0196
13611TIP3   OH262247   7.075   2.567   2.629  0.5150  0.2069  0.0408
13611TIP3    H162248   7.089   2.475   2.653 -0.3941  0.1973  0.5954
13611TIP3    H262249   7.059   2.565   2.535  0.1634 -0.2560  0.1051
13612TIP3   OH262250   1.988   4.827  13.920 -0.2318 -0.4200 -0.4487
13612TIP3    H162251   2.004   4.878  13.841  2.6719 -0.7223 -0.1515
13612TIP3    H262252   1.895   4.804  13.915 -1.0743  2.7186 -1.8316
13613TIP3   OH262253   2.859   4.415  13.565 -0.9994  0.0849  0.0934
13613TIP3    H162254   2.811   4.335  13.588 -1.6878  0.3887 -0.2744
13613TIP3    H262255   2.830   4.480  13.629 -1.7500  0.5058 -0.6505
13614TIP3   OH262256   5.003   4.069   4.283  0.9534 -0.1846  0.0283
13614TIP3    H162257   4.929   4.057   4.223  1.0005  0.6961 -0.2321
13614TIP3    H262258   5.071   4.109   4.229  2.1749 -2.2723 -0.0806
13615TIP3   OH262259   2.247   1.760   1.867 -0.2292  0.5290  0.2035
13615TIP3    H162260   2.333   1.722   1.850 -0.4450 -0.6518  1.4933
13615TIP3    H262261   2.195   1.738   1.790  0.1565 -0.3232  0.1695
13616TIP3   OH262262   0.536   5.495   5.438 -0.4170 -0.4872 -0.7698
13616TIP3    H162263   0.513   5.441   5.363 -0.7443  0.8018 -1.6206
13616TIP3    H262264   0.631   5.503   5.434 -0.5790  1.2677 -2.2896
13617TIP3   OH262265   2.497   4.491   2.357 -0.3143 -0.1918 -0.8673
13617TIP3    H162266   2.444   4.511   2.280  0.7665  0.4428 -1.4654
13617TIP3    H262267   2.574   4.447   2.323  0.9670  1.5467 -0.3773
13618TIP3   OH262268   4.466   4.955   2.489 -0.1925 -0.2117  0.3514
13618TIP3    H162269   4.494   4.996   2.571 -1.4283  2.2015 -0.3610
13618TIP3    H262270   4.402   5.015   2.453 -0.8619 -2.0190 -1.6310
13619TIP3   OH262271   3.923   5.999   4.246 -0.8086 -0.1636  0.0529
13619TIP3    H162272   4.001   6.002   4.301  0.6149 -2.6622 -1.6229
13619TIP3    H262273   3.862   5.943   4.294  0.2673 -1.9904 -0.6121
13620TIP3   OH262274   6.315   4.101   0.005  0.2745 -0.3270 -0.0586
13620TIP3    H162275   6.345   4.010  -0.003  1.3132 -0.0710  0.6541
13620TIP3    H262276   6.318   4.134  -0.085  0.4320 -0.8313 -0.2467
13621TIP3   OH262277   0.420   1.262   1.002  0.5071 -0.2304  0.2222
13621TIP3    H162278   0.454   1.229   0.919  1.1916 -2.1905  1.2072
13621TIP3    H262279   0.332   1.226   1.008 -0.5936  2.0861 -0.7904
13622TIP3   OH262280   1.004   0.476   1.092 -0.4280  0.4498 -0.0284
13622TIP3    H162281   1.034   0.392   1.127  0.5414  0.7158 -0.1827
13622TIP3    H262282   0.926   0.454   1.042 -0.5597 -0.2639  0.4707
13623TIP3   OH262283   0.746   6.352  13.784  0.4632 -0.4312  0.4074
13623TIP3    H162284   0.694   6.305  13.849  2.3841 -3.1491  0.1137
13623TIP3    H262285   0.790   6.421  13.833 -2.6688  1.5061  0.7915
13624TIP3   OH262286   4.148   3.684   4.193  0.4934  0.7861 -0.1382
13624TIP3    H162287   4.061   3.680   4.232  0.8835  0.1473  0.6989
13624TIP3    H262288   4.185   3.767   4.224  0.1440  1.1098 -0.5852
13625TIP3   OH262289   3.423   3.490   2.064 -0.3064  0.3564  0.6120
13625TIP3    H162290   3.402   3.521   2.152  0.1692 -0.5050  1.0402
13625TIP3    H262291   3.502   3.539   2.040 -1.3752  1.8464 -0.0470
13626TIP3   OH262292   4.577   6.556   4.396 -0.1440 -0.2649 -0.2339
13626TIP3    H162293   4.646   6.494   4.375  0.6508  0.3943  0.3637
13626TIP3    H262294   4.516   6.551   4.322  0.8036 -0.4875 -1.0109
13627TIP3   OH262295   6.990   3.615   5.067  0.2814  0.2358  0.0608
13627TIP3    H162296   6.960   3.705   5.084 -0.2560  0.0838 -0.0676
13627TIP3    H262297   6.915   3.561   5.088  0.7124 -0.2157  0.4509
13628TIP3   OH262298   4.728   2.715  13.383 -0.6026 -0.2071  0.3618
13628TIP3    H162299   4.654   2.672  13.426  0.1249  0.1976  2.0803
13628TIP3    H262300   4.738   2.668  13.300 -0.7102 -2.4348  1.5471
13629TIP3   OH262301   2.057   3.792   4.820  0.4149  0.4343  0.8776
13629TIP3    H162302   1.986   3.821   4.877 -0.5479 -0.2594  0.0782
13629TIP3    H262303   2.015   3.729   4.761  1.1329  1.7706 -1.1771
13630TIP3   OH262304   6.240   6.816  11.666 -0.1036 -0.5062 -0.4447
13630TIP3    H162305   6.175   6.781  11.728  0.0551  1.7412  1.0813
13630TIP3    H262306   6.282   6.738  11.630 -0.4238 -1.9631  2.0559
13631TIP3   OH262307   0.739   0.997  14.561 -0.0013 -0.0335  0.0212
13631TIP3    H162308   0.827   0.961  14.548  0.4571  0.2066  2.1607
13631TIP3    H262309   0.706   1.011  14.472  2.3813  0.4893 -0.8607
13632TIP3   OH262310   7.156   6.952  10.385 -0.0421  0.3523  0.2071
13632TIP3    H162311   7.178   6.860  10.375 -0.4385  0.0915  1.5239
13632TIP3    H262312   7.133   6.981  10.296 -1.6196 -1.2623  0.0377
13633TIP3   OH262313   0.325   2.492   5.727  0.1045  0.3548 -0.6684
13633TIP3    H162314   0.377   2.523   5.801 -1.2007 -0.3553  0.6128
13633TIP3    H262315   0.333   2.397   5.730  0.5514  0.3477 -1.8494
13634TIP3   OH262316   3.138   5.684  11.708 -0.0377  0.2509  0.2193
13634TIP3    H162317   3.149   5.720  11.796 -2.3771 -0.2302  0.7676
13634TIP3    H262318   3.134   5.589  11.721 -1.3265  0.2215 -0.2441
13635TIP3   OH262319   5.324   4.778   1.692 -0.0797 -0.5139  0.2801
13635TIP3    H162320   5.382   4.705   1.714 -0.3244 -0.5570  0.7953
13635TIP3    H262321   5.314   4.772   1.597  2.7410  0.9860 -0.2043
13636TIP3   OH262322   2.104   2.253   4.782  0.1562  0.2867 -0.4212
13636TIP3    H162323   2.111   2.328   4.841  0.4048 -0.7949  0.9786
13636TIP3    H262324   2.042   2.194   4.826 -0.7337  0.0399 -1.9271
13637TIP3   OH262325   2.823   0.154   3.221 -0.1805  0.0258  0.1974
13637TIP3    H162326   2.847   0.072   3.178  0.2874  0.6103 -0.6878
13637TIP3    H262327   2.821   0.133   3.314  1.0059 -0.7283  0.0641
13638TIP3   OH262328   2.740   0.589   5.464  0.3409  0.1857  0.5534
13638TIP3    H162329   2.792   0.552   5.536 -0.6817  0.6898  1.5969
13638TIP3    H262330   2.724   0.679   5.491  1.1336  0.8258 -1.0175
13639TIP3   OH262331   3.688   0.588   4.633  0.0071 -0.4065 -0.7775
13639TIP3    H162332   3.620   0.522   4.645  0.3381 -1.1093 -2.4057
13639TIP3    H262333   3.668   0.657   4.697 -1.0473 -1.5190  0.1183
13640TIP3   OH262334   0.963   7.005   4.153  0.2557 -0.2818 -0.0824
13640TIP3    H162335   0.958   6.948   4.077  1.1573  1.0558 -1.2042
13640TIP3    H262336   0.978   6.946   4.227 -0.1619 -1.5751 -1.0086
13641TIP3   OH262337   6.530   4.218   5.590 -0.0470  0.0191 -0.2753
13641TIP3    H162338   6.449   4.267   5.605  1.6038  3.1244 -0.7393
13641TIP3    H262339   6.536   4.210   5.495 -0.1085 -0.8209 -0.2171
13642TIP3   OH262340   6.659   6.444   4.946 -0.2428  0.2853 -0.4197
13642TIP3    H162341   6.619   6.358   4.956  0.6269 -0.2378 -1.2366
13642TIP3    H262342   6.656   6.482   5.034  1.3907 -1.5133  0.4994
13643TIP3   OH262343   3.542   5.198  15.103 -0.4445 -0.4519 -0.1705
13643TIP3    H162344   3.632   5.199  15.069  0.4934 -0.3109  2.1349
13643TIP3    H262345   3.523   5.105  15.115 -1.4999 -0.6463 -2.6385
13644TIP3   OH262346   1.764   6.165   3.191  0.4955  0.3933  0.2687
13644TIP3    H162347   1.708   6.241   3.178  0.4121  0.2993  0.0734
13644TIP3    H262348   1.851   6.202   3.210  0.5553  0.5337 -0.2774
13645TIP3   OH262349   1.719   4.664   0.486 -0.1944 -0.1210 -0.5191
13645TIP3    H162350   1.779   4.724   0.530  0.8302  0.4474 -2.5750
13645TIP3    H262351   1.633   4.684   0.524  0.3616  1.5749 -0.0533
13646TIP3   OH262352   0.983   5.415  14.162 -0.2975  0.6028 -0.5441
13646TIP3    H162353   1.051   5.377  14.106 -1.7953 -0.6115 -1.6251
13646TIP3    H262354   1.026   5.488  14.205  2.3737 -1.4342  0.5550
13647TIP3   OH262355   2.722   4.638  14.041  0.1167 -0.4684 -0.0534
13647TIP3    H162356   2.790   4.605  14.100 -0.3227 -1.5004 -0.0987
13647TIP3    H262357   2.640   4.615  14.084 -0.2245  1.0252  0.1401
13648TIP3   OH262358   1.657   3.450   3.337 -0.5242 -0.4102 -0.1782
13648TIP3    H162359   1.656   3.379   3.273 -2.4847  0.4229 -1.1338
13648TIP3    H262360   1.596   3.421   3.405 -0.7840  0.0473 -0.2156
13649TIP3   OH262361   1.833   1.446   5.917  0.3147 -0.1566  0.7642
13649TIP3    H162362   1.753   1.431   5.967  1.0256 -1.6494  1.5036
13649TIP3    H262363   1.877   1.517   5.964  0.4695 -0.8352  1.6749
13650TIP3   OH262364   2.618   3.019   5.887  0.2204  0.3979  0.2193
13650TIP3    H162365   2.570   2.944   5.851  1.2272 -0.4930  0.6558
13650TIP3    H262366   2.551   3.075   5.925 -0.5582 -0.2893 -0.1168
13651TIP3   OH262367   2.901   0.888   5.061 -0.3814  0.1427 -0.4458
13651TIP3    H162368   2.913   0.822   4.993 -0.5904  0.7338 -1.0596
13651TIP3    H262369   2.990   0.916   5.083 -0.2222 -0.9729  0.4696
13652TIP3   OH262370   6.357   2.289  11.506  0.3648  0.3070 -0.2849
13652TIP3    H162371   6.336   2.302  11.413  0.0131  1.7229 -0.0348
13652TIP3    H262372   6.388   2.199  11.511  3.0483  0.9725 -2.2623
13653TIP3   OH262373   4.622   4.388   2.627 -0.2699  0.0374 -0.4397
13653TIP3    H162374   4.579   4.462   2.669 -1.2763 -0.1174 -1.1749
13653TIP3    H262375   4.706   4.423   2.598 -0.8349  0.9730 -1.0010
13654TIP3   OH262376   4.354   7.115   3.242  0.3237  0.0127 -1.1349
13654TIP3    H162377   4.400   7.187   3.286  0.7491 -0.0958 -1.3968
13654TIP3    H262378   4.413   7.040   3.251  0.2835 -0.0787 -1.6488
13655TIP3   OH262379   4.375   5.275  13.884 -0.2572  0.6271  0.2435
13655TIP3    H162380   4.329   5.215  13.943 -0.9599  0.0211 -0.8822
13655TIP3    H262381   4.455   5.228  13.860 -0.0278  0.8251  0.6088
13656TIP3   OH262382   1.045   6.745   4.016 -0.2198 -0.6368  0.3823
13656TIP3    H162383   1.100   6.742   4.095 -0.5957 -1.2402  0.6352
13656TIP3    H262384   1.092   6.693   3.952 -0.8574 -1.8562  0.8586
13657TIP3   OH262385   3.993   3.205   1.959 -0.1651  0.5519  0.3010
13657TIP3    H162386   4.040   3.143   2.014  0.8366  0.0516 -1.0813
13657TIP3    H262387   4.046   3.285   1.961 -0.5248  0.7841  0.6612
13658TIP3   OH262388   0.193   3.892   2.691 -0.3875  0.7106  0.0258
13658TIP3    H162389   0.205   3.980   2.655  1.4476  0.8180  0.8357
13658TIP3    H262390   0.167   3.907   2.782  1.5958  0.4620  0.6753
13659TIP3   OH262391   5.727   4.221   0.889  0.2560 -0.4850 -0.4142
13659TIP3    H162392   5.765   4.165   0.957 -2.2701 -0.4103  1.1832
13659TIP3    H262393   5.650   4.173   0.860 -0.6816  1.1190 -0.6485
13660TIP3   OH262394   6.143   3.997   5.618 -0.6559 -0.0751  0.9076
13660TIP3    H162395   6.227   3.978   5.660 -1.3035 -0.7374  1.9695
13660TIP3    H262396   6.082   4.009   5.691 -1.4320  0.6721  0.1587
13661TIP3   OH262397   6.076   3.327   2.979  0.2149 -0.3862  0.2203
13661TIP3    H162398   6.137   3.273   2.929 -0.2473 -2.3847  1.6844
13661TIP3    H262399   6.076   3.288   3.067 -1.5414  0.8787  0.8372
13662TIP3   OH262400   1.139   0.642   0.436 -0.0581 -0.0786 -0.7011
13662TIP3    H162401   1.139   0.555   0.397  1.3652 -0.6055  0.3978
13662TIP3    H262402   1.046   0.664   0.445 -0.5538 -2.4505  0.9947
13663TIP3   OH262403   6.430   4.716   2.065  0.4000  0.2089  0.4408
13663TIP3    H162404   6.525   4.723   2.077  0.0990  1.1841  2.9858
13663TIP3    H262405   6.399   4.806   2.070 -0.7455 -0.1847  0.6025
13664TIP3   OH262406   5.824   0.572   2.573  0.0828 -0.2961 -0.8799
13664TIP3    H162407   5.755   0.601   2.633  2.1019 -1.2289  2.0999
13664TIP3    H262408   5.825   0.477   2.583  2.4867 -0.2344  0.0431
13665TIP3   OH262409   1.599   0.101   1.093  0.0151 -0.6047  0.8376
13665TIP3    H162410   1.514   0.124   1.056 -0.3729 -2.1110  0.7007
13665TIP3    H262411   1.584   0.096   1.187  0.6600  1.8336  1.1318
13666TIP3   OH262412   5.376   0.880  12.956  0.3315  0.1158  0.0023
13666TIP3    H162413   5.334   0.966  12.960  0.3168  0.0888  0.5140
13666TIP3    H262414   5.308   0.819  12.986  0.3199 -0.0843 -0.4247
13667TIP3   OH262415   4.077   2.323   6.129 -0.0654  1.0832  0.2793
13667TIP3    H162416   4.038   2.395   6.178  1.0915  3.0148 -1.4514
13667TIP3    H262417   4.091   2.359   6.041  0.1343 -1.4336 -0.8015
13668TIP3   OH262418   0.857   3.532   5.393  0.0186  0.0709 -0.0443
13668TIP3    H162419   0.887   3.622   5.396  1.3432 -0.3329 -0.5503
13668TIP3    H262420   0.925   3.485   5.344 -0.8663 -1.1129 -0.1979
13669TIP3   OH262421   3.811   4.975   0.553  0.2835  0.3081  0.3222
13669TIP3    H162422   3.901   5.006   0.564  0.3418  0.6269 -0.8483
13669TIP3    H262423   3.764   5.050   0.516  0.3799 -0.8198 -2.3540
13670TIP3   OH262424   4.751   1.576   3.834 -0.0016 -0.5016 -0.1516
13670TIP3    H162425   4.823   1.530   3.875  0.4155  1.2661  1.2144
13670TIP3    H262426   4.792   1.629   3.765 -0.2061 -0.6266 -0.3726
13671TIP3   OH262427   3.568   5.498  15.150 -0.3182  0.2887 -0.5606
13671TIP3    H162428   3.615   5.462  15.076 -0.5760 -2.3732  0.4749
13671TIP3    H262429   3.631   5.494  15.223 -0.8307  0.5636 -0.0938
13672TIP3   OH262430   0.462   2.908   1.628  0.1348 -0.0553  0.3294
13672TIP3    H162431   0.369   2.896   1.612  0.1631  1.2052 -1.1402
13672TIP3    H262432   0.503   2.831   1.590 -0.4098 -2.4285  4.0731
13673TIP3   OH262433   5.055   1.185   2.967  0.5394  0.5761  0.1696
13673TIP3    H162434   5.133   1.239   2.971  0.4499  0.6646  0.8657
13673TIP3    H262435   4.987   1.237   3.009  0.0861  0.5233 -0.4794
13674TIP3   OH262436   2.852   2.492   0.424 -0.1828 -0.2889  0.1355
13674TIP3    H162437   2.777   2.544   0.397 -0.0840 -0.1083  0.2077
13674TIP3    H262438   2.837   2.406   0.384 -0.4752 -0.2827  0.2270
13675TIP3   OH262439   2.249   3.567  13.714  0.3571  0.6435 -0.1941
13675TIP3    H162440   2.264   3.625  13.639  2.2772 -0.5549 -0.7968
13675TIP3    H262441   2.242   3.480  13.676  0.8856  0.0665  0.9789
13676TIP3   OH262442   3.390   7.095  14.041 -0.0309 -0.7192  0.0802
13676TIP3    H162443   3.357   7.179  14.011 -0.1026 -0.3073  1.2859
13676TIP3    H262444   3.444   7.115  14.117 -0.8671 -1.8342  1.0191
13677TIP3   OH262445   3.253   2.906   0.438  0.0680  0.1815 -0.3072
13677TIP3    H162446   3.190   2.945   0.378 -0.4979 -1.1148 -0.5836
13677TIP3    H262447   3.329   2.886   0.384  0.0640  0.2015 -0.3204
13678TIP3   OH262448   5.073   4.778  13.362  0.2379  0.0581 -0.4563
13678TIP3    H162449   5.026   4.784  13.446  1.6898 -1.4559  0.5326
13678TIP3    H262450   5.094   4.686  13.353 -0.0725  0.1530 -2.6609
13679TIP3   OH262451   6.138   4.182   4.625  0.0349 -0.2878 -0.7387
13679TIP3    H162452   6.202   4.211   4.560  1.2031 -1.5179 -0.1900
13679TIP3    H262453   6.146   4.245   4.696  0.0709  0.0202 -1.0164
13680TIP3   OH262454   4.154   3.882  11.018  0.0167  0.1045  0.1461
13680TIP3    H162455   4.132   3.893  10.925  2.7396 -2.1865 -0.9150
13680TIP3    H262456   4.186   3.967  11.045  2.2330  0.0859 -2.0468
13681TIP3   OH262457   2.551   5.268   1.187  0.1318  0.0334  0.3483
13681TIP3    H162458   2.627   5.327   1.187  0.1172  0.1915 -2.6732
13681TIP3    H262459   2.477   5.324   1.209  0.3172  0.9250 -1.1225
13682TIP3   OH262460   3.947   4.592   3.496  0.5254  0.4364 -0.4157
13682TIP3    H162461   3.975   4.658   3.432  1.2199 -0.6933 -1.3183
13682TIP3    H262462   4.026   4.541   3.513 -0.4435 -1.4487 -1.3122
13683TIP3   OH262463   3.585   4.296   1.599  0.2838  0.0911 -0.7373
13683TIP3    H162464   3.569   4.303   1.505 -1.7381 -2.2191 -0.6628
13683TIP3    H262465   3.664   4.244   1.607 -1.0666 -2.1376 -1.2338
13684TIP3   OH262466   6.179   5.585  11.053 -0.0840  0.0279  0.0792
13684TIP3    H162467   6.250   5.619  11.106 -0.7796  2.6270 -0.5051
13684TIP3    H262468   6.196   5.619  10.965 -2.1531  0.9500 -0.0184
13685TIP3   OH262469   3.529   1.433   4.318  0.1256  0.4456 -0.0302
13685TIP3    H162470   3.618   1.432   4.282 -0.2811  2.1011 -1.2084
13685TIP3    H262471   3.512   1.525   4.336 -1.6636  0.2679 -0.6527
13686TIP3   OH262472   2.509   2.495   5.258 -0.0863  0.0850 -0.7088
13686TIP3    H162473   2.457   2.496   5.338  0.2855  0.7522 -0.4653
13686TIP3    H262474   2.576   2.562   5.273 -0.7666  1.1292 -2.0647
13687TIP3   OH262475   0.001   0.254   5.268  0.0651 -0.9234 -0.6441
13687TIP3    H162476  -0.075   0.198   5.284  1.8609 -3.4248 -0.1549
13687TIP3    H262477   0.039   0.268   5.355  0.0739  0.4547 -0.8595
13688TIP3   OH262478   0.351   6.315   2.935  0.3057 -0.0038  0.3764
13688TIP3    H162479   0.257   6.333   2.943 -0.1168  1.2207 -4.2232
13688TIP3    H262480   0.355   6.223   2.908  0.4055 -0.0678  0.6153
13689TIP3   OH262481   6.860   5.179   3.571  0.3817 -0.2272 -0.1597
13689TIP3    H162482   6.769   5.151   3.574  0.1322  0.4974 -0.7397
13689TIP3    H262483   6.908   5.104   3.538  0.0705 -0.7808  0.6137
13690TIP3   OH262484   4.278   1.139  15.032  0.5598  0.0341  0.3404
13690TIP3    H162485   4.241   1.054  15.055  0.2163 -0.3209 -1.3893
13690TIP3    H262486   4.223   1.171  14.960  0.9520  1.5189  0.6708
13691TIP3   OH262487   0.850   4.738  15.418  0.0741  0.2133 -0.2486
13691TIP3    H162488   0.921   4.739  15.354 -0.4478 -0.4694 -0.8691
13691TIP3    H262489   0.796   4.814  15.396 -0.2391 -0.1563 -0.8017
13692TIP3   OH262490   6.385   5.577   1.550  0.1928 -0.3186 -0.3141
13692TIP3    H162491   6.332   5.552   1.626  0.8413  0.2434  0.3388
13692TIP3    H262492   6.469   5.534   1.564  1.0921  1.6084  0.4773
13693TIP3   OH262493   2.156   6.843   0.964  0.1176 -0.5724  0.2327
13693TIP3    H162494   2.197   6.760   0.986  0.8788  0.0028  1.0791
13693TIP3    H262495   2.106   6.866   1.043 -0.6547 -0.5554 -0.2496
13694TIP3   OH262496   3.071   3.531   1.846 -0.4984  0.1748  0.2872
13694TIP3    H162497   3.058   3.597   1.914  0.1795 -0.5912  1.2057
13694TIP3    H262498   3.008   3.462   1.867 -0.6064  0.1414 -0.1416
13695TIP3   OH262499   4.684   4.144   5.412 -0.1611  0.5898  0.2366
13695TIP3    H162500   4.779   4.130   5.403 -0.2637  0.3591 -0.5035
13695TIP3    H262501   4.676   4.198   5.491  0.5141 -0.2013  0.8721
13696TIP3   OH262502   6.849   3.437  13.228 -0.7182  0.1830 -0.0079
13696TIP3    H162503   6.835   3.501  13.158 -1.4070  0.6390  0.5370
13696TIP3    H262504   6.925   3.386  13.198 -0.1114  1.2900 -0.4309
13697TIP3   OH262505   0.998   2.304  14.885  0.0413  0.1162  0.0211
13697TIP3    H162506   0.965   2.383  14.842 -0.8493 -0.0026  0.4609
13697TIP3    H262507   1.078   2.281  14.837  1.4121  2.3714  1.0745
13698TIP3   OH262508   1.084   3.987   3.524 -0.2612 -0.2496  0.0594
13698TIP3    H162509   1.005   4.031   3.555 -1.3392 -1.5681 -0.6926
13698TIP3    H262510   1.102   3.920   3.590 -0.7510 -1.0259 -0.5779
13699TIP3   OH262511   4.519   2.768  13.736 -0.7606 -0.2316 -0.0653
13699TIP3    H162512   4.469   2.731  13.663  0.7230 -1.6797 -0.4137
13699TIP3    H262513   4.610   2.750  13.714 -0.2260  0.1445  1.6927
13700TIP3   OH262514   6.368   1.115   4.592  0.4207 -0.6299 -0.0573
13700TIP3    H162515   6.445   1.079   4.635  0.9820  0.2910 -0.2657
13700TIP3    H262516   6.379   1.210   4.598 -0.8212 -0.4818  0.1282
13701TIP3   OH262517   0.968   3.337   1.019 -0.4958  0.0537 -0.7352
13701TIP3    H162518   0.936   3.352   1.107 -0.9449  1.7543 -1.1550
13701TIP3    H262519   0.922   3.258   0.989 -1.9584  0.6943 -0.2210
13702TIP3   OH262520   1.231   1.417   2.103 -0.4682 -0.0552 -0.2638
13702TIP3    H162521   1.178   1.352   2.057 -1.5858  0.6359  0.0180
13702TIP3    H262522   1.215   1.400   2.196 -0.1182  0.0999 -0.1730
13703TIP3   OH262523   0.341   1.889  11.073  0.2294 -0.3799 -0.6393
13703TIP3    H162524   0.255   1.859  11.103 -0.5055  1.8774 -0.2927
13703TIP3    H262525   0.328   1.982  11.054  3.4271  1.0871  3.0872
13704TIP3   OH262526   5.943   1.851  13.346 -0.0564 -0.7005 -0.1276
13704TIP3    H162527   6.025   1.881  13.386 -0.2654  0.5501 -0.5728
13704TIP3    H262528   5.967   1.830  13.256 -0.1669 -0.5937 -0.1823
13705TIP3   OH262529   1.918   3.296   5.641 -0.0790 -0.2782  0.2876
13705TIP3    H162530   1.952   3.226   5.697 -0.3122 -0.3231  0.3747
13705TIP3    H262531   1.888   3.250   5.562  1.5175 -0.0753 -0.4872
13706TIP3   OH262532   4.167   5.604   4.309 -0.0676 -0.1392 -0.2925
13706TIP3    H162533   4.195   5.658   4.236 -2.3931  1.5233 -0.0628
13706TIP3    H262534   4.102   5.545   4.272 -0.7380  0.2263  0.2822
13707TIP3   OH262535   0.589   5.939   3.360  0.3190  0.3466 -0.7869
13707TIP3    H162536   0.585   5.863   3.419 -0.5964  0.4661 -0.6797
13707TIP3    H262537   0.518   5.924   3.298  1.4954  0.0386 -2.1175
13708TIP3   OH262538   0.059   0.813  13.320  0.2790 -0.2425  0.2877
13708TIP3    H162539  -0.007   0.813  13.251 -0.3132 -2.9818  0.7551
13708TIP3    H262540   0.036   0.890  13.373 -1.2717  0.0388 -0.7029
13709TIP3   OH262541   3.760   4.997   4.661 -0.9295 -0.4348 -0.2462
13709TIP3    H162542   3.675   5.026   4.695 -2.2698 -0.1659 -3.5018
13709TIP3    H262543   3.739   4.924   4.604  0.4918  1.5657 -3.6320
13710TIP3   OH262544   6.477   1.607   0.186 -0.0377  0.1974 -0.3843
13710TIP3    H162545   6.535   1.542   0.145  0.0752  1.1877 -1.8816
13710TIP3    H262546   6.533   1.683   0.201 -0.6375  0.6964 -0.6194
13711TIP3   OH262547   2.243   4.846   1.466 -0.0735  0.2419 -0.7842
13711TIP3    H162548   2.152   4.850   1.437 -0.2054  0.1161 -0.3922
13711TIP3    H262549   2.276   4.763   1.432 -0.6726 -0.6352  0.6784
13712TIP3   OH262550   2.823   6.776  11.329  0.0711 -0.1086 -0.1180
13712TIP3    H162551   2.760   6.706  11.347  1.0146 -0.6002  1.4220
13712TIP3    H262552   2.785   6.823  11.254 -0.1398 -2.8260 -1.8779
13713TIP3   OH262553   1.009   0.619   2.520  0.0649  0.1998  0.2488
13713TIP3    H162554   0.948   0.569   2.466  0.3593  0.1228 -0.0182
13713TIP3    H262555   0.957   0.649   2.594 -0.1921 -0.2173  0.2373
13714TIP3   OH262556   3.887   2.692   5.461 -0.1167  0.1338 -0.0899
13714TIP3    H162557   3.938   2.757   5.509 -1.5300  1.2457 -0.0305
13714TIP3    H262558   3.906   2.609   5.506  0.5411  0.7476  0.7998
13715TIP3   OH262559   3.508   3.860  11.575  0.4733 -0.6568  0.3400
13715TIP3    H162560   3.500   3.949  11.610  3.1206 -1.0635  2.2721
13715TIP3    H262561   3.418   3.836  11.552 -0.5630  1.9104  1.2255
13716TIP3   OH262562   3.012   1.301   0.947 -0.0498  0.1157  0.4664
13716TIP3    H162563   3.040   1.319   1.037  1.9939 -1.0986  0.1261
13716TIP3    H262564   3.044   1.212   0.929 -1.9049 -0.3407 -0.9195
13717TIP3   OH262565   2.686   6.712   1.833  0.0860 -0.3554 -0.0173
13717TIP3    H162566   2.657   6.772   1.765 -1.4186 -1.5912 -0.5188
13717TIP3    H262567   2.605   6.676   1.870  0.9231 -2.4254 -0.0855
13718TIP3   OH262568   1.629   0.666   3.491  0.6322  0.3211 -0.3099
13718TIP3    H162569   1.618   0.628   3.404  2.0969  0.9499 -0.7841
13718TIP3    H262570   1.724   0.671   3.504  0.5917 -2.5062  2.5286
13719TIP3   OH262571   2.230   5.639   3.133 -0.3571  0.4857 -0.6218
13719TIP3    H162572   2.303   5.577   3.137 -0.3443  0.5308 -0.0387
13719TIP3    H262573   2.237   5.679   3.047  0.5246  0.7469 -0.4397
13720TIP3   OH262574   2.136   7.146   0.610 -0.2142 -0.5292 -0.3231
13720TIP3    H162575   2.176   7.070   0.566  0.8533  1.0513 -2.2415
13720TIP3    H262576   2.199   7.170   0.678 -0.9020 -1.7451  0.7941
13721TIP3   OH262577   1.135   2.670   4.112  0.9185 -0.0523 -0.4571
13721TIP3    H162578   1.113   2.709   4.027 -1.2920 -3.0425 -1.4087
13721TIP3    H262579   1.192   2.597   4.091  1.3445 -0.0973  0.7924
13722TIP3   OH262580   2.019   5.958   0.150 -0.3171 -0.6753 -0.0775
13722TIP3    H162581   1.966   5.981   0.226 -0.9491 -1.2204 -0.3432
13722TIP3    H262582   1.968   5.987   0.074 -0.1799 -1.0828 -0.3324
13723TIP3   OH262583   0.048   5.236  14.139  0.2075 -0.0636 -0.5243
13723TIP3    H162584   0.051   5.301  14.209 -0.9948  0.8490 -1.2711
13723TIP3    H262585  -0.025   5.178  14.163  0.7229 -0.6281 -0.2974
13724TIP3   OH262586   3.112   5.191   3.650  0.3787  0.1509  0.1570
13724TIP3    H162587   3.078   5.269   3.606  0.1964 -0.0989 -0.1489
13724TIP3    H262588   3.156   5.224   3.729  2.8440  0.8362 -1.4065
13725TIP3   OH262589   0.611   6.862   4.162  0.1227 -0.0578 -0.3599
13725TIP3    H162590   0.673   6.843   4.092  0.3710 -0.9164  0.0829
13725TIP3    H262591   0.558   6.783   4.171  0.7488 -0.3566  1.0795
13726TIP3   OH262592   5.549   6.190   2.325 -0.0180  0.0631  0.3955
13726TIP3    H162593   5.590   6.156   2.405  0.5834 -0.6109 -0.1818
13726TIP3    H262594   5.506   6.114   2.287  1.0786 -0.0098 -0.7550
13727TIP3   OH262595   1.853   4.467   4.829 -0.0719  0.1889 -0.4147
13727TIP3    H162596   1.921   4.448   4.893  1.2795 -0.6172 -2.0112
13727TIP3    H262597   1.779   4.412   4.854  0.1710  0.4048  0.8229
13728TIP3   OH262598   5.731   4.724   0.367 -0.3816  0.7579 -0.3007
13728TIP3    H162599   5.751   4.675   0.287 -0.0755  1.4120 -0.6281
13728TIP3    H262600   5.697   4.808   0.337 -0.6823  0.8461  0.2602
13729TIP3   OH262601   4.826   4.825  15.489 -0.0786  0.5220 -0.1877
13729TIP3    H162602   4.791   4.899  15.439 -0.6081  1.6582  1.7795
13729TIP3    H262603   4.907   4.858  15.527 -1.1981  0.7840  2.1660
13730TIP3   OH262604   4.196   3.260   2.470 -0.1899  0.3730  0.2219
13730TIP3    H162605   4.215   3.206   2.547  0.0177  1.2565  0.7970
13730TIP3    H262606   4.118   3.219   2.432  1.1031 -1.5473 -0.5233
13731TIP3   OH262607   0.625   1.864   3.813 -0.0214 -0.4113 -0.5626
13731TIP3    H162608   0.649   1.819   3.733  0.3465  0.9237 -1.2395
13731TIP3    H262609   0.706   1.909   3.840  0.4740 -2.4914  1.7337
13732TIP3   OH262610   3.343   6.850   4.375  0.0580 -0.4844 -0.0804
13732TIP3    H162611   3.294   6.812   4.447  0.7952  0.3406  0.8949
13732TIP3    H262612   3.292   6.927   4.349  0.3797 -0.1150  0.3609
13733TIP3   OH262613   0.962   1.815   1.787  0.2793  0.4807  0.1566
13733TIP3    H162614   1.057   1.812   1.801  0.2798 -0.5262  0.0150
13733TIP3    H262615   0.951   1.823   1.692  0.2182  2.3575  0.2780
13734TIP3   OH262616   6.885   5.142  13.873 -0.0317 -0.4239 -0.0982
13734TIP3    H162617   6.916   5.068  13.926 -0.2181 -1.0597 -0.8699
13734TIP3    H262618   6.796   5.157  13.905  0.4195  0.2601  0.8921
13735TIP3   OH262619   3.770   2.802   0.391 -0.3113 -0.4670 -0.4658
13735TIP3    H162620   3.738   2.757   0.469  0.5370 -0.1446  0.0817
13735TIP3    H262621   3.825   2.738   0.346  0.7927 -0.0545  0.2471
13736TIP3   OH262622   6.275   0.653   1.530 -0.3096 -0.0902  0.5582
13736TIP3    H162623   6.337   0.587   1.562 -0.6878 -0.8640 -0.2730
13736TIP3    H262624   6.314   0.687   1.450  0.0761  1.0165  1.1827
13737TIP3   OH262625   5.116   4.303   1.381  0.4810 -0.1103  0.2933
13737TIP3    H162626   5.186   4.300   1.447  1.4213 -1.4052 -0.7115
13737TIP3    H262627   5.114   4.394   1.353 -0.5463  0.6864  2.6945
13738TIP3   OH262628   4.064   4.568   2.248 -0.4335 -0.2111  0.0721
13738TIP3    H162629   3.980   4.613   2.259 -0.3401  0.1230 -0.5263
13738TIP3    H262630   4.121   4.607   2.315 -0.2453  0.8452 -0.6698
13739TIP3   OH262631   1.790   1.756  10.499 -0.1969  1.0128  0.7954
13739TIP3    H162632   1.696   1.740  10.494 -0.0009  0.0317  0.0565
13739TIP3    H262633   1.798   1.852  10.503 -1.1814  1.1546 -0.2340
13740TIP3   OH262634   2.433   4.730  13.263 -0.0880  0.2153  0.0893
13740TIP3    H162635   2.502   4.785  13.229  2.0357 -2.4997 -0.3672
13740TIP3    H262636   2.478   4.667  13.319 -2.2865 -1.2196  0.3724
13741TIP3   OH262637   5.616   0.517   3.617  0.9224  0.3732 -0.0360
13741TIP3    H162638   5.549   0.449   3.625  2.0578 -0.7882  0.0255
13741TIP3    H262639   5.597   0.579   3.687  0.9504 -0.8893  1.1225
13742TIP3   OH262640   4.117   2.076   4.234 -0.8121  0.3937  0.1979
13742TIP3    H162641   4.118   2.061   4.139  0.8469 -3.3398  0.6324
13742TIP3    H262642   4.197   2.126   4.251  0.0158 -0.7608 -0.2048
13743TIP3   OH262643   0.001   0.672   5.038 -0.0761  0.3153 -0.3113
13743TIP3    H162644  -0.017   0.605   5.105  2.1736  0.7218  0.8083
13743TIP3    H262645  -0.037   0.752   5.074  0.2542  0.3248  0.0320
13744TIP3   OH262646   5.622   3.319  10.269  0.2488  0.5109  0.2066
13744TIP3    H162647   5.617   3.387  10.336 -1.7347 -0.1555  0.8073
13744TIP3    H262648   5.705   3.274  10.287  1.0089  2.0035  0.5374
13745TIP3   OH262649   6.427   5.950   3.828 -0.1241 -0.0915 -0.3547
13745TIP3    H162650   6.450   6.024   3.884  0.2886  0.6313 -1.4456
13745TIP3    H262651   6.335   5.964   3.806  0.4956  1.2775 -2.2504
13746TIP3   OH262652   6.092   2.430  14.808 -0.0679  0.2067 -0.1832
13746TIP3    H162653   6.129   2.342  14.817  0.0719  0.3433  0.5990
13746TIP3    H262654   6.006   2.425  14.850  0.8482  1.0115  1.8712
13747TIP3   OH262655   2.952   6.050   4.914  0.3510 -0.1112  0.0433
13747TIP3    H162656   2.984   5.960   4.925 -0.6839 -0.4654  0.1877
13747TIP3    H262657   2.957   6.088   5.002 -1.5057 -0.8105  0.4870
13748TIP3   OH262658   4.140   0.676   5.413 -0.4920 -0.7796  0.4314
13748TIP3    H162659   4.097   0.603   5.369 -0.3617 -1.1315  0.8788
13748TIP3    H262660   4.139   0.653   5.506 -1.7167  0.4395  0.7612
13749TIP3   OH262661   3.336   4.064   4.845  0.2057 -0.3397  0.1390
13749TIP3    H162662   3.352   4.067   4.751 -0.8660 -2.9768 -0.2148
13749TIP3    H262663   3.246   4.095   4.855  0.4899  0.4307  0.3822
13750TIP3   OH262664   1.239   2.580   0.811  0.8224 -0.0929 -0.0297
13750TIP3    H162665   1.305   2.528   0.765  0.5056  0.7804 -1.5334
13750TIP3    H262666   1.155   2.547   0.778  0.6101  1.0993 -0.7212
13751TIP3   OH262667   4.918   0.425  14.941 -0.2585 -0.1327  0.4738
13751TIP3    H162668   4.914   0.464  15.028 -1.0262  0.6466  0.1009
13751TIP3    H262669   4.938   0.333  14.957 -1.0332 -0.1364  1.5190
13752TIP3   OH262670   6.343   6.573   4.215  0.0745 -0.0813 -0.0690
13752TIP3    H162671   6.377   6.642   4.271 -0.8094  0.2355  0.0838
13752TIP3    H262672   6.389   6.586   4.131  0.7143  0.0075  0.2850
13753TIP3   OH262673   4.703   0.982   5.458 -0.0814  0.4941 -0.4120
13753TIP3    H162674   4.656   0.968   5.540 -0.3364  1.2613 -0.4197
13753TIP3    H262675   4.743   1.068   5.467  0.7036  0.1717 -0.7085
13754TIP3   OH262676   6.792   1.191   1.856 -0.0260 -0.1948  0.2367
13754TIP3    H162677   6.756   1.280   1.859 -1.0772 -0.6143  0.4758
13754TIP3    H262678   6.721   1.137   1.822  0.9016 -0.8169 -0.7641
13755TIP3   OH262679   1.897   6.585   3.933  0.4033  0.3738 -0.2595
13755TIP3    H162680   1.859   6.507   3.891 -0.8772  0.9410 -0.1864
13755TIP3    H262681   1.829   6.652   3.927  1.0257  1.1368  0.7667
13756TIP3   OH262682   0.058   0.936   2.336  0.0495 -0.1401  0.1820
13756TIP3    H162683   0.124   0.875   2.370  0.1391 -0.4425 -0.5204
13756TIP3    H262684   0.105   1.019   2.328  0.1910 -0.2157  0.2249
13757TIP3   OH262685   3.119   4.560   5.883 -0.6021  0.1200 -0.2681
13757TIP3    H162686   3.210   4.559   5.911 -0.5452  0.9778 -0.4023
13757TIP3    H262687   3.117   4.505   5.805 -0.2146  0.0335 -0.2156
13758TIP3   OH262688   5.629   6.121  13.255  0.8540  0.2291 -0.1044
13758TIP3    H162689   5.610   6.204  13.210 -0.7369  0.2169  0.4594
13758TIP3    H262690   5.578   6.056  13.207 -0.5820  0.1581  1.4061
13759TIP3   OH262691   2.847   1.694   1.652 -0.1137  0.1018  0.3370
13759TIP3    H162692   2.838   1.739   1.567 -2.1534  0.0566  0.4694
13759TIP3    H262693   2.941   1.690   1.667  0.2636  1.0347 -1.4400
13760TIP3   OH262694   0.448   5.144   3.404  0.1593  0.3611 -0.1173
13760TIP3    H162695   0.430   5.079   3.472 -0.0205  0.0877 -0.4269
13760TIP3    H262696   0.364   5.188   3.390  0.6258  1.8380  1.2970
13761TIP3   OH262697   4.414   0.635  15.122  0.1088 -0.3112 -0.1503
13761TIP3    H162698   4.321   0.631  15.145  0.0391 -1.1124 -0.5653
13761TIP3    H262699   4.458   0.581  15.187  0.2066 -0.4964 -0.3700
13762TIP3   OH262700   4.207   1.149   4.693 -0.3482  0.0000 -0.4549
13762TIP3    H162701   4.240   1.180   4.609  0.0536  0.9087  0.0257
13762TIP3    H262702   4.181   1.228   4.740 -3.7483 -0.6492 -0.9662
13763TIP3   OH262703   2.216   2.688   4.914 -0.4972 -0.7929 -0.0033
13763TIP3    H162704   2.300   2.731   4.904 -1.4422  1.2542  0.3770
13763TIP3    H262705   2.201   2.644   4.830  2.1097 -3.5724  0.7846
13764TIP3   OH262706   6.366   7.080  14.289  0.6483  0.4646  0.1265
13764TIP3    H162707   6.283   7.082  14.337  0.8180 -0.2747  0.4543
13764TIP3    H262708   6.372   7.167  14.250 -0.2935  0.5208  0.0797
13765TIP3   OH262709   2.022   4.821   3.727  0.2111  0.3309  0.2597
13765TIP3    H162710   2.038   4.913   3.747 -0.2266  0.5230 -0.2796
13765TIP3    H262711   2.093   4.796   3.668 -0.4020  0.6825 -0.6437
13766TIP3   OH262712   1.424   2.096  11.593 -0.3692  0.0732 -0.7765
13766TIP3    H162713   1.403   2.090  11.500 -0.6910  1.0783 -0.7877
13766TIP3    H262714   1.383   2.178  11.621  0.5817  0.3009  0.0157
13767TIP3   OH262715   2.216   4.578  15.205 -0.2990 -0.0442 -0.2211
13767TIP3    H162716   2.211   4.567  15.300  0.1070  1.9073  0.0636
13767TIP3    H262717   2.292   4.635  15.190  0.9639 -2.0362 -1.9161
13768TIP3   OH262718   5.755   6.152   4.359 -0.3141 -0.7845 -0.1378
13768TIP3    H162719   5.702   6.075   4.379  0.3344 -1.9540 -2.5053
13768TIP3    H262720   5.816   6.122   4.291  1.5139  1.2367  0.5018
13769TIP3   OH262721   4.918   6.426   4.645 -0.0580 -0.3041  0.0572
13769TIP3    H162722   4.890   6.394   4.731  0.3075  1.7104  0.9924
13769TIP3    H262723   4.850   6.488   4.620  0.1964 -0.3615 -0.8001
13770TIP3   OH262724   0.360   4.079   4.922  0.1372 -0.2705 -0.1856
13770TIP3    H162725   0.269   4.106   4.924 -0.2818 -1.5689  1.4464
13770TIP3    H262726   0.406   4.146   4.974 -0.1234 -0.2989  0.0869
13771TIP3   OH262727   5.868   0.749   3.167  0.2498 -0.2885  0.1220
13771TIP3    H162728   5.828   0.741   3.254  1.8426 -0.8456  0.8536
13771TIP3    H262729   5.898   0.840   3.163 -1.2120  0.1902 -0.5134
13772TIP3   OH262730   2.359   4.055   5.041  0.2878  0.4556 -0.4691
13772TIP3    H162731   2.300   4.000   5.094 -0.2529  1.5923  0.1305
13772TIP3    H262732   2.332   4.038   4.951 -0.2876  0.1927 -0.2546
13773TIP3   OH262733   1.830   1.888  15.419  0.2722  0.3978  0.5942
13773TIP3    H162734   1.919   1.904  15.450  0.4864  1.0651 -0.3231
13773TIP3    H262735   1.841   1.841  15.337 -0.2899 -1.4240  1.4954
13774TIP3   OH262736   2.002   4.114   4.593 -0.5645  0.4000  0.5601
13774TIP3    H162737   1.958   4.167   4.527 -0.7713 -0.0795  0.3062
13774TIP3    H262738   2.010   4.027   4.552  0.5903  0.4645  0.5963
13775TIP3   OH262739   0.098   5.943   2.584 -0.3719  0.2132 -0.0440
13775TIP3    H162740   0.006   5.930   2.560 -0.6199  2.2752 -0.3774
13775TIP3    H262741   0.099   6.026   2.631  1.7222  1.9203 -2.7916
13776TIP3   OH262742   0.366   5.925  14.849 -0.6795  0.0377  0.7823
13776TIP3    H162743   0.417   5.887  14.777  0.9227  1.0349  1.3503
13776TIP3    H262744   0.297   5.976  14.805  0.9610  1.5920 -0.1425
13777TIP3   OH262745   2.784   1.208   0.486 -0.1513  1.2556 -0.2025
13777TIP3    H162746   2.743   1.278   0.536 -0.5295  0.0537  1.2864
13777TIP3    H262747   2.873   1.239   0.469  0.2936  1.4061  2.0637
13778TIP3   OH262748   6.307   6.775  14.186 -0.3330  0.3010  0.4415
13778TIP3    H162749   6.282   6.865  14.204 -1.3858 -0.1565  1.3536
13778TIP3    H262750   6.282   6.761  14.095  2.0739  1.6484 -0.5220
13779TIP3   OH262751   0.645   5.603   1.605 -0.8105 -0.5419 -0.4894
13779TIP3    H162752   0.655   5.548   1.528 -1.7406  0.2954 -1.2341
13779TIP3    H262753   0.720   5.662   1.604 -0.8176 -0.5384 -0.7538
13780TIP3   OH262754   2.840   5.926   3.216  0.3510 -0.2559  0.1134
13780TIP3    H162755   2.892   5.848   3.195  0.7792 -0.6880  2.5464
13780TIP3    H262756   2.785   5.899   3.289 -1.4748  0.9837 -0.7292
13781TIP3   OH262757   3.673   7.153   3.366 -0.0525 -0.3287 -0.7662
13781TIP3    H162758   3.719   7.154   3.282 -1.5157 -1.7678 -1.6428
13781TIP3    H262759   3.708   7.075   3.411 -1.9762 -1.8017 -1.7027
13782TIP3   OH262760   5.824   4.522  14.263 -0.0092  0.7358 -0.2356
13782TIP3    H162761   5.866   4.539  14.347  0.0556  0.2888 -0.1775
13782TIP3    H262762   5.842   4.600  14.211  1.0601  0.4698 -0.2793
13783TIP3   OH262763   1.914   6.474   1.509  0.2919  0.1738 -0.0073
13783TIP3    H162764   1.998   6.471   1.556  1.1776  0.5062 -1.5090
13783TIP3    H262765   1.879   6.560   1.528  0.1695 -0.0453  0.8083
13784TIP3   OH262766   4.638   3.890   4.385  0.0031 -0.9013  0.1882
13784TIP3    H162767   4.728   3.868   4.412 -0.0158  0.7867  1.8150
13784TIP3    H262768   4.585   3.820   4.424  0.4259 -0.8403  0.9006
13785TIP3   OH262769   4.376   5.173  13.494 -0.0966  0.2783 -0.0375
13785TIP3    H162770   4.294   5.178  13.445 -0.8899 -0.3833  1.1658
13785TIP3    H262771   4.408   5.263  13.497  0.1530  0.2881 -2.0214
13786TIP3   OH262772   3.993   2.382   5.423 -0.1535 -0.3470 -0.5789
13786TIP3    H162773   3.990   2.404   5.516 -0.6496 -0.0280 -0.6660
13786TIP3    H262774   4.066   2.320   5.415  0.6510  0.5198 -0.1711
13787TIP3   OH262775   5.652   2.825   1.012 -0.0570 -0.4200  0.4342
13787TIP3    H162776   5.561   2.805   0.991  0.0194 -1.7842  1.3266
13787TIP3    H262777   5.659   2.814   1.107  0.5971  1.5930  0.6801
13788TIP3   OH262778   6.722   2.664   1.339  0.3186  0.6898  0.5504
13788TIP3    H162779   6.804   2.616   1.349  0.0873  0.6194  2.7047
13788TIP3    H262780   6.741   2.752   1.372 -0.0568  1.1760 -0.4885
13789TIP3   OH262781   6.277   1.647   1.804 -0.0837 -0.0407 -0.3380
13789TIP3    H162782   6.247   1.560   1.829 -0.7253  0.2452 -0.0951
13789TIP3    H262783   6.211   1.679   1.743 -0.3281  0.6163  0.2502
13790TIP3   OH262784   1.756   1.869  13.161  0.6928  0.2590 -0.2422
13790TIP3    H162785   1.680   1.890  13.107  0.9717 -0.6265 -1.0099
13790TIP3    H262786   1.815   1.943  13.148  1.2874 -0.4927 -2.1923
13791TIP3   OH262787   6.432   6.146   2.789 -0.2601  0.2114 -0.2230
13791TIP3    H162788   6.526   6.129   2.784  0.4546  2.6087  2.4675
13791TIP3    H262789   6.419   6.220   2.730 -0.1701  0.6956  0.3509
13792TIP3   OH262790   5.957   6.968   4.823  0.6166  0.4133  0.1702
13792TIP3    H162791   5.978   7.031   4.754 -1.0750 -0.0689 -0.8406
13792TIP3    H262792   6.033   6.909   4.825  2.1077  2.2496  0.9550
13793TIP3   OH262793   0.495   5.967   4.240 -0.7900 -0.3328 -0.2231
13793TIP3    H162794   0.437   5.917   4.181 -0.5812 -1.3482  0.4043
13793TIP3    H262795   0.454   5.958   4.326 -0.5685  0.3260 -0.0473
13794TIP3   OH262796   3.720   3.371   3.206 -0.4629  0.2282 -0.2039
13794TIP3    H162797   3.645   3.367   3.146 -2.4412  4.1546  1.6035
13794TIP3    H262798   3.697   3.311   3.277 -1.8276  1.1174  0.1513
13795TIP3   OH262799   5.591   1.017   0.426  0.3591 -0.1247  0.0440
13795TIP3    H162800   5.534   0.945   0.396 -1.1333  1.1485 -0.2988
13795TIP3    H262801   5.677   0.996   0.389  0.1293 -2.0246  0.4422
13796TIP3   OH262802   3.331   5.072   2.186 -0.2468 -0.4102  0.3951
13796TIP3    H162803   3.424   5.084   2.172 -0.3926 -0.0526 -0.2782
13796TIP3    H262804   3.306   5.144   2.244 -0.3374  0.2234 -0.4155
13797TIP3   OH262805   5.275   7.026   4.739 -0.4823  0.0912 -0.0710
13797TIP3    H162806   5.312   6.938   4.751 -0.4591 -0.0540 -1.0682
13797TIP3    H262807   5.222   7.041   4.817  0.3860 -0.3605  0.6273
13798TIP3   OH262808   3.115   6.416  14.683 -0.5849  0.1142  0.3703
13798TIP3    H162809   3.084   6.507  14.682  1.9314  1.0682  1.4078
13798TIP3    H262810   3.179   6.413  14.754 -1.8994 -2.9923  1.6253
13799TIP3   OH262811   5.217   5.462   1.988  0.3035  0.0444  0.4542
13799TIP3    H162812   5.198   5.415   2.069 -0.6890  0.7074  0.6079
13799TIP3    H262813   5.210   5.395   1.919 -1.7941  0.0713  0.5929
13800TIP3   OH262814   4.058   2.445  10.524  0.1515  0.0498  0.6859
13800TIP3    H162815   4.086   2.530  10.556 -0.2903  0.8994 -1.0851
13800TIP3    H262816   4.136   2.389  10.531  1.2394  1.3331 -0.5877
13801TIP3   OH262817   1.179   1.390   2.827 -0.3403 -0.2471  0.2102
13801TIP3    H162818   1.108   1.455   2.825  0.3195  0.4698 -0.7741
13801TIP3    H262819   1.259   1.442   2.835  0.0773 -1.0686  1.7664
13802TIP3   OH262820   1.516   2.446   0.979  0.2547 -0.3832 -0.0075
13802TIP3    H162821   1.519   2.471   0.887  0.3068 -1.9411 -0.4637
13802TIP3    H262822   1.437   2.392   0.987  0.4395 -0.5552  0.7727
13803TIP3   OH262823   5.241   4.986  14.824 -0.1787 -0.2301  0.1577
13803TIP3    H162824   5.329   4.969  14.857  0.1678 -1.0980 -1.1302
13803TIP3    H262825   5.218   4.907  14.774 -1.1867  0.4814 -0.5517
13804TIP3   OH262826   0.277   1.715   3.352  0.0520  0.1716 -0.1198
13804TIP3    H162827   0.208   1.670   3.401 -0.3851  0.7391 -0.2037
13804TIP3    H262828   0.340   1.743   3.419  0.3165 -0.5437 -0.0665
13805TIP3   OH262829   2.901   0.933  14.613 -0.7220 -0.6090 -0.4218
13805TIP3    H162830   2.829   0.869  14.614 -1.0094 -0.2967 -0.7585
13805TIP3    H262831   2.939   0.928  14.701  0.5634 -2.6900 -1.0337
13806TIP3   OH262832   1.846   2.748  15.057  0.4927  0.1900 -0.0284
13806TIP3    H162833   1.834   2.828  15.108 -1.7802 -0.6863  0.9528
13806TIP3    H262834   1.783   2.754  14.986  0.4226 -0.6231 -0.0492
13807TIP3   OH262835   0.449   1.838   3.128  0.1912  0.2681  0.2170
13807TIP3    H162836   0.450   1.816   3.221  0.3963  0.2377  0.2082
13807TIP3    H262837   0.461   1.932   3.125  1.1064  0.1592  0.1898
13808TIP3   OH262838   2.119   0.778   0.439 -0.7878  0.5227  0.0175
13808TIP3    H162839   2.176   0.840   0.393 -0.5068 -0.1177 -0.5281
13808TIP3    H262840   2.062   0.744   0.370 -0.5486 -0.2469  0.1924
13809TIP3   OH262841   0.828   3.850   2.741 -0.6114  0.3506 -0.1945
13809TIP3    H162842   0.733   3.863   2.740 -0.9081 -1.5176 -0.4177
13809TIP3    H262843   0.842   3.770   2.690  1.0371  0.2816  0.2910
13810TIP3   OH262844   6.522   3.349  12.480 -0.2658  0.2741 -0.1206
13810TIP3    H162845   6.485   3.282  12.537 -0.0732  0.5836  0.3771
13810TIP3    H262846   6.579   3.300  12.420 -0.3270 -0.0368  0.0709
13811TIP3   OH262847   5.117   2.614   2.318  0.2447 -0.1196  0.2266
13811TIP3    H162848   5.118   2.708   2.338 -1.6909  0.2713 -1.2675
13811TIP3    H262849   5.082   2.574   2.398  0.6815  0.4445  0.7211
13812TIP3   OH262850   0.601   4.890   4.089 -0.4320 -0.2842 -0.1749
13812TIP3    H162851   0.570   4.895   4.179 -1.1087  2.9322 -0.4413
13812TIP3    H262852   0.691   4.924   4.093  0.0418 -1.4595 -0.5501
13813TIP3   OH262853   1.507   4.918   3.289 -0.8404 -0.4472 -0.2663
13813TIP3    H162854   1.454   4.973   3.231 -0.8579 -1.0491 -0.8354
13813TIP3    H262855   1.538   4.978   3.357 -0.3418  0.4049 -1.2179
13814TIP3   OH262856   6.560   3.097   3.920 -0.2127 -0.7067  0.1524
13814TIP3    H162857   6.625   3.163   3.944  1.1687 -1.1705 -2.0225
13814TIP3    H262858   6.480   3.148   3.904  1.0737  0.6909 -2.4818
13815TIP3   OH262859   0.191   5.331  13.676  0.9373  1.1526 -0.6204
13815TIP3    H162860   0.234   5.350  13.760  0.5840 -2.4068  0.5537
13815TIP3    H262861   0.098   5.324  13.698  0.6120  1.9463 -1.7042
13816TIP3   OH262862   1.637   3.809   3.724 -0.6173 -0.3652 -0.0150
13816TIP3    H162863   1.575   3.847   3.662 -0.1400  0.1162 -0.1996
13816TIP3    H262864   1.722   3.845   3.699 -0.4276 -0.1189  0.9556
13817TIP3   OH262865   2.025   2.679  10.259  0.2742  0.1824 -0.6517
13817TIP3    H162866   2.115   2.677  10.291  0.4181  1.9197 -0.8863
13817TIP3    H262867   1.971   2.686  10.338  0.5493  2.8004 -0.6327
13818TIP3   OH262868   1.833   2.459   4.778 -0.0091  0.2351 -0.2667
13818TIP3    H162869   1.882   2.378   4.787 -0.8806 -0.3224 -0.3437
13818TIP3    H262870   1.797   2.475   4.866 -0.1778  0.3072 -0.3475
13819TIP3   OH262871   5.027   3.716   0.262 -0.2371 -0.2503 -0.3412
13819TIP3    H162872   5.077   3.652   0.311 -0.3377 -0.0536  0.0266
13819TIP3    H262873   4.985   3.770   0.329 -0.8943 -0.3767 -0.6396
13820TIP3   OH262874   1.387   3.347   3.205  0.4009  0.3338  0.1447
13820TIP3    H162875   1.328   3.314   3.272 -1.6775  1.2221 -1.1337
13820TIP3    H262876   1.424   3.427   3.242 -1.9773  1.7173 -0.2478
13821TIP3   OH262877   3.450   2.668  14.036  0.4145  0.5572  0.3338
13821TIP3    H162878   3.428   2.622  14.116  0.4568  1.4656  0.8831
13821TIP3    H262879   3.370   2.665  13.984  0.7396 -1.0760 -0.1322
13822TIP3   OH262880   5.244   6.057   5.568 -0.5417  0.1089  0.1408
13822TIP3    H162881   5.195   6.043   5.649  0.6990 -0.0664  0.9000
13822TIP3    H262882   5.327   6.096   5.597  1.0451 -2.3663 -0.7162
13823TIP3   OH262883   2.818   4.672   1.622 -0.2843 -0.1180 -0.9806
13823TIP3    H162884   2.728   4.650   1.600 -0.6043 -0.8170  0.8617
13823TIP3    H262885   2.853   4.594   1.664  0.2404  1.0756  0.9490
13824TIP3   OH262886   4.851   2.767   3.102  0.3111 -0.3314  0.2280
13824TIP3    H162887   4.946   2.774   3.097  0.3546 -1.0934 -0.0822
13824TIP3    H262888   4.833   2.673   3.095 -0.1435 -0.9113  5.3063
13825TIP3   OH262889   4.315   3.577   0.135 -0.6066 -0.4696 -0.0308
13825TIP3    H162890   4.410   3.590   0.140 -0.6816 -0.0257  0.3670
13825TIP3    H262891   4.286   3.639   0.068 -0.8938  1.1129  1.4751
13826TIP3   OH262892   0.100   3.446   2.598 -0.4986  0.0968  0.0664
13826TIP3    H162893   0.018   3.487   2.627 -0.6622  0.0138 -0.2763
13826TIP3    H262894   0.146   3.516   2.552  0.0242  0.3973  1.0118
13827TIP3   OH262895   2.102   6.185   2.859 -0.1933  0.0927 -0.7601
13827TIP3    H162896   2.097   6.090   2.870 -0.6283  0.1724 -0.2077
13827TIP3    H262897   2.150   6.215   2.937  1.1008  0.2057 -1.5752
13828TIP3   OH262898   1.324   5.894   4.759  0.3213 -0.4858 -0.1253
13828TIP3    H162899   1.269   5.885   4.838  1.5972 -0.1832  0.8334
13828TIP3    H262900   1.413   5.890   4.792  0.8963  0.7506 -1.4312
13829TIP3   OH262901   1.377   5.253   3.416  0.3676  0.3181 -0.3482
13829TIP3    H162902   1.343   5.207   3.339 -0.3859 -1.1338  0.7900
13829TIP3    H262903   1.449   5.306   3.383  0.9158 -1.2701 -1.8570
13830TIP3   OH262904   5.342   2.087   3.801 -0.0042 -0.2060  0.3311
13830TIP3    H162905   5.435   2.065   3.815  0.3931  0.4754 -1.0522
13830TIP3    H262906   5.296   2.004   3.810  0.3810 -0.1865  3.5661
13831TIP3   OH262907   4.178   2.414   0.497 -0.4705 -0.5902  0.6530
13831TIP3    H162908   4.133   2.403   0.581  0.3382 -0.1147  1.1547
13831TIP3    H262909   4.247   2.478   0.514 -1.1634  0.5907 -0.7117
13832TIP3   OH262910   1.499   2.068   1.649 -0.2050 -0.0932 -0.5164
13832TIP3    H162911   1.572   2.124   1.626  1.4015 -1.6987  0.4395
13832TIP3    H262912   1.446   2.121   1.709  0.5492  0.8245 -0.6458
13833TIP3   OH262913   1.787   2.867   3.044 -0.1659 -0.5072  0.0185
13833TIP3    H162914   1.717   2.902   3.098  0.1356 -0.1358  0.1723
13833TIP3    H262915   1.819   2.791   3.092 -1.2393 -1.3895 -0.6186
13834TIP3   OH262916   2.174   1.296   3.232 -0.0495  0.6263  0.3287
13834TIP3    H162917   2.172   1.200   3.228 -1.0039  0.6318  0.2247
13834TIP3    H262918   2.218   1.323   3.152  1.3897  0.2573  0.9716
13835TIP3   OH262919   3.975   4.720   0.473 -0.3423  0.5510 -0.0304
13835TIP3    H162920   4.061   4.678   0.473  0.3738  1.9245  0.5315
13835TIP3    H262921   3.986   4.796   0.531 -2.1552  0.3358  0.6635
13836TIP3   OH262922   6.702   5.714  14.301  0.2880  0.7419 -0.0792
13836TIP3    H162923   6.714   5.627  14.337  0.1189 -0.0406 -1.8051
13836TIP3    H262924   6.609   5.733  14.315 -0.1011 -0.1446 -1.2722
13837TIP3   OH262925   6.906   5.032   0.516  0.0807  0.1226  0.2869
13837TIP3    H162926   6.891   5.063   0.427 -0.8807  0.2423  0.4863
13837TIP3    H262927   6.905   4.936   0.508 -1.5934  0.1004  0.4012
13838TIP3   OH262928   3.125   0.866  11.541 -0.4248  0.4202 -0.5450
13838TIP3    H162929   3.157   0.776  11.552 -0.4568  0.4075 -0.5555
13838TIP3    H262930   3.139   0.907  11.626 -0.4027  0.4078 -0.5426
13839TIP3   OH262931   6.550   3.363  15.045  0.2336 -0.2041  0.2205
13839TIP3    H162932   6.465   3.325  15.026 -0.4658  0.1187  2.3681
13839TIP3    H262933   6.596   3.296  15.096 -0.4510  1.1234  2.7728
13840TIP3   OH262934   5.943   5.436   1.128  0.2491  0.3619 -0.9010
13840TIP3    H162935   6.017   5.421   1.069 -0.5810 -1.7506 -1.4762
13840TIP3    H262936   5.982   5.443   1.215  1.1938  0.1087 -1.2931
13841TIP3   OH262937   4.533   3.479   4.669  0.0643  0.0492 -0.6848
13841TIP3    H162938   4.571   3.410   4.725 -0.4729 -0.4549 -0.9289
13841TIP3    H262939   4.486   3.431   4.601 -1.1427  0.6622 -0.3060
13842TIP3   OH262940   1.352   6.179   0.755 -0.3476  0.4080  0.2990
13842TIP3    H162941   1.333   6.270   0.734 -2.9846 -0.2179 -0.4926
13842TIP3    H262942   1.273   6.132   0.729  0.7334 -2.0520  1.1460
13843TIP3   OH262943   5.344   3.437  12.468  0.2633  0.0068 -0.2378
13843TIP3    H162944   5.373   3.446  12.377  0.1683  2.2641 -0.1021
13843TIP3    H262945   5.293   3.516  12.484  0.9449  0.0427  2.0309
13844TIP3   OH262946   1.088   2.420   4.359  0.1144  0.3539 -0.1023
13844TIP3    H162947   1.059   2.381   4.442  0.2710 -0.7447 -0.5438
13844TIP3    H262948   1.014   2.473   4.331 -0.1790  0.2460  0.4430
13845TIP3   OH262949   0.173   4.085   1.995 -0.5678  0.1320 -0.1932
13845TIP3    H162950   0.246   4.045   1.948 -0.8910 -1.5473  0.6667
13845TIP3    H262951   0.104   4.095   1.929  0.3669  1.6167 -0.9795
13846TIP3   OH262952   6.875   5.895   3.596 -0.0621  0.3599  0.5673
13846TIP3    H162953   6.923   5.977   3.584  0.7386 -0.1765  0.0051
13846TIP3    H262954   6.785   5.923   3.611  0.2282  1.3511  0.5804
13847TIP3   OH262955   5.001   1.514   3.933  0.6387  0.1570 -0.7757
13847TIP3    H162956   5.075   1.559   3.975  1.6703 -0.7765 -1.5121
13847TIP3    H262957   5.037   1.429   3.907 -1.3852 -1.4226  1.1492
13848TIP3   OH262958   0.978   3.335   3.484  0.3287  0.4543  0.0374
13848TIP3    H162959   0.950   3.333   3.393 -0.2316 -0.4068  0.2102
13848TIP3    H262960   0.978   3.427   3.508  2.1981  0.8599 -1.3285
13849TIP3   OH262961   6.423   6.982  14.791  0.0018 -0.5259 -0.1347
13849TIP3    H162962   6.403   6.891  14.812  2.8124 -1.5328 -1.3428
13849TIP3    H262963   6.340   7.028  14.801 -1.1563 -2.8695  2.1768
13850TIP3   OH262964   1.390   4.667   2.313  0.4221 -0.6165  0.0509
13850TIP3    H162965   1.401   4.573   2.299 -0.0812 -0.7878  0.7927
13850TIP3    H262966   1.298   4.683   2.297  0.6330 -0.1288 -0.7084
13851TIP3   OH262967   0.108   1.470   9.522 -0.1263  0.7109  0.2809
13851TIP3    H162968   0.063   1.533   9.578 -0.3879  0.4164  0.4073
13851TIP3    H262969   0.040   1.406   9.498  0.3866 -0.1768  1.1111
13852TIP3   OH262970   5.571   2.470  13.929  0.4172  0.0802  0.1024
13852TIP3    H162971   5.530   2.391  13.894  0.0981  0.8609 -1.3369
13852TIP3    H262972   5.500   2.516  13.972 -0.1365  1.1014 -1.8070
13853TIP3   OH262973   6.139   2.589  15.035  0.8065 -0.5949  0.3938
13853TIP3    H162974   6.075   2.660  15.028  1.7940  0.1900 -1.5681
13853TIP3    H262975   6.086   2.510  15.041 -0.3161  0.2713  2.7367
13854TIP3   OH262976   2.760   2.718  10.935 -0.1670 -0.2761  0.1047
13854TIP3    H162977   2.817   2.650  10.971 -0.5898 -0.5893  0.1855
13854TIP3    H262978   2.799   2.739  10.850  0.8611  0.4982  0.7560
13855TIP3   OH262979   0.231   6.258   4.621  0.6200 -0.0062  0.3695
13855TIP3    H162980   0.261   6.229   4.707 -1.0819 -0.4693  0.8363
13855TIP3    H262981   0.142   6.226   4.614  1.5510 -2.4847 -2.7374
13856TIP3   OH262982   3.642   0.313  15.419 -0.0287  0.7992 -0.2704
13856TIP3    H162983   3.617   0.399  15.384 -1.6090  0.3693 -0.2926
13856TIP3    H262984   3.722   0.290  15.371  0.0152  1.9322 -0.7893
13857TIP3   OH262985   0.514   2.888   2.179  0.0436  1.0112  0.8213
13857TIP3    H162986   0.445   2.950   2.202  0.2451  1.6807 -0.3171
13857TIP3    H262987   0.501   2.870   2.086  1.4308  1.2186  0.5590
13858TIP3   OH262988   1.649   2.849   1.964 -0.4741 -0.1179  0.6352
13858TIP3    H162989   1.657   2.880   1.874 -3.3528  2.1416  0.9996
13858TIP3    H262990   1.696   2.914   2.016  0.3457 -0.8728  0.8508
13859TIP3   OH262991   6.563   1.929   3.405  0.7129  0.5201 -0.4570
13859TIP3    H162992   6.567   1.921   3.309  0.7008 -0.2154 -0.3972
13859TIP3    H262993   6.569   1.840   3.437 -1.6350  0.5129  0.1615
13860TIP3   OH262994   3.450   5.061   2.832 -0.1753  0.2155  0.3633
13860TIP3    H162995   3.496   5.040   2.751  1.4102 -0.4314  1.3921
13860TIP3    H262996   3.382   4.994   2.840 -0.7912  0.6825 -0.7464
13861TIP3   OH262997   1.164   3.480   2.981  0.0640 -0.0753  0.0064
13861TIP3    H162998   1.076   3.488   2.944 -0.4335 -0.8353  0.9723
13861TIP3    H262999   1.196   3.396   2.948  0.4115  0.1664 -0.2866
13862TIP3   OH263000   0.083   2.738   2.717  0.0500 -0.0112  0.3906
13862TIP3    H163001   0.034   2.656   2.712 -0.5511  0.1887  2.1519
13862TIP3    H263002   0.040   2.796   2.655 -2.4540  0.3622  2.3193
13863TIP3   OH263003   2.541   4.275   2.855 -0.4850 -0.4662 -0.0039
13863TIP3    H163004   2.492   4.341   2.904  0.3156 -1.4430  2.2463
13863TIP3    H263005   2.622   4.319   2.829 -0.9406  0.0780 -0.5166
13864TIP3   OH263006   2.424   5.577   4.703  0.1790 -0.5619  0.1334
13864TIP3    H163007   2.496   5.573   4.766  1.1461 -0.6807 -0.9262
13864TIP3    H263008   2.452   5.518   4.632  0.2169  1.2300 -1.4386
13865TIP3   OH263009   6.624   3.207   3.633 -0.4004 -0.2033  0.1475
13865TIP3    H163010   6.606   3.142   3.701  1.5724 -0.0675  0.8787
13865TIP3    H263011   6.608   3.161   3.551 -0.7025 -1.0696  0.6753
13866TIP3   OH263012   2.726   5.078   2.779 -0.1868  1.0335  0.7210
13866TIP3    H163013   2.811   5.093   2.739 -0.2722  0.1093  0.1586
13866TIP3    H263014   2.743   5.082   2.873  0.3871  1.3129  0.6084
13867TIP3   OH263015   2.572   6.728   2.353 -0.4716  0.2005 -0.2938
13867TIP3    H163016   2.560   6.646   2.401 -0.3557 -0.8778 -2.0410
13867TIP3    H263017   2.630   6.705   2.280  0.7583  2.1766 -0.0026
13868TIP3   OH263018   6.603   2.716  13.568 -0.0712 -0.0765 -0.1552
13868TIP3    H163019   6.690   2.679  13.579 -0.5234 -1.7537 -1.6585
13868TIP3    H263020   6.544   2.643  13.587 -1.0924  0.5893 -0.6687
13869TIP3   OH263021   3.038   6.309   5.141 -0.3248 -0.2070 -0.5510
13869TIP3    H163022   2.949   6.282   5.119 -0.3491 -0.7364  0.1608
13869TIP3    H263023   3.026   6.380   5.205 -0.2413 -0.0336 -0.7284
13870TIP3   OH263024   4.622   5.149   4.285  0.2147 -0.6474 -0.2020
13870TIP3    H163025   4.683   5.079   4.262  0.4205 -0.5586  0.0648
13870TIP3    H263026   4.653   5.180   4.370 -0.2863 -0.6973  0.0017
13871TIP3   OH263027   1.053   3.749   1.384  0.4442 -0.4039  0.0893
13871TIP3    H163028   1.118   3.805   1.427 -1.1072  1.9315 -0.4095
13871TIP3    H263029   1.038   3.678   1.447  0.2295  1.4414  2.2601
13872TIP3   OH263030   2.933   0.860   1.527  0.5106 -0.3225  0.1521
13872TIP3    H163031   2.938   0.956   1.529 -0.2568 -0.2708  0.0756
13872TIP3    H263032   2.890   0.840   1.444 -0.8006 -0.6415  0.8776
13873TIP3   OH263033   6.887   2.168   0.808  0.4118  0.0875  0.6337
13873TIP3    H163034   6.905   2.214   0.890  0.0749  3.2367 -0.8928
13873TIP3    H263035   6.794   2.146   0.813  0.5748 -0.4786  1.3831
13874TIP3   OH263036   5.527   3.946   2.508  0.2552  0.4841  0.6960
13874TIP3    H163037   5.464   3.899   2.453 -0.0317  1.2630  0.3508
13874TIP3    H263038   5.490   3.942   2.596  1.2859 -1.7955  1.1218
13875TIP3   OH263039   3.234   4.468   5.590  0.3779  0.0493 -0.2826
13875TIP3    H163040   3.322   4.505   5.598  0.3815 -0.4580  4.3803
13875TIP3    H263041   3.247   4.373   5.589 -0.0232 -0.1044  2.1856
13876TIP3   OH263042   0.362   3.599   4.918 -0.2604  0.0699 -0.1531
13876TIP3    H163043   0.270   3.589   4.892 -0.8777  0.6777  1.6033
13876TIP3    H263044   0.386   3.687   4.889 -0.6821  0.4275  0.5425
13877TIP3   OH263045   7.137   4.989   1.976  0.0669  0.4489  0.4012
13877TIP3    H163046   7.158   5.069   2.023 -1.4298 -0.5727  3.0213
13877TIP3    H263047   7.192   4.922   2.017  0.7058 -0.0564 -1.2049
13878TIP3   OH263048   6.431   0.156   4.935  0.3465 -0.1092 -0.4586
13878TIP3    H163049   6.409   0.227   4.994  0.0343 -0.1557 -0.5164
13878TIP3    H263050   6.423   0.194   4.847 -1.9699 -0.7743 -0.5886
13879TIP3   OH263051   1.815   0.916  15.059 -0.6900 -0.3011 -0.1177
13879TIP3    H163052   1.744   0.870  15.105 -0.5533  0.7072  1.1426
13879TIP3    H263053   1.894   0.893  15.108 -0.4859  0.5099 -0.0592
13880TIP3   OH263054   3.385   2.412   4.295  0.0349  0.0968  0.3123
13880TIP3    H163055   3.368   2.376   4.208 -0.9617  0.8840  0.1613
13880TIP3    H263056   3.322   2.368   4.352  0.0598  0.2561  0.4649
13881TIP3   OH263057   4.492   3.329   4.042  0.2598  0.4266  0.2882
13881TIP3    H163058   4.438   3.406   4.059  0.6047  0.8153 -0.3305
13881TIP3    H263059   4.462   3.264   4.105 -1.7267  0.2277 -0.8146
13882TIP3   OH263060   2.366   1.003   3.693  0.2497 -0.0267 -0.1018
13882TIP3    H163061   2.300   1.000   3.763 -1.4152  0.9550 -1.5298
13882TIP3    H263062   2.369   1.096   3.669  1.8582 -0.1371 -0.3854
13883TIP3   OH263063   6.829   3.620  15.382  0.0860  0.3644 -0.6764
13883TIP3    H163064   6.780   3.677  15.442  0.2817  1.0360 -1.1463
13883TIP3    H263065   6.891   3.574  15.439 -0.5461  0.0963 -0.1903
13884TIP3   OH263066   3.759   6.105  12.450 -0.2082 -0.0144  0.1943
13884TIP3    H163067   3.735   6.026  12.498 -0.2711 -1.3602 -1.9000
13884TIP3    H263068   3.724   6.177  12.503 -1.9653 -1.4984  1.1796
13885TIP3   OH263069   2.447   2.031  13.887  0.1770  0.2828 -0.1388
13885TIP3    H163070   2.356   2.051  13.863 -0.4247 -1.0485  0.8791
13885TIP3    H263071   2.456   1.937  13.869  1.5418  0.5078 -0.7330
13886TIP3   OH263072   2.304   1.860  10.032  0.3995 -0.3336 -0.2641
13886TIP3    H163073   2.367   1.848   9.960 -0.3723 -0.2919 -0.9678
13886TIP3    H263074   2.246   1.930  10.001 -0.7615 -1.2351 -0.1903
13887TIP3   OH263075   5.998   1.704   1.350  0.5324  0.0805  0.5436
13887TIP3    H163076   5.928   1.712   1.415  1.3036  0.2703  1.3697
13887TIP3    H263077   5.990   1.614   1.316  0.9268 -0.4706  1.8553
13888TIP3   OH263078   1.400   2.458   5.105  0.2228 -0.0534  0.1331
13888TIP3    H163079   1.321   2.441   5.157  0.2545 -0.3805  0.0782
13888TIP3    H263080   1.379   2.424   5.018  0.0037  0.8957 -0.2024
13889TIP3   OH263081   3.201   3.553   4.571 -0.0808 -0.0651  0.4700
13889TIP3    H163082   3.133   3.607   4.531 -0.6972 -0.3056  1.1815
13889TIP3    H263083   3.244   3.611   4.634 -2.0441 -0.8768  2.7089
13890TIP3   OH263084   2.811   3.290   3.252  0.5523  0.0294 -0.1809
13890TIP3    H163085   2.802   3.200   3.283  0.5683 -0.2803 -1.0486
13890TIP3    H263086   2.896   3.319   3.286  0.4651 -0.2152  0.2532
13891TIP3   OH263087   4.054   5.186   4.196 -0.2392  0.3946 -0.0543
13891TIP3    H163088   4.135   5.220   4.159 -0.1796  0.7074  0.3459
13891TIP3    H263089   4.068   5.092   4.203 -0.0103  0.4151 -0.2293
13892TIP3   OH263090   3.525   5.234   3.024 -0.1520 -0.0938 -0.5261
13892TIP3    H163091   3.551   5.295   2.955  0.9888 -1.0976 -1.0147
13892TIP3    H263092   3.509   5.152   2.978  2.2777 -1.2612  0.5195
13893TIP3   OH263093   3.720   2.417   0.373  0.2222 -0.3624  0.1633
13893TIP3    H163094   3.798   2.439   0.322 -0.1733  2.3543  0.5547
13893TIP3    H263095   3.711   2.489   0.435 -2.4891 -0.6519  0.2341
13894TIP3   OH263096   1.745   0.612  14.990 -0.3985  0.6766  0.3863
13894TIP3    H163097   1.743   0.652  14.903  0.1062 -0.1128 -0.0012
13894TIP3    H263098   1.657   0.629  15.025 -0.5230  1.2386 -0.1614
13895TIP3   OH263099   4.991   4.429   5.420 -0.4875 -0.2968  0.0583
13895TIP3    H163100   5.070   4.480   5.404  0.4395 -1.8162 -0.4179
13895TIP3    H263101   4.975   4.438   5.514 -0.7375  1.3518 -0.1098
13896TIP3   OH263102   3.363   4.603   3.482  0.7600 -0.3828 -0.1531
13896TIP3    H163103   3.417   4.548   3.425  0.7012 -0.4286 -0.1644
13896TIP3    H263104   3.273   4.574   3.465  0.8205 -1.0886  0.7211
13897TIP3   OH263105   4.390   0.750  10.819  0.1337  0.3258 -0.5253
13897TIP3    H163106   4.382   0.826  10.762  0.0521  0.2422 -0.6239
13897TIP3    H263107   4.430   0.683  10.764  1.5743  0.7488 -0.0366
13898TIP3   OH263108   3.234   2.294   4.510 -0.0304 -0.0409  0.1344
13898TIP3    H163109   3.193   2.378   4.530  1.4341  0.6781  0.2132
13898TIP3    H263110   3.232   2.246   4.594 -0.4946  0.0686  0.1893
13899TIP3   OH263111   1.241   0.010  10.474  0.4430 -0.0980  0.0219
13899TIP3    H163112   1.249  -0.079  10.439  1.9569  0.0218  0.0211
13899TIP3    H263113   1.330   0.043  10.475  0.1229  0.7732  1.7539
13900TIP3   OH263114   3.506   0.556   5.953  0.2415 -0.1810  0.0135
13900TIP3    H163115   3.411   0.558   5.961  0.2738 -0.5855  0.6337
13900TIP3    H263116   3.530   0.645   5.926 -0.3893 -0.3739 -1.2498
13901TIP3   OH263117   0.371   1.385   3.368 -0.2711  0.0774  0.5270
13901TIP3    H163118   0.315   1.425   3.434 -0.2368 -1.4102  1.5046
13901TIP3    H263119   0.456   1.429   3.379 -0.7144  1.0265  0.2937
13902TIP3   OH263120   5.514   1.858   0.313 -0.1385 -0.4907 -0.1877
13902TIP3    H163121   5.512   1.911   0.393  0.5042 -2.1986  1.0285
13902TIP3    H263122   5.593   1.886   0.267  1.4186 -1.8098  1.5335
13903TIP3   OH263123   6.851   5.933  14.504 -0.2773  0.4460  0.3545
13903TIP3    H163124   6.911   5.895  14.440 -0.9341  0.4290 -0.2617
13903TIP3    H263125   6.769   5.944  14.457 -1.0825 -0.5268  1.4634
13904TIP3   OH263126   4.850   1.261   4.524 -0.0943  0.2264  0.5224
13904TIP3    H163127   4.905   1.202   4.472  0.5713  1.3004 -0.0424
13904TIP3    H263128   4.912   1.314   4.574 -0.6259  1.0950  0.2852
13905TIP3   OH263129   1.197   0.772   4.713  0.0067  0.2346  0.2852
13905TIP3    H163130   1.266   0.706   4.714  0.3061  0.5510  0.4034
13905TIP3    H263131   1.124   0.731   4.759 -0.3391 -0.5912 -0.9269
13906TIP3   OH263132   3.641   3.385   6.047  0.4583  0.3379  0.2575
13906TIP3    H163133   3.597   3.303   6.070 -1.4643  2.0390  3.2400
13906TIP3    H263134   3.601   3.411   5.964 -1.4573 -0.0817  0.9999
13907TIP3   OH263135   4.266   1.659   3.747  0.2422  0.0041 -0.1170
13907TIP3    H163136   4.359   1.646   3.731  0.2434  0.3177 -0.3793
13907TIP3    H263137   4.250   1.619   3.833  1.1568  2.2680  1.1754
13908TIP3   OH263138   2.824   3.883  14.798 -0.0297 -0.1570 -0.0667
13908TIP3    H163139   2.751   3.914  14.851 -1.1953 -1.2859 -0.9274
13908TIP3    H263140   2.901   3.893  14.854 -0.7105  1.8073  0.5731
13909TIP3   OH263141   4.079   2.456  13.083 -0.3492 -0.1513 -0.1270
13909TIP3    H163142   4.086   2.431  12.991  1.6349  0.0323 -0.0833
13909TIP3    H263143   4.170   2.458  13.114 -0.6268  3.1823  0.9084
13910TIP3   OH263144   1.999   4.177  12.025  0.0690  0.4785  0.1744
13910TIP3    H163145   2.017   4.084  12.015  0.9899  0.6999 -0.3173
13910TIP3    H263146   2.083   4.220  12.010 -0.4628  1.4281 -0.1971
13911TIP3   OH263147   4.131   0.215   4.678  0.8293  0.6006  0.5616
13911TIP3    H163148   4.125   0.243   4.587  1.2154 -0.4529  0.1908
13911TIP3    H263149   4.042   0.191   4.702  1.1906 -2.6487 -0.7702
13912TIP3   OH263150   5.208   4.552   2.329 -0.6365 -0.6467  0.1491
13912TIP3    H163151   5.281   4.491   2.313 -0.0135  0.1764 -0.2380
13912TIP3    H263152   5.213   4.570   2.422 -0.0012 -0.1972  0.0402
13913TIP3   OH263153   0.169   4.095   0.361 -0.3225  0.1545  0.5719
13913TIP3    H163154   0.196   4.130   0.276 -0.7478 -0.9364 -0.0314
13913TIP3    H263155   0.228   4.137   0.424  1.6939 -0.9104 -0.5176
13914TIP3   OH263156   1.261   1.247   0.121 -0.1534  0.6411  1.4241
13914TIP3    H163157   1.315   1.265   0.044 -0.0831 -0.3408  1.2295
13914TIP3    H263158   1.207   1.325   0.132 -0.6396  0.5264 -0.0124
13915TIP3   OH263159   1.453   2.052  13.745  1.1252 -0.0990  0.1642
13915TIP3    H163160   1.506   2.080  13.820  0.3030  0.1549  0.6660
13915TIP3    H263161   1.423   2.133  13.705 -0.8275 -0.1967  1.3063
13916TIP3   OH263162   4.647   3.281   4.463  0.0963 -0.0735 -0.0547
13916TIP3    H163163   4.654   3.237   4.547 -0.6787  1.4009  0.8190
13916TIP3    H263164   4.686   3.219   4.400  2.1795 -0.5406  1.5818
13917TIP3   OH263165   4.728   2.554   1.976 -0.3247  0.0532 -0.2329
13917TIP3    H163166   4.664   2.592   2.036 -0.1282 -0.0078  0.0174
13917TIP3    H263167   4.761   2.628   1.925  0.2207  0.2640  0.4061
13918TIP3   OH263168   4.058   0.769   2.497 -0.0512  0.2564  0.2785
13918TIP3    H163169   4.059   0.864   2.511  0.6486  0.8808 -3.2102
13918TIP3    H263170   3.965   0.747   2.489 -0.2306  0.5509  1.2830
13919TIP3   OH263171   1.073   6.085  12.698  0.2410  0.3797  0.3459
13919TIP3    H163172   1.006   6.075  12.630  1.2472  0.1651 -0.6381
13919TIP3    H263173   1.046   6.162  12.747 -0.5144  0.5246 -0.2773
13920TIP3   OH263174   4.188   6.024   5.395  0.4476 -0.2224 -0.2729
13920TIP3    H163175   4.167   5.993   5.483 -0.2335  0.2254 -0.2693
13920TIP3    H263176   4.263   6.083   5.408  3.4464 -3.6222 -0.5637
13921TIP3   OH263177   2.573   4.136   3.798 -1.2041 -0.2607 -0.6701
13921TIP3    H163178   2.629   4.184   3.858 -1.9187  2.0555 -1.7534
13921TIP3    H263179   2.491   4.123   3.845 -0.8586 -0.8403 -0.2184
13922TIP3   OH263180   0.712   2.134   0.229 -0.2368 -0.3933 -0.2948
13922TIP3    H163181   0.683   2.042   0.235  1.2345 -0.9053 -0.7132
13922TIP3    H263182   0.744   2.143   0.140  0.6489  0.2152  0.0751
13923TIP3   OH263183   2.551   3.715  14.874  0.5840 -0.1428 -0.3811
13923TIP3    H163184   2.456   3.708  14.881  0.2672  2.3787 -0.9799
13923TIP3    H263185   2.578   3.748  14.960  1.1179 -2.0198  0.2078
13924TIP3   OH263186   0.500   6.488   3.713 -0.2072  0.5085 -0.3369
13924TIP3    H163187   0.581   6.537   3.731  0.8667 -1.2301 -0.2679
13924TIP3    H263188   0.490   6.430   3.788 -0.7030 -0.3378 -1.0395
13925TIP3   OH263189   0.633   3.250   5.581 -0.6738  0.1772  0.4719
13925TIP3    H163190   0.567   3.198   5.628 -0.1914 -0.5424  0.3714
13925TIP3    H263191   0.684   3.292   5.650 -0.5129 -0.1866  0.5763
13926TIP3   OH263192   2.639   5.579   4.867  0.0914 -0.4511 -0.4941
13926TIP3    H163193   2.690   5.609   4.792 -0.1569  0.6535 -0.2347
13926TIP3    H263194   2.675   5.626   4.942 -1.6114  0.7587 -0.3757
13927TIP3   OH263195   6.820   4.012   3.553  0.8239  0.3796  0.0767
13927TIP3    H163196   6.748   3.958   3.585  0.0031  0.9717 -0.7173
13927TIP3    H263197   6.790   4.102   3.567  1.5361  0.6321  0.0123
13928TIP3   OH263198   5.592   5.624  11.041 -0.0575  0.3246 -0.1129
13928TIP3    H163199   5.592   5.713  11.076  0.6382 -0.5071  2.1746
13928TIP3    H263200   5.623   5.570  11.114 -3.8484 -2.2714 -0.1350
13929TIP3   OH263201   0.973   5.411   2.888 -0.0256 -0.1431  0.1102
13929TIP3    H163202   0.902   5.360   2.926  0.0548  0.3662  0.9634
13929TIP3    H263203   0.944   5.431   2.799 -0.8873 -0.0567  0.4082
13930TIP3   OH263204   1.047   4.290   4.449  0.1162 -0.0186 -0.6053
13930TIP3    H163205   1.114   4.358   4.460  0.4986 -0.4609 -0.1712
13930TIP3    H263206   1.011   4.306   4.362 -0.9832  1.7843  0.1134
13931TIP3   OH263207   2.849   5.615  11.336  0.0130  0.0968 -0.2780
13931TIP3    H163208   2.872   5.706  11.315  0.7444 -0.3829 -1.7274
13931TIP3    H263209   2.793   5.622  11.413 -2.3404  2.0431 -1.9523
13932TIP3   OH263210   2.517   5.150   1.693 -0.2672  0.1355 -0.1116
13932TIP3    H163211   2.611   5.163   1.683 -0.1460  1.1747  1.9485
13932TIP3    H263212   2.480   5.177   1.609  1.2750 -0.6889 -1.1014
13933TIP3   OH263213   4.232   0.256  15.485  0.5345  0.2727  0.3757
13933TIP3    H163214   4.277   0.182  15.526  0.5839  0.2015  0.1955
13933TIP3    H263215   4.249   0.329  15.544 -1.7248 -0.3924  1.9772
13934TIP3   OH263216   1.415   1.506  10.496  0.4907 -0.1167 -0.0452
13934TIP3    H163217   1.456   1.456  10.426  0.3833  0.4360 -0.5045
13934TIP3    H263218   1.321   1.504  10.476  0.3079 -1.1099  0.8303
13935TIP3   OH263219   4.334   3.368   2.983 -0.1287 -0.7965 -0.0159
13935TIP3    H163220   4.326   3.279   3.019  0.4896 -0.4460  1.0262
13935TIP3    H263221   4.250   3.384   2.939 -0.1557 -1.9772 -0.4287
13936TIP3   OH263222   0.307   6.377   1.003 -0.3167  0.5157  0.5337
13936TIP3    H163223   0.297   6.412   1.091 -3.1458 -0.8579  0.8656
13936TIP3    H263224   0.285   6.284   1.011 -0.5869  0.3426 -1.5888
13937TIP3   OH263225   2.752   4.264  12.117 -0.0404  0.2587  0.0672
13937TIP3    H163226   2.767   4.359  12.114 -0.2788  0.2629 -1.4176
13937TIP3    H263227   2.659   4.254  12.096 -0.0431 -0.3135  0.3243
13938TIP3   OH263228   6.513   6.020   4.659  0.6107  0.0651 -0.1679
13938TIP3    H163229   6.495   6.058   4.572 -1.1393  0.2074  0.2290
13938TIP3    H263230   6.582   6.076   4.695  0.4195  0.8298 -0.9482
13939TIP3   OH263231   2.455   3.662  11.940  0.3770  0.4591  0.1152
13939TIP3    H163232   2.511   3.709  12.002  0.8937  0.2146 -0.1642
13939TIP3    H263233   2.514   3.602  11.894 -0.1684 -0.0507  0.0578
13940TIP3   OH263234   5.584   6.571   0.615 -1.0166  0.9968  0.5420
13940TIP3    H163235   5.670   6.585   0.575 -0.2810  0.9730  2.0688
13940TIP3    H263236   5.593   6.488   0.662 -2.5960 -0.1820 -1.1083
13941TIP3   OH263237   2.598   0.604   1.123 -0.2479 -0.2642 -0.4536
13941TIP3    H163238   2.527   0.573   1.067 -0.3546  1.3648 -1.2729
13941TIP3    H263239   2.653   0.657   1.066  0.7957 -0.2491  0.5249
13942TIP3   OH263240   2.487   4.091  13.582  0.5362  0.2544  0.5818
13942TIP3    H163241   2.436   4.172  13.581 -1.2520 -0.7939 -0.8437
13942TIP3    H263242   2.445   4.037  13.650  0.3435 -0.2343  0.0904
13943TIP3   OH263243   1.028   3.352   0.433  0.2002  0.5221 -0.0841
13943TIP3    H163244   1.081   3.273   0.445 -0.3361  0.0403 -0.8215
13943TIP3    H263245   1.091   3.424   0.431  0.6829  0.1323  0.7183
13944TIP3   OH263246   3.686   4.602   2.478 -0.4216 -0.1330  0.1929
13944TIP3    H163247   3.642   4.552   2.547 -2.2406  0.2590 -0.6177
13944TIP3    H263248   3.671   4.693   2.501  2.1867  0.1011  1.2266
13945TIP3   OH263249   5.522   2.977  12.468  0.6149  0.1681 -0.2818
13945TIP3    H163250   5.584   2.923  12.518  0.7927 -0.4559 -1.1425
13945TIP3    H263251   5.504   2.925  12.390  0.7571  1.3579 -1.1259
13946TIP3   OH263252   3.782   0.692   2.880  0.0915  0.1223  0.9980
13946TIP3    H163253   3.873   0.718   2.868 -0.3084  1.2866  0.2620
13946TIP3    H263254   3.732   0.772   2.864 -1.0532 -0.4536  1.5643
13947TIP3   OH263255   0.257   1.620   0.899 -0.4694  0.1731 -0.2979
13947TIP3    H163256   0.176   1.665   0.922 -1.1408  0.9591 -3.7859
13947TIP3    H263257   0.229   1.539   0.856  0.6992 -1.1008  1.1957
13948TIP3   OH263258   3.712   0.435   2.897 -0.3002  0.6481 -0.4033
13948TIP3    H163259   3.644   0.431   2.964 -0.4247 -0.5944 -0.5682
13948TIP3    H263260   3.755   0.519   2.910 -1.7040  1.3548 -0.1342
13949TIP3   OH263261   4.749   3.169  15.260 -0.3531  0.1763  0.1630
13949TIP3    H163262   4.655   3.151  15.251 -0.4114 -0.6220  1.9165
13949TIP3    H263263   4.771   3.139  15.348  1.5276  0.5082 -0.1431
13950TIP3   OH263264   2.367   4.419   3.495 -0.0155 -0.1635 -0.5767
13950TIP3    H163265   2.375   4.427   3.590  0.1995 -0.6434 -0.5532
13950TIP3    H263266   2.290   4.363   3.482 -0.1114 -0.0070 -0.6915
13951TIP3   OH263267   6.121   3.699   0.802 -0.2184  0.3581 -0.4668
13951TIP3    H163268   6.084   3.614   0.825 -1.0221  1.0465  0.8824
13951TIP3    H263269   6.199   3.678   0.750 -1.7355 -1.1556 -2.2809
13952TIP3   OH263270   0.490   4.763   3.686 -0.1307  0.0875  0.7985
13952TIP3    H163271   0.496   4.764   3.781 -0.5439 -1.9429  0.8919
13952TIP3    H263272   0.426   4.695   3.666  1.5021 -1.0628 -0.9616
13953TIP3   OH263273   5.612   4.356   4.239 -0.3619 -0.3391 -0.4448
13953TIP3    H163274   5.537   4.415   4.244  0.3493  0.5403  0.4088
13953TIP3    H263275   5.688   4.415   4.234  0.3892 -1.1601  0.7145
13954TIP3   OH263276   5.046   2.815  11.069 -0.3202 -0.4427 -0.3572
13954TIP3    H163277   4.968   2.868  11.052 -1.4849 -1.1245  2.2480
13954TIP3    H263278   5.032   2.781  11.157  2.0581 -2.1898 -0.5665
13955TIP3   OH263279   3.774   5.449   0.760 -0.1822 -0.5609  0.2707
13955TIP3    H163280   3.710   5.379   0.772 -0.1140 -0.8991 -1.1857
13955TIP3    H263281   3.856   5.412   0.792 -0.3240 -0.8147  0.3457
13956TIP3   OH263282   4.826   6.722  14.351  0.3585  0.2207  0.0620
13956TIP3    H163283   4.859   6.694  14.436  0.7449 -0.0379 -0.1659
13956TIP3    H263284   4.840   6.646  14.294  1.0069  0.7196 -0.4616
13957TIP3   OH263285   1.912   1.111   2.844  0.7991  0.3370 -0.0155
13957TIP3    H163286   1.850   1.070   2.904  1.4480 -1.6609 -0.6353
13957TIP3    H263287   1.858   1.161   2.784 -0.1424 -0.5795  0.0461
13958TIP3   OH263288   5.044   7.142  13.086  0.3363  0.0670  0.2290
13958TIP3    H163289   5.079   7.059  13.119  2.3332 -0.2342 -2.3091
13958TIP3    H263290   4.973   7.117  13.028  2.3111 -0.1913 -2.2564
13959TIP3   OH263291   1.423   0.503  15.482 -0.2911  0.4631 -0.2880
13959TIP3    H163292   1.385   0.553  15.409  1.1627  1.2912 -0.5162
13959TIP3    H263293   1.353   0.499  15.547 -1.4358  0.1910 -1.4793
13960TIP3   OH263294   4.622   5.647   2.942 -0.3628 -0.1121  0.5529
13960TIP3    H163295   4.626   5.711   2.871  0.0642 -0.9222 -0.1615
13960TIP3    H263296   4.535   5.658   2.979 -1.8299 -1.7463 -2.0772
13961TIP3   OH263297   3.035   4.514  15.449 -0.2356 -0.5957 -0.2603
13961TIP3    H163298   3.065   4.603  15.464 -2.2646  0.1647 -0.4670
13961TIP3    H263299   3.084   4.485  15.372 -0.2942  0.7086 -0.8139
13962TIP3   OH263300   3.560   1.818   3.047 -0.7756 -0.3723  0.2667
13962TIP3    H163301   3.486   1.878   3.060 -0.2925  0.2370  0.2026
13962TIP3    H263302   3.572   1.816   2.952 -1.8405 -1.8577  0.1280
13963TIP3   OH263303   4.586   3.654   3.566 -0.1466  0.3777 -0.3995
13963TIP3    H163304   4.586   3.579   3.625  0.4740  0.6647 -0.0180
13963TIP3    H263305   4.623   3.620   3.484 -0.6171  0.0806 -0.4918
13964TIP3   OH263306   1.208   4.137   1.789  0.1846  0.4458 -0.6285
13964TIP3    H163307   1.300   4.132   1.816 -0.7917 -2.2636  3.0267
13964TIP3    H263308   1.174   4.214   1.833  0.1507 -0.0540  0.2356
13965TIP3   OH263309   6.445   1.873  15.268 -0.0063  0.2067  0.5755
13965TIP3    H163310   6.507   1.937  15.234  0.3411  0.0776  0.9582
13965TIP3    H263311   6.478   1.851  15.355 -0.5849  0.1255  0.7779
13966TIP3   OH263312   0.516   2.050   3.636  0.1420 -0.0089 -0.0113
13966TIP3    H163313   0.551   2.015   3.718  2.2535  2.9884  0.5751
13966TIP3    H263314   0.455   2.118   3.663 -1.8874 -1.3388 -1.0420
13967TIP3   OH263315   1.073   4.297  14.657 -0.0126  0.3250 -0.0481
13967TIP3    H163316   1.104   4.388  14.654 -0.9192  0.6276 -0.3997
13967TIP3    H263317   1.106   4.264  14.740 -0.0204  1.0972  0.2698
13968TIP3   OH263318   1.166   3.207   4.695 -0.2545 -0.2551 -0.3470
13968TIP3    H163319   1.076   3.197   4.729 -0.9967 -0.3808 -2.2286
13968TIP3    H263320   1.162   3.169   4.607  1.9331 -1.1877 -0.0864
13969TIP3   OH263321   6.830   6.674   3.937  0.3360  0.1440 -0.4306
13969TIP3    H163322   6.830   6.597   3.881  0.4562  0.4412 -0.8466
13969TIP3    H263323   6.785   6.647   4.017  3.2149 -1.3878  0.8339
13970TIP3   OH263324   3.301   6.180   4.752 -1.0359 -0.0615  0.3373
13970TIP3    H163325   3.376   6.238   4.744  0.3999 -2.1055 -2.8453
13970TIP3    H263326   3.228   6.238   4.774  1.0872  2.1995  2.0043
13971TIP3   OH263327   0.995   3.694  13.781  0.0420 -0.2017 -0.3883
13971TIP3    H163328   1.033   3.651  13.703 -1.7796 -0.8720 -0.9585
13971TIP3    H263329   0.905   3.661  13.784 -0.0291  0.1076  1.8153
13972TIP3   OH263330   3.434   2.556  11.726  0.1945  0.3293 -0.5976
13972TIP3    H163331   3.396   2.604  11.652 -0.3100 -1.0653 -1.2748
13972TIP3    H263332   3.424   2.464  11.702 -1.7664 -0.2597  2.0691
13973TIP3   OH263333   0.327   3.851   5.767 -0.9765  0.4290 -0.7620
13973TIP3    H163334   0.421   3.843   5.777 -0.4018  3.6556 -2.0822
13973TIP3    H263335   0.295   3.761   5.762  1.9402 -0.7683  0.1756
13974TIP3   OH263336   3.245   3.981   2.906 -0.0252 -0.0452 -0.2312
13974TIP3    H163337   3.213   4.064   2.872  0.5925  0.1447 -0.3716
13974TIP3    H263338   3.287   4.004   2.989  1.8530  0.1145 -1.1664
13975TIP3   OH263339   5.509   5.907   3.703 -0.0963  0.8882 -0.4935
13975TIP3    H163340   5.426   5.914   3.657  0.6156  0.6705 -1.8760
13975TIP3    H263341   5.565   5.972   3.660  1.2637 -0.8372 -1.4759
13976TIP3   OH263342   0.054   1.088   4.464  0.0183 -0.5774  0.2985
13976TIP3    H163343   0.000   1.109   4.388 -0.2598 -2.3623 -0.0426
13976TIP3    H263344   0.128   1.149   4.459 -2.1233  2.2642  1.0476
13977TIP3   OH263345   3.344   1.227  12.369 -0.0492 -0.1803  0.1434
13977TIP3    H163346   3.425   1.208  12.320 -0.2867  1.1106 -0.8002
13977TIP3    H263347   3.276   1.228  12.302 -0.5873  0.3778  0.6971
13978TIP3   OH263348   5.175   0.935   2.872  0.2974 -0.5248  0.3827
13978TIP3    H163349   5.115   0.860   2.879 -1.8302  1.0769  0.4548
13978TIP3    H263350   5.130   1.005   2.920  2.1889  0.8291  0.2655
13979TIP3   OH263351   2.949   0.426  14.245  0.1360 -0.0369 -0.0562
13979TIP3    H163352   2.940   0.516  14.276 -0.5228 -0.3104  0.5860
13979TIP3    H263353   2.972   0.375  14.323  1.3163 -0.3118 -0.5610
13980TIP3   OH263354   1.130   4.236   1.401 -0.0486  0.2369 -0.1627
13980TIP3    H163355   1.122   4.178   1.478  0.0002  0.5280  0.0642
13980TIP3    H263356   1.045   4.229   1.357 -0.2962  0.5358  0.2575
13981TIP3   OH263357   6.991   0.094   1.750 -0.6466  0.1311 -0.4270
13981TIP3    H163358   7.038   0.070   1.830 -1.6741  0.4209  0.2742
13981TIP3    H263359   6.906   0.127   1.780 -0.6794  1.1737 -1.5805
13982TIP3   OH263360   4.513   0.153   2.523  0.1896  0.4421 -0.2647
13982TIP3    H163361   4.555   0.115   2.446  1.1301 -1.7766  1.2570
13982TIP3    H263362   4.452   0.086   2.554  0.0304  1.1662  1.0926
13983TIP3   OH263363   3.551   1.647  10.097  0.3404 -0.2266  0.0679
13983TIP3    H163364   3.513   1.729  10.065 -1.0220  0.6550  3.4754
13983TIP3    H263365   3.477   1.586  10.097  0.1609 -0.0550  1.7798
13984TIP3   OH263366   3.815   6.976   3.505 -0.1454 -0.4770 -0.0160
13984TIP3    H163367   3.770   6.984   3.589  0.7134  2.0766  0.2710
13984TIP3    H263368   3.891   6.921   3.523 -0.1665 -0.2421  0.8025
13985TIP3   OH263369   3.522   0.915   0.932  0.5909  0.6718 -0.7476
13985TIP3    H163370   3.570   0.991   0.901  0.2489  0.4847 -1.8029
13985TIP3    H263371   3.430   0.937   0.917  0.5348 -0.4251 -2.3105
13986TIP3   OH263372   4.679   3.707   0.813 -0.1994 -0.3030 -0.9074
13986TIP3    H163373   4.703   3.772   0.747  1.0729 -0.4393 -0.6057
13986TIP3    H263374   4.668   3.625   0.763 -0.8561 -0.0759 -1.1526
13987TIP3   OH263375   0.519   2.451   4.175 -0.1168 -0.2385  0.4773
13987TIP3    H163376   0.562   2.464   4.260  3.6397  0.1293 -1.2983
13987TIP3    H263377   0.548   2.525   4.122 -0.9547 -1.3466 -1.6371
13988TIP3   OH263378   1.391   5.311   0.518 -0.4504 -0.0008  0.4192
13988TIP3    H163379   1.355   5.233   0.561 -0.4522 -1.1178 -1.5194
13988TIP3    H263380   1.326   5.379   0.536 -0.7861 -0.5904  1.5859
13989TIP3   OH263381   2.943   3.203   4.725 -0.7473 -0.4439  0.2307
13989TIP3    H163382   3.021   3.225   4.674 -1.4940  2.3864  0.1776
13989TIP3    H263383   2.870   3.217   4.665 -1.5061  0.9113  1.4116
13990TIP3   OH263384   2.530   2.441  13.582  0.3867 -0.1200 -0.3615
13990TIP3    H163385   2.439   2.414  13.598  0.0296  1.6178  0.9212
13990TIP3    H263386   2.529   2.482  13.496  0.0019 -0.3861 -0.4814
13991TIP3   OH263387   5.659   1.194  10.981 -0.0960  0.4177  0.8248
13991TIP3    H163388   5.711   1.271  10.958  0.0563  0.0249 -0.1934
13991TIP3    H263389   5.573   1.211  10.944 -0.1385  0.2162  0.8296
13992TIP3   OH263390   6.068   1.846   4.640  0.5363 -0.2053 -0.2060
13992TIP3    H163391   5.990   1.902   4.629  1.2515  0.5129 -1.9996
13992TIP3    H263392   6.108   1.843   4.553  1.2754 -2.4619  0.1429
13993TIP3   OH263393   4.854   3.285  11.628 -0.6268 -0.3611 -0.3897
13993TIP3    H163394   4.852   3.194  11.655  1.3696 -1.1091 -2.4019
13993TIP3    H263395   4.887   3.283  11.538 -0.4845  2.3542 -0.5013
13994TIP3   OH263396   3.054   4.592   3.438  0.0158 -0.3743  0.4095
13994TIP3    H163397   3.052   4.687   3.428  1.7946 -0.3459 -0.0679
13994TIP3    H263398   2.963   4.567   3.455 -0.7130  1.2657 -0.8280
13995TIP3   OH263399   4.472   3.288   5.061  0.0840 -0.3470  0.0702
13995TIP3    H163400   4.385   3.248   5.061 -0.1550  0.1590 -0.5334
13995TIP3    H263401   4.516   3.250   5.137 -0.2125 -1.5742 -0.3545
13996TIP3   OH263402   2.493   2.187   3.439 -0.8349 -0.2956  0.6970
13996TIP3    H163403   2.554   2.114   3.439 -0.7343 -0.2725 -1.3845
13996TIP3    H263404   2.549   2.265   3.444 -0.7855 -0.3031  0.2473
13997TIP3   OH263405   5.470   3.700  15.417 -0.1023  0.1233  0.2725
13997TIP3    H163406   5.442   3.719  15.506 -1.4652  1.7524 -0.4436
13997TIP3    H263407   5.390   3.680  15.370  0.4395  0.5342 -0.8665
13998TIP3   OH263408   2.822   4.908   5.726 -0.0747  0.1188 -0.2777
13998TIP3    H163409   2.847   4.986   5.676  1.3553  0.0322  0.2583
13998TIP3    H263410   2.905   4.869   5.753 -0.7943 -0.7915  0.7082
13999TIP3   OH263411   6.127   3.756   2.294 -0.4502 -0.4394  0.6341
13999TIP3    H163412   6.210   3.722   2.262 -0.5342  1.4681 -1.8940
13999TIP3    H263413   6.075   3.678   2.315  1.2622 -1.6900  0.4010
14000TIP3   OH263414   1.995   2.750  14.276 -0.1736 -0.2925  0.3519
14000TIP3    H163415   1.915   2.716  14.316 -1.8473 -0.7740 -3.0166
14000TIP3    H263416   2.051   2.674  14.265 -1.1510 -0.8508 -1.1633
14001TIP3   OH263417   0.565   3.685   1.377  0.4126  0.3487  0.5152
14001TIP3    H163418   0.588   3.768   1.334  3.7935 -0.0420  1.2879
14001TIP3    H263419   0.584   3.618   1.311  0.8178  0.0478  0.9267
14002TIP3   OH263420   1.107   4.355   3.769 -0.2249  0.2982  0.1846
14002TIP3    H163421   1.091   4.446   3.791  2.6800  1.0448 -0.3263
14002TIP3    H263422   1.175   4.358   3.701 -0.0047 -2.2297  0.1749
14003TIP3   OH263423   0.322   4.979   2.703 -0.1212 -0.5413 -0.0194
14003TIP3    H163424   0.271   5.001   2.781 -1.8593 -0.4790 -1.1177
14003TIP3    H263425   0.374   4.903   2.729 -0.9059 -0.7285  1.0897
14004TIP3   OH263426   2.909   5.077  13.315 -0.7580  0.6104 -0.6070
14004TIP3    H163427   2.911   5.159  13.364 -0.1823 -1.4202  3.1358
14004TIP3    H263428   2.997   5.041  13.325 -1.7193 -1.6917  0.3013
14005TIP3   OH263429   6.285   6.735   0.757 -0.6161 -0.4807  0.1065
14005TIP3    H163430   6.365   6.789   0.763  0.3246 -1.2348 -3.5646
14005TIP3    H263431   6.214   6.798   0.770  0.5046  0.8869 -0.0462
14006TIP3   OH263432   1.396   1.525  11.147  0.3676  0.4732  0.4494
14006TIP3    H163433   1.490   1.526  11.135  0.3362  0.2541  0.1606
14006TIP3    H263434   1.372   1.616  11.164  0.7662  0.3728  1.6605
14007TIP3   OH263435   5.475   6.789  15.385 -0.4270 -0.1000  0.7394
14007TIP3    H163436   5.454   6.860  15.324 -0.0866 -1.0916 -0.5747
14007TIP3    H263437   5.410   6.797  15.455  0.2879  2.1736  1.2187
14008TIP3   OH263438   3.384   6.063   3.150 -0.1405 -0.0836  0.2609
14008TIP3    H163439   3.320   5.999   3.183  0.3624  0.1965  1.8815
14008TIP3    H263440   3.334   6.144   3.140 -0.6046 -0.5132 -1.0408
14009TIP3   OH263441   0.810   0.503   2.370 -0.3039 -0.4117 -0.1989
14009TIP3    H163442   0.826   0.409   2.359 -0.8374 -0.5374  0.0725
14009TIP3    H263443   0.734   0.521   2.315 -2.6064 -0.9121  2.5461
14010TIP3   OH263444   4.987   1.888   1.408  0.2506 -0.3089  0.0042
14010TIP3    H163445   5.023   1.882   1.496 -0.6310 -1.3125  0.3137
14010TIP3    H263446   4.934   1.809   1.398 -1.1581  0.6833 -0.7436
14011TIP3   OH263447   2.076   2.090   3.051  0.4911  0.0918  0.1869
14011TIP3    H163448   2.050   2.002   3.078  0.1311  0.4415  1.0415
14011TIP3    H263449   2.097   2.135   3.133 -2.1569  1.6849  0.1156
14012TIP3   OH263450   2.944   0.204   2.683  0.3660  0.0400  0.2955
14012TIP3    H163451   3.034   0.228   2.706  0.7317  0.9740 -1.9088
14012TIP3    H263452   2.907   0.171   2.765  1.8919  2.1162  1.9502
14013TIP3   OH263453   2.021   0.888   2.911 -0.0333 -0.5955  0.1304
14013TIP3    H163454   1.957   0.821   2.890 -0.0896 -0.2065 -1.0107
14013TIP3    H263455   2.006   0.957   2.847 -0.5636  0.9305  1.7996
14014TIP3   OH263456   2.727   3.497   4.089 -0.0302  0.4357 -0.3620
14014TIP3    H163457   2.797   3.558   4.107  0.9544 -0.8157  0.2041
14014TIP3    H263458   2.758   3.447   4.013 -2.2382  2.7335 -3.0261
14015TIP3   OH263459   7.143   6.139   4.538 -0.4248  0.3121 -0.3435
14015TIP3    H163460   7.170   6.090   4.460 -0.3534  1.2828 -0.9442
14015TIP3    H263461   7.057   6.104   4.561 -0.5983  0.2519 -1.0707
14016TIP3   OH263462   3.021   7.110   2.297  0.3654 -0.2402  0.3692
14016TIP3    H163463   3.043   7.050   2.226 -0.9228  0.4234 -0.6417
14016TIP3    H263464   3.097   7.167   2.305  0.5025 -0.2975 -0.5047
14017TIP3   OH263465   0.501   0.640   3.673 -0.4722  0.4566  0.3351
14017TIP3    H163466   0.484   0.558   3.627 -1.0548  2.2416 -2.9409
14017TIP3    H263467   0.596   0.652   3.669 -0.2328 -0.5969  1.9824
14018TIP3   OH263468   3.331   4.052   4.129 -0.1339  0.1190  0.0753
14018TIP3    H163469   3.260   4.032   4.067 -1.4832  1.9110  0.9847
14018TIP3    H263470   3.411   4.030   4.080 -1.1970  0.2172 -1.8271
14019TIP3   OH263471   2.305   4.006   1.577  0.3446  0.6126  0.1226
14019TIP3    H163472   2.379   4.064   1.559  0.1312  0.4404 -1.4683
14019TIP3    H263473   2.321   3.929   1.522 -0.0776 -0.2528  1.1708
14020TIP3   OH263474   1.034   3.300  10.478  0.1308 -0.0865  0.2242
14020TIP3    H163475   0.974   3.269  10.411  3.1671 -1.1100 -2.2568
14020TIP3    H263476   1.030   3.396  10.472  0.2716 -0.1593 -1.4155
14021TIP3   OH263477   2.395   3.821   0.469  0.0690  0.1467 -0.2689
14021TIP3    H163478   2.300   3.818   0.459 -0.0120  0.7909  0.2697
14021TIP3    H263479   2.422   3.729   0.469 -0.5151 -0.0300 -0.7288
14022TIP3   OH263480   5.362   0.566  13.697 -0.8354  0.2068  0.1814
14022TIP3    H163481   5.283   0.526  13.660  0.8984 -1.5064 -1.9333
14022TIP3    H263482   5.335   0.656  13.717 -3.4526 -0.4648  0.0964
14023TIP3   OH263483   0.751   6.883   3.621 -0.1323 -0.1869 -0.2067
14023TIP3    H163484   0.735   6.866   3.528  0.6841 -0.3239 -0.3223
14023TIP3    H263485   0.788   6.971   3.623  1.3149 -0.7747 -0.1639
14024TIP3   OH263486   5.892   1.154   2.957 -0.2971  0.3257  0.0702
14024TIP3    H163487   5.845   1.215   2.900 -1.6167  0.2206  0.9953
14024TIP3    H263488   5.870   1.183   3.046  0.9959 -0.0523  0.5380
14025TIP3   OH263489   1.379   1.680   2.066  0.4453 -0.5212 -0.1354
14025TIP3    H163490   1.329   1.614   2.114 -0.6401  0.3346 -0.0413
14025TIP3    H263491   1.343   1.764   2.096  1.5054  0.1122 -0.5543
14026TIP3   OH263492   2.475   2.574  13.347  0.5648  0.9450  0.0925
14026TIP3    H163493   2.472   2.670  13.349 -0.0497  0.9742 -1.1720
14026TIP3    H263494   2.494   2.553  13.256 -0.7130 -0.1584  0.0558
14027TIP3   OH263495   1.853   6.896   4.526  0.4114  0.2707 -0.5468
14027TIP3    H163496   1.861   6.834   4.598 -0.0784  0.7407 -0.0801
14027TIP3    H263497   1.809   6.972   4.564 -0.6868  0.1723 -1.5440
14028TIP3   OH263498   0.622   4.134   0.803 -0.2198  0.0339  0.6336
14028TIP3    H163499   0.685   4.068   0.831  0.8581  0.5398 -0.5183
14028TIP3    H263500   0.564   4.087   0.743  0.6677  0.1509 -0.3419
14029TIP3   OH263501   1.480   0.669   4.035  0.3248 -0.0381  0.4811
14029TIP3    H163502   1.546   0.733   4.011 -0.7015  0.6535 -0.6072
14029TIP3    H263503   1.529   0.587   4.047  1.2184  0.0670 -1.8979
14030TIP3   OH263504   1.521   0.460   1.818 -0.2544 -0.6258  0.0818
14030TIP3    H163505   1.488   0.379   1.778 -0.8894 -0.5286  0.3980
14030TIP3    H263506   1.530   0.440   1.911 -0.4264 -0.3317  0.1641
14031TIP3   OH263507   5.863   6.513  12.693  0.2170 -0.2682  0.2947
14031TIP3    H163508   5.772   6.496  12.669  1.0069 -2.6084 -1.5415
14031TIP3    H263509   5.912   6.443  12.649  2.9041  0.8913  1.2406
14032TIP3   OH263510   2.869   3.657  12.770 -0.0992 -0.3070 -0.3491
14032TIP3    H163511   2.956   3.694  12.782 -0.1117 -0.3936  0.0166
14032TIP3    H263512   2.880   3.591  12.702  0.2103 -0.6229  0.0039
14033TIP3   OH263513   6.875   2.775   3.118  0.1335 -0.1693 -0.1248
14033TIP3    H163514   6.970   2.764   3.120  0.2336  0.5564  2.5662
14033TIP3    H263515   6.842   2.709   3.179 -0.7979  1.5917  1.3504
14034TIP3   OH263516   4.165   2.697  13.901 -0.4433  0.1404 -0.4821
14034TIP3    H163517   4.097   2.764  13.896  0.0041  0.9082  2.2943
14034TIP3    H263518   4.247   2.745  13.891  0.0314  0.5967  3.7714
14035TIP3   OH263519   0.024   5.686   4.112 -0.1872 -0.1623  0.8093
14035TIP3    H163520   0.032   5.777   4.141 -0.1764  0.2209 -0.3258
14035TIP3    H263521   0.004   5.693   4.018  3.1231 -1.3467 -0.0909
14036TIP3   OH263522   4.787   5.691  15.311  0.2804 -0.4604  0.6380
14036TIP3    H163523   4.801   5.612  15.363 -1.2096 -0.2903  1.3426
14036TIP3    H263524   4.873   5.710  15.273  0.9227 -1.7571  1.3772
14037TIP3   OH263525   1.682   4.412   3.304 -0.2972 -0.2764 -0.2838
14037TIP3    H163526   1.615   4.477   3.323  1.1871  1.1703  0.2208
14037TIP3    H263527   1.718   4.389   3.389 -1.0659 -2.1280 -0.4075
14038TIP3   OH263528   6.432   6.805   4.315 -0.3445  0.0936 -0.4147
14038TIP3    H163529   6.407   6.775   4.403 -1.1236  1.4199 -0.1510
14038TIP3    H263530   6.505   6.865   4.330  1.4927 -1.8892 -0.9726
14039TIP3   OH263531   3.386   0.735  12.856 -0.2195 -0.3974 -0.9230
14039TIP3    H163532   3.450   0.805  12.842 -2.5106  1.8818 -0.8632
14039TIP3    H263533   3.324   0.772  12.918  0.3110 -3.8754  2.0201
14040TIP3   OH263534   3.976   0.947   2.261 -0.6213  0.2480 -0.1301
14040TIP3    H163535   3.929   1.030   2.270 -1.7013 -0.3578 -0.0169
14040TIP3    H263536   3.990   0.938   2.167 -1.4951  0.0360 -0.2478
14041TIP3   OH263537   2.488   0.990   2.187 -0.0440 -0.4959  0.2298
14041TIP3    H163538   2.495   0.922   2.253 -0.5925 -0.9458 -0.1654
14041TIP3    H263539   2.554   0.968   2.121 -0.2482 -0.6738  0.0824
14042TIP3   OH263540   6.474   4.989   4.484 -0.9149  0.1058  0.3083
14042TIP3    H163541   6.565   4.986   4.514 -0.5167  0.4573 -0.8297
14042TIP3    H263542   6.476   5.044   4.406 -1.7623 -1.5771 -0.9502
14043TIP3   OH263543   4.355   4.864   5.262  0.2961 -0.0928 -0.3248
14043TIP3    H163544   4.426   4.924   5.241 -1.0372  1.4530 -0.6208
14043TIP3    H263545   4.279   4.920   5.277 -0.5995 -1.6032  1.2170
14044TIP3   OH263546   1.460   4.669  10.444 -0.0518 -0.3440  0.0810
14044TIP3    H163547   1.478   4.597  10.505  1.7883  1.1535  1.4254
14044TIP3    H263548   1.546   4.702  10.419 -0.7141  3.0644  1.6447
14045TIP3   OH263549   2.240   0.461   4.550 -0.3720  0.2657 -0.8336
14045TIP3    H163550   2.275   0.496   4.468 -1.2710  0.8099 -0.9938
14045TIP3    H263551   2.180   0.391   4.523 -2.0848  1.6354 -0.7807
14046TIP3   OH263552   6.323   0.820   3.658  0.3850  0.3305  0.3254
14046TIP3    H163553   6.333   0.764   3.582  2.5818 -0.3004  0.9869
14046TIP3    H263554   6.353   0.906   3.629  0.6239  0.2406  0.3035
14047TIP3   OH263555   0.305   4.060  15.314  0.0650 -0.1161  0.8407
14047TIP3    H163556   0.348   4.097  15.391 -1.4860  1.3315  1.0757
14047TIP3    H263557   0.213   4.052  15.340 -0.6611  1.1890 -1.0925
14048TIP3   OH263558   1.180   1.636   1.229 -0.2546 -0.2980 -0.0456
14048TIP3    H163559   1.147   1.556   1.187  1.5030 -0.0753 -2.0694
14048TIP3    H263560   1.231   1.605   1.303 -1.9081 -0.8337  0.9175
14049TIP3   OH263561   1.815   6.581  12.758 -0.6364 -0.3073  0.1125
14049TIP3    H163562   1.892   6.556  12.809 -0.6097 -0.8134 -0.1680
14049TIP3    H263563   1.841   6.565  12.667 -0.4797  1.1203 -0.1121
14050TIP3   OH263564   1.784   5.875   1.311  0.1901 -0.1358 -0.8155
14050TIP3    H163565   1.749   5.853   1.398 -0.3504 -1.0885 -1.2626
14050TIP3    H263566   1.851   5.810   1.294 -1.6435 -1.7755 -2.2817
14051TIP3   OH263567   7.134   0.338  11.593 -0.2666  0.0248  0.0623
14051TIP3    H163568   7.222   0.369  11.568  0.0055 -1.8833 -1.5985
14051TIP3    H263569   7.074   0.400  11.550  0.2549  0.2877 -0.3030
14052TIP3   OH263570   3.859   1.100   0.915  0.2664 -0.2945  0.8693
14052TIP3    H163571   3.868   1.048   0.995  2.4107 -0.6225  0.4682
14052TIP3    H263572   3.853   1.035   0.845  3.1077 -0.1162  0.3480
14053TIP3   OH263573   3.427   4.082   3.401 -0.6922 -0.0873 -1.1620
14053TIP3    H163574   3.361   4.017   3.421 -1.2033  0.3909 -1.2753
14053TIP3    H263575   3.510   4.033   3.401 -0.8091 -0.3835  0.7482
14054TIP3   OH263576   2.348   1.595  12.682  0.5545  0.4649 -0.0540
14054TIP3    H163577   2.360   1.673  12.736 -0.0888  1.7334 -1.6715
14054TIP3    H263578   2.432   1.582  12.639  0.2001  1.2614 -1.0202
14055TIP3   OH263579   0.344   6.355  12.815 -0.6439 -0.2344  0.1484
14055TIP3    H163580   0.341   6.283  12.878 -0.5331  0.4474  0.9395
14055TIP3    H263581   0.277   6.417  12.844 -0.0933  0.4332  0.0295
14056TIP3   OH263582   6.587   6.051   5.265 -0.2728 -0.0015 -0.6581
14056TIP3    H163583   6.678   6.025   5.256 -0.3911 -0.5263 -0.4166
14056TIP3    H263584   6.584   6.143   5.239  0.3236  0.0181 -0.6505
14057TIP3   OH263585   4.499   6.249  13.267 -0.1210 -0.0856  0.4400
14057TIP3    H163586   4.456   6.326  13.305 -1.6031 -0.8504  0.4132
14057TIP3    H263587   4.532   6.279  13.182 -3.5206 -0.1657 -1.0781
14058TIP3   OH263588   5.951   1.172   4.615  0.4202  1.1153 -0.2895
14058TIP3    H163589   5.969   1.227   4.539 -0.0190  1.5830 -0.0590
14058TIP3    H263590   5.948   1.083   4.580  2.3859  1.0885 -0.4603
14059TIP3   OH263591   6.602   3.760   2.869  0.3575 -0.5542 -0.2075
14059TIP3    H163592   6.597   3.855   2.869 -0.0331 -0.5699 -0.4234
14059TIP3    H263593   6.558   3.734   2.950 -1.1534 -0.6085 -1.0113
14060TIP3   OH263594   6.222   5.372   3.218 -0.2748  0.2607  0.1060
14060TIP3    H163595   6.131   5.377   3.188 -0.7845  0.0742  1.5431
14060TIP3    H263596   6.234   5.452   3.271 -0.6533 -1.2142  2.5809
14061TIP3   OH263597   4.920   0.367   4.787 -0.2860  0.0859 -0.2883
14061TIP3    H163598   4.971   0.446   4.804  2.0925 -0.9883 -1.8032
14061TIP3    H263599   4.866   0.390   4.711  0.2672  0.3595 -0.6130
14062TIP3   OH263600   0.050   3.017   1.608  0.0865  0.2942 -0.1096
14062TIP3    H163601   0.111   2.960   1.561  1.1930  0.7895  0.6653
14062TIP3    H263602   0.063   3.103   1.569  0.2381  0.4958  0.3784
14063TIP3   OH263603   2.363   0.508   0.763  0.2330 -0.1079 -0.3117
14063TIP3    H163604   2.338   0.493   0.853  1.0893  0.4022  0.0273
14063TIP3    H263605   2.412   0.591   0.765  2.4428 -1.3014 -0.8002
14064TIP3   OH263606   0.425   3.286   1.469 -0.1615 -0.3517  0.6675
14064TIP3    H163607   0.477   3.209   1.447 -2.2027 -1.5015 -0.4134
14064TIP3    H263608   0.488   3.358   1.471  1.3587 -1.5317 -1.4053
14065TIP3   OH263609   0.261   4.546   3.866 -0.5968  0.2612 -0.3293
14065TIP3    H163610   0.318   4.520   3.794  0.1850 -0.6312  0.5856
14065TIP3    H263611   0.313   4.608   3.916  0.0251 -1.3446  1.0971
14066TIP3   OH263612   4.347   0.973   1.605 -0.0171  0.0187 -0.8343
14066TIP3    H163613   4.338   1.032   1.530  1.2397  0.2731 -0.7994
14066TIP3    H263614   4.439   0.979   1.630 -0.4408  0.0751  0.8478
14067TIP3   OH263615   2.046   4.620  13.730  0.2616 -0.6223 -0.3421
14067TIP3    H163616   2.087   4.706  13.734 -2.1424  0.6154 -0.2495
14067TIP3    H263617   2.070   4.586  13.643 -1.3026  1.6075 -1.7667
14068TIP3   OH263618   3.436   6.411   1.225 -0.1595 -0.0780  0.3026
14068TIP3    H163619   3.453   6.333   1.278 -0.2028  0.3389  0.9483
14068TIP3    H263620   3.342   6.407   1.207  0.1563 -1.2038 -1.3659
14069TIP3   OH263621   4.915   0.622   2.618  0.5014 -0.1372 -0.1299
14069TIP3    H163622   4.877   0.558   2.678  0.3223  0.0531 -0.0373
14069TIP3    H263623   4.846   0.638   2.554  0.2375  0.5835  0.3250
14070TIP3   OH263624   0.834   2.759   2.391  0.5703  0.2160  0.3208
14070TIP3    H163625   0.851   2.665   2.392  1.7911  0.4098 -0.2563
14070TIP3    H263626   0.908   2.798   2.438 -0.7912  0.7992  2.0884
14071TIP3   OH263627   0.881   4.303   3.615 -0.2928  0.2965 -0.5243
14071TIP3    H163628   0.801   4.297   3.667  0.5986  1.4748  1.0691
14071TIP3    H263629   0.952   4.306   3.679  0.7663  3.7719 -1.6373
14072TIP3   OH263630   3.974   0.106   4.355  0.2322  0.2289  0.1104
14072TIP3    H163631   3.907   0.128   4.420 -0.1381  0.6315 -0.3960
14072TIP3    H263632   3.933   0.126   4.271  0.6158 -0.5208 -0.2639
14073TIP3   OH263633   3.318   3.663   4.805 -0.0260 -0.3761 -0.4837
14073TIP3    H163634   3.331   3.575   4.841  2.2354  0.4568  0.9336
14073TIP3    H263635   3.400   3.709   4.824 -1.3391  2.2160 -0.7011
14074TIP3   OH263636   2.026   2.756   3.535 -0.0346 -0.4001  0.2875
14074TIP3    H163637   2.057   2.665   3.531 -2.2481 -1.4885  3.3874
14074TIP3    H263638   2.095   2.803   3.581  0.1745 -1.0781  0.6942
14075TIP3   OH263639   1.621   0.035   0.377 -0.0309 -0.0801  0.6052
14075TIP3    H163640   1.661  -0.050   0.390  0.6423 -0.1700 -1.5798
14075TIP3    H263641   1.613   0.043   0.282 -0.4410  2.1192  0.7727
14076TIP3   OH263642   4.243   1.572   4.311  0.1139 -0.2201 -0.0282
14076TIP3    H163643   4.201   1.506   4.367  1.1591  0.6553  1.9105
14076TIP3    H263644   4.335   1.547   4.308  0.1297 -0.0768 -1.1538
14077TIP3   OH263645   3.454   1.102   2.531  0.4341  0.4686 -0.6339
14077TIP3    H163646   3.497   1.177   2.573  2.2094  0.6378 -2.5332
14077TIP3    H263647   3.527   1.048   2.501 -0.7990 -0.9857 -1.0868
14078TIP3   OH263648   6.616   1.190   5.560  0.1909  0.1339  0.0572
14078TIP3    H163649   6.600   1.190   5.654  1.2188 -0.8575  0.2627
14078TIP3    H263650   6.709   1.168   5.552  0.0507 -0.0901 -1.1935
14079TIP3   OH263651   6.592   1.116   1.678 -0.7414 -0.1019 -0.0109
14079TIP3    H163652   6.561   1.205   1.663  0.2158 -0.0741 -2.3319
14079TIP3    H263653   6.512   1.064   1.688 -1.3340  0.8872  0.5141
14080TIP3   OH263654   4.411   1.234   1.942 -0.0876 -0.2212  0.2626
14080TIP3    H163655   4.468   1.304   1.973  1.8243 -0.3682 -2.6027
14080TIP3    H263656   4.332   1.279   1.911 -0.4538  0.2393  1.7581
14081TIP3   OH263657   4.256   1.512   3.992  0.0418  0.1726  0.4144
14081TIP3    H163658   4.282   1.421   3.981 -0.1574  0.3571 -2.3321
14081TIP3    H263659   4.335   1.556   4.024  0.2057 -0.8787  1.5201
14082TIP3   OH263660   0.259   6.666   4.299  0.2117 -0.0348  0.2157
14082TIP3    H163661   0.229   6.581   4.265  0.6707  0.9216 -2.9164
14082TIP3    H263662   0.240   6.662   4.392  0.9646 -3.9184  0.4026
14083TIP3   OH263663   4.013   1.756   5.261 -0.6822 -0.1135  0.1822
14083TIP3    H163664   3.972   1.728   5.344 -4.0470  2.4260 -0.4057
14083TIP3    H263665   3.948   1.733   5.194  0.4928  0.8689 -1.3566
14084TIP3   OH263666   2.544   5.586   2.819  0.2479 -0.6918  0.2869
14084TIP3    H163667   2.521   5.498   2.849  1.3037 -1.3087 -0.6445
14084TIP3    H263668   2.618   5.573   2.760  0.1213  0.7799 -0.2423
14085TIP3   OH263669   4.920   0.121   4.345  0.3431  0.3020 -0.7748
14085TIP3    H163670   4.837   0.139   4.301  0.3094  2.5353  0.0744
14085TIP3    H263671   4.895   0.083   4.429  0.3715 -2.6709 -1.9934
14086TIP3   OH263672   0.623   7.080  13.485 -0.0934 -0.6218 -0.2706
14086TIP3    H163673   0.647   7.120  13.569 -1.6606 -1.0256  0.4030
14086TIP3    H263674   0.607   6.988  13.506 -1.7235 -0.4754 -0.7285
14087TIP3   OH263675   1.810   6.203   4.610 -0.5256  0.3416  0.0995
14087TIP3    H163676   1.768   6.144   4.548 -0.7047  1.2105 -0.6274
14087TIP3    H263677   1.879   6.150   4.651 -0.1472 -0.1338 -1.1131
14088TIP3   OH263678   6.327   2.863  11.792 -0.6344 -0.1603  0.0778
14088TIP3    H163679   6.330   2.835  11.883  0.0573 -1.1505 -0.2316
14088TIP3    H263680   6.264   2.935  11.790 -0.9549 -0.4035  1.2542
14089TIP3   OH263681   4.209   0.932   5.338  0.0131 -0.6200  0.0846
14089TIP3    H163682   4.201   0.845   5.378 -2.0998 -0.5044  0.0012
14089TIP3    H263683   4.198   0.993   5.411  2.1666 -0.3410  0.2650
14090TIP3   OH263684   1.622   1.298   2.101  0.4939  0.3796 -0.0231
14090TIP3    H163685   1.653   1.265   2.185  0.5281  0.5725  0.0406
14090TIP3    H263686   1.622   1.221   2.044  0.3821  0.2311  0.1773
14091TIP3   OH263687   1.765   1.043   5.224  0.0077  0.0818 -0.0616
14091TIP3    H163688   1.804   0.956   5.218 -0.7610 -0.3864  1.2674
14091TIP3    H263689   1.761   1.061   5.318 -0.6628  1.1748 -0.2785
14092TIP3   OH263690   3.249   7.111   5.909  0.1322  0.2412  0.2988
14092TIP3    H163691   3.288   7.094   5.823  1.0758 -0.4958  0.8543
14092TIP3    H263692   3.300   7.184   5.944  0.6272 -0.3294  0.7774
14093TIP3   OH263693   4.040   1.472  12.444  0.5800 -0.4771  0.2565
14093TIP3    H163694   4.085   1.482  12.360  0.6973 -1.2473  0.2216
14093TIP3    H263695   4.052   1.380  12.467  0.0544 -0.4082  0.8363
14094TIP3   OH263696   2.806   1.377  13.898 -0.2436 -0.1411 -0.4848
14094TIP3    H163697   2.844   1.435  13.832 -0.1397 -0.9791 -1.1882
14094TIP3    H263698   2.832   1.416  13.981 -0.5816  1.0763 -0.9234
14095TIP3   OH263699   7.071   6.727   1.221 -0.2057  0.2499 -0.4829
14095TIP3    H163700   7.121   6.806   1.200 -1.3594  1.0670 -0.2374
14095TIP3    H263701   7.114   6.691   1.298 -1.3000  2.2317  1.1790
14096TIP3   OH263702   1.434   3.848  10.833 -0.2251  0.0994  0.7161
14096TIP3    H163703   1.498   3.919  10.839  0.1020 -0.2555  1.6631
14096TIP3    H263704   1.464   3.784  10.898 -1.2864 -0.2765  0.8504
14097TIP3   OH263705   1.266   0.063  13.166 -0.1730 -0.4054 -0.1304
14097TIP3    H163706   1.269   0.131  13.099 -0.3567 -0.7374 -0.4760
14097TIP3    H263707   1.173   0.057  13.191  0.1063  0.9299  1.4077
14098TIP3   OH263708   1.233   4.550   4.885 -0.0013 -0.1115  0.2808
14098TIP3    H163709   1.184   4.631   4.894 -0.4332 -0.4124  0.6794
14098TIP3    H263710   1.289   4.564   4.809 -0.6456  0.2626 -0.1319
14099TIP3   OH263711   4.887   5.957   3.046 -0.1730  0.1462 -0.1965
14099TIP3    H163712   4.854   5.944   2.957 -1.6902 -0.4482  0.4253
14099TIP3    H263713   4.865   6.047   3.067 -0.1881  0.1569 -0.2575
14100TIP3   OH263714   5.896   2.167   4.852  0.0251 -0.4699  0.2279
14100TIP3    H163715   5.946   2.236   4.809  0.5376 -0.7805  0.3172
14100TIP3    H263716   5.829   2.214   4.903 -1.4913 -0.1122 -1.9310
14101TIP3   OH263717   5.498   4.919   0.638 -0.2572 -0.1525  0.0366
14101TIP3    H163718   5.432   4.935   0.571 -0.3176 -0.8372 -0.0711
14101TIP3    H263719   5.511   5.005   0.680 -0.1038  0.3229 -0.9449
14102TIP3   OH263720   4.132   5.421   1.225  0.1805 -0.0311 -0.5695
14102TIP3    H163721   4.108   5.418   1.132  1.1673 -0.5595 -0.8183
14102TIP3    H263722   4.152   5.331   1.248  2.0775  0.3672 -0.4420
14103TIP3   OH263723   2.411   6.257   1.476 -0.3065 -0.2644 -0.1714
14103TIP3    H163724   2.500   6.228   1.496 -0.4950 -1.3764 -0.8618
14103TIP3    H263725   2.385   6.204   1.401 -1.1511  0.8237 -0.6739
14104TIP3   OH263726   3.830   3.977  15.454  0.1085 -0.4039  0.0897
14104TIP3    H163727   3.910   4.023  15.481  0.4166 -0.0866 -1.2855
14104TIP3    H263728   3.856   3.884  15.451  1.0921 -0.1408 -2.3293
14105TIP3   OH263729   3.249   5.554   1.218  0.3560  0.4848  0.2638
14105TIP3    H163730   3.280   5.642   1.196 -0.6541  1.3691  2.1114
14105TIP3    H263731   3.255   5.550   1.313 -1.5535 -0.6682  0.3894
14106TIP3   OH263732   0.993   0.028   5.269  0.5138 -0.2786 -0.5428
14106TIP3    H163733   1.081   0.055   5.295 -0.2453  1.0030  0.9204
14106TIP3    H263734   0.968  -0.038   5.334 -0.2603  0.7156  0.2088
14107TIP3   OH263735   0.241   3.575  13.781  0.2930 -0.8680 -0.2128
14107TIP3    H163736   0.301   3.622  13.723  0.9604  1.1044  1.8968
14107TIP3    H263737   0.294   3.504  13.817  0.3078 -1.2347 -0.9561
14108TIP3   OH263738   2.154   7.087   3.184 -0.4666  0.4094  0.4306
14108TIP3    H163739   2.185   7.097   3.094 -0.2300 -2.0254  0.1853
14108TIP3    H263740   2.226   7.120   3.238 -0.3726  1.3357 -0.2333
14109TIP3   OH263741   6.725   3.962   1.471  0.0655 -0.3080  0.4284
14109TIP3    H163742   6.790   3.923   1.530 -1.9454 -2.2619  1.5211
14109TIP3    H263743   6.695   4.040   1.517 -0.0022 -0.6894  1.0570
14110TIP3   OH263744   0.816   5.833  10.972  0.1394  0.6021 -0.0866
14110TIP3    H163745   0.903   5.835  11.013 -0.0841  0.2721  0.4197
14110TIP3    H263746   0.830   5.787  10.889  0.2727 -0.3336  0.4361
14111TIP3   OH263747   5.005   3.905   1.790 -0.5891  0.1830  0.0569
14111TIP3    H163748   5.016   3.835   1.855 -0.0532  1.1113  1.0027
14111TIP3    H263749   4.926   3.951   1.819 -0.0868  0.8876  0.3441
14112TIP3   OH263750   5.732   3.870   2.953 -0.2225 -0.4193 -0.0907
14112TIP3    H163751   5.807   3.835   2.905 -0.5162 -0.8557 -0.2328
14112TIP3    H263752   5.721   3.958   2.919  1.8935  0.6926  1.7852
14113TIP3   OH263753   4.891   0.822  14.997  0.4419 -0.0718  0.2186
14113TIP3    H163754   4.879   0.738  15.040 -1.7404 -0.9709 -1.8881
14113TIP3    H263755   4.814   0.873  15.023  0.1746  0.1220 -0.9025
14114TIP3   OH263756   2.420   4.977   3.960  0.1521  0.3848 -0.2975
14114TIP3    H163757   2.353   4.920   3.997 -0.6529  0.2674 -1.8275
14114TIP3    H263758   2.425   5.051   4.021 -1.3187  0.3536 -0.0951
14115TIP3   OH263759   4.830   0.033  14.725  0.1975 -0.4559  0.2118
14115TIP3    H163760   4.804   0.123  14.702  0.7104 -0.3325  0.1121
14115TIP3    H263761   4.762  -0.022  14.686  0.6837 -0.2044 -1.0162
14116TIP3   OH263762   4.795   4.828  13.093  0.2611 -0.0653 -0.3359
14116TIP3    H163763   4.764   4.915  13.067  0.3070  0.2676  0.6502
14116TIP3    H263764   4.748   4.767  13.037  0.9302  0.6405 -1.7045
14117TIP3   OH263765   6.684   6.819   1.235  0.3318  0.1887 -0.0423
14117TIP3    H163766   6.749   6.883   1.266  2.2484 -1.5417 -0.2419
14117TIP3    H263767   6.728   6.772   1.165 -1.4160 -0.6347 -0.6483
14118TIP3   OH263768   3.700   0.388   1.410  0.2965 -0.4870 -0.2714
14118TIP3    H163769   3.748   0.383   1.328  0.2507 -0.9293 -0.2722
14118TIP3    H263770   3.765   0.416   1.475  0.0165  1.3711 -0.7217
14119TIP3   OH263771   2.362   3.327   4.498 -0.3640  0.2647  0.2953
14119TIP3    H163772   2.305   3.359   4.429 -0.9739  0.6744  0.9792
14119TIP3    H263773   2.323   3.360   4.579 -0.8286 -1.9027  1.0105
14120TIP3   OH263774   6.140   4.849   3.555  0.7006  0.4994  0.8195
14120TIP3    H163775   6.129   4.757   3.580 -0.0407  0.6624  1.1099
14120TIP3    H263776   6.157   4.846   3.461 -0.3255  0.1280  0.6404
14121TIP3   OH263777   0.975   4.996  15.323  0.1953  0.1703  0.0940
14121TIP3    H163778   0.907   5.035  15.377  0.2811  1.2990 -0.5763
14121TIP3    H263779   1.057   5.029  15.359  0.5110 -1.9306  1.4967
14122TIP3   OH263780   4.746   3.173   4.212  0.1356 -0.6462 -0.2597
14122TIP3    H163781   4.691   3.219   4.148  1.2072  1.8824  0.4761
14122TIP3    H263782   4.755   3.085   4.178 -2.1724 -0.3752 -1.7525
14123TIP3   OH263783   4.729   5.284   3.236 -0.2894  0.7335 -0.6071
14123TIP3    H163784   4.735   5.250   3.147  1.8434  1.5083 -0.8135
14123TIP3    H263785   4.732   5.206   3.292  0.6733  0.3432 -1.1768
14124TIP3   OH263786   5.115   3.892   1.133 -0.3239  0.2561  0.0792
14124TIP3    H163787   5.131   3.966   1.073 -1.1586  0.4896  0.1371
14124TIP3    H263788   5.167   3.821   1.097  0.2789  0.7934 -0.1363
14125TIP3   OH263789   1.444   0.115   4.013  0.4637 -0.7707  0.1155
14125TIP3    H163790   1.381   0.162   3.958  0.7971  0.1139  0.4627
14125TIP3    H263791   1.415   0.132   4.103  1.0189 -0.5939  0.2672
14126TIP3   OH263792   0.984   1.023   1.907 -0.6604 -1.0176 -0.0579
14126TIP3    H163793   0.907   1.077   1.887  0.0001 -0.7996 -2.2928
14126TIP3    H263794   1.057   1.085   1.903 -0.0383 -1.8002 -1.2712
14127TIP3   OH263795   0.644   5.427   2.200 -0.6524 -0.1034  0.1579
14127TIP3    H163796   0.556   5.465   2.206 -0.0039  1.3226  1.5935
14127TIP3    H263797   0.700   5.491   2.244  1.0870 -1.0762 -0.5416
14128TIP3   OH263798   4.912   6.402  12.524  0.0383 -0.3231  0.3218
14128TIP3    H163799   4.864   6.422  12.443 -0.2138 -0.4776  0.4313
14128TIP3    H263800   4.988   6.461  12.522 -0.4925  0.3898  0.4489
14129TIP3   OH263801   6.714   4.094   2.853 -0.5639  0.0165  0.0924
14129TIP3    H163802   6.655   4.091   2.777  0.2040 -0.2276 -0.5016
14129TIP3    H263803   6.655   4.094   2.929 -1.3245 -1.4056 -0.4608
14130TIP3   OH263804   5.618   6.681   4.550  0.0568 -0.2359  0.2556
14130TIP3    H163805   5.656   6.764   4.520 -1.2835  0.1119 -0.5938
14130TIP3    H263806   5.531   6.706   4.583  0.4185 -1.0183  1.9356
14131TIP3   OH263807   5.473   0.614   5.991  0.3037  0.5616 -0.4300
14131TIP3    H163808   5.443   0.595   6.080  3.0275 -1.3816  0.1890
14131TIP3    H263809   5.487   0.708   5.990 -0.4538  0.7134  0.9497
14132TIP3   OH263810   5.098   4.461   3.940  0.7730  0.4130  0.0902
14132TIP3    H163811   5.179   4.413   3.927  0.1530 -0.6260 -0.0401
14132TIP3    H263812   5.029   4.401   3.912 -0.3660 -0.2964  3.8372
14133TIP3   OH263813   5.589   2.341  15.146 -0.0133 -0.1555 -0.0203
14133TIP3    H163814   5.652   2.272  15.167 -1.8027 -1.5911  0.8945
14133TIP3    H263815   5.604   2.359  15.053 -0.6556 -3.1032 -0.8084
14134TIP3   OH263816   4.124   4.239   3.304  0.4402 -0.0913  0.4944
14134TIP3    H163817   4.066   4.218   3.378  0.4076  1.4018  0.9255
14134TIP3    H263818   4.199   4.180   3.315 -0.9048 -2.0024 -0.0128
14135TIP3   OH263819   1.305   4.378  14.441 -0.3950  0.2135 -0.0743
14135TIP3    H163820   1.357   4.392  14.362  0.0565  0.6973  0.3111
14135TIP3    H263821   1.214   4.388  14.412 -0.2073  0.9068 -0.4275
14136TIP3   OH263822   5.070   1.571   2.149  0.4440  0.2456  0.4674
14136TIP3    H163823   5.085   1.486   2.106 -0.3073  0.1842  0.3124
14136TIP3    H263824   5.077   1.635   2.078  0.5884  0.2720  0.5061
14137TIP3   OH263825   1.419   3.829  11.937 -0.0970 -0.2809 -1.0495
14137TIP3    H163826   1.506   3.866  11.954 -0.1799 -0.3323 -0.4787
14137TIP3    H263827   1.386   3.806  12.024 -1.8428  2.3540 -0.8763
14138TIP3   OH263828   1.440   0.534   2.756  0.0410  0.3985 -0.2855
14138TIP3    H163829   1.534   0.517   2.744 -0.1405 -1.5165  0.5451
14138TIP3    H263830   1.415   0.584   2.679  1.9393  1.8656 -0.0300
14139TIP3   OH263831   0.415   6.325   3.923 -0.1200  0.3445  0.4223
14139TIP3    H163832   0.386   6.356   4.009 -1.1575 -0.7094  0.4660
14139TIP3    H263833   0.390   6.233   3.920 -0.2547  0.3999 -1.0733
14140TIP3   OH263834   6.537   5.208   4.326 -0.2922 -0.4508 -0.2445
14140TIP3    H163835   6.609   5.194   4.387  0.6243 -2.1091 -1.6240
14140TIP3    H263836   6.577   5.247   4.249 -0.9435 -0.8859 -0.8236
14141TIP3   OH263837   4.613   6.869   4.290  0.2742 -0.2052  0.1673
14141TIP3    H163838   4.532   6.890   4.336  1.2953  0.8963  1.5315
14141TIP3    H263839   4.602   6.778   4.262 -1.2770 -0.1867  0.6340
14142TIP3   OH263840   6.683   5.739   5.180 -0.1904 -0.2444  0.6734
14142TIP3    H163841   6.611   5.769   5.235 -0.2089  0.6069  0.1925
14142TIP3    H263842   6.648   5.741   5.091  0.1467 -0.6782  0.5265
14143TIP3   OH263843   0.842   3.523   3.766 -0.1301  0.4229 -0.1500
14143TIP3    H163844   0.809   3.480   3.845  0.4228  0.7639  0.2763
14143TIP3    H263845   0.850   3.615   3.791 -2.1851  0.9920 -1.3330
14144TIP3   OH263846   6.028   2.537   1.629 -0.1085 -0.4668 -0.1799
14144TIP3    H163847   6.055   2.447   1.647 -0.0532 -0.2475  0.9561
14144TIP3    H263848   6.103   2.590   1.654 -1.3239  0.1233  2.6375
14145TIP3   OH263849   2.127   3.866   2.994  0.0571 -0.2623 -0.5941
14145TIP3    H163850   2.056   3.828   3.046  0.9222 -0.8421  0.1865
14145TIP3    H263851   2.094   3.862   2.903 -2.2557  2.4762 -0.0331
14146TIP3   OH263852   1.812   4.410   2.709  0.1906  0.0230 -0.3775
14146TIP3    H163853   1.830   4.495   2.750 -0.7764 -0.3758  0.9586
14146TIP3    H263854   1.716   4.405   2.706  0.2420 -0.9742 -0.5310
14147TIP3   OH263855   0.505   1.587   4.894  0.2306 -0.1316 -0.0664
14147TIP3    H163856   0.445   1.650   4.933  1.0599 -0.7064  2.2704
14147TIP3    H263857   0.585   1.636   4.879  0.3065 -0.2173  0.0663
14148TIP3   OH263858   2.102   2.004   2.606 -0.0949 -0.2862 -0.2109
14148TIP3    H163859   2.137   1.915   2.610 -0.2919 -0.3408  0.4935
14148TIP3    H263860   2.008   1.992   2.592 -0.5640 -0.3066  2.3823
14149TIP3   OH263861   0.547   5.061   4.667  0.5391  0.0382 -0.2117
14149TIP3    H163862   0.611   5.084   4.600 -0.3675 -0.0856 -1.1334
14149TIP3    H263863   0.523   4.971   4.648 -0.0571  0.1476  0.0113
14150TIP3   OH263864   1.210   1.069   4.759 -0.2334  0.4633 -0.2950
14150TIP3    H163865   1.123   1.042   4.728 -0.3204 -2.1704  1.8852
14150TIP3    H263866   1.270   1.005   4.720  0.2760  0.3027  0.7136
14151TIP3   OH263867   3.301   1.300   0.949  0.1362  0.0467  0.2373
14151TIP3    H163868   3.253   1.284   0.867  0.1236 -2.5435  0.6601
14151TIP3    H263869   3.392   1.283   0.927  0.2197  0.0363  0.5885
14152TIP3   OH263870   1.793   4.859   2.481 -0.2655 -0.7150  0.3351
14152TIP3    H163871   1.830   4.824   2.562  0.5074  0.0247  0.3214
14152TIP3    H263872   1.860   4.919   2.448 -0.7264 -0.7237 -0.6596
14153TIP3   OH263873   0.827   0.087   2.463 -0.5632  0.4843  0.2818
14153TIP3    H163874   0.899   0.101   2.524 -1.1480  1.6398  0.7411
14153TIP3    H263875   0.769   0.162   2.476 -1.6654 -0.2225 -0.3434
14154TIP3   OH263876   4.425   3.153  13.863  0.1369 -0.6716  0.1005
14154TIP3    H163877   4.480   3.216  13.909 -0.7531  0.4778 -0.3378
14154TIP3    H263878   4.457   3.155  13.772 -1.5041  1.1450 -0.5124
14155TIP3   OH263879   2.753   0.450   4.714  0.1531  0.1884  0.0103
14155TIP3    H163880   2.788   0.407   4.793  1.1780  0.7829 -0.0952
14155TIP3    H263881   2.658   0.443   4.723  0.2630 -1.8567  0.1164
14156TIP3   OH263882   1.824   6.340   2.493 -0.1840 -0.4315  0.2952
14156TIP3    H163883   1.735   6.374   2.502  0.1111 -0.0878  2.2386
14156TIP3    H263884   1.869   6.368   2.572  1.9381  0.1680 -1.0375
14157TIP3   OH263885   4.617   5.950  15.286  0.4895 -0.2828 -0.4382
14157TIP3    H163886   4.659   5.870  15.319 -2.1611 -1.3436  0.6438
14157TIP3    H263887   4.645   6.018  15.348  0.7741 -0.8968  0.1369
14158TIP3   OH263888   4.842   3.283   1.168 -0.4445  0.0617  0.0349
14158TIP3    H163889   4.850   3.372   1.203 -2.0212  0.5215 -0.6661
14158TIP3    H263890   4.762   3.249   1.208  0.4687 -1.3090  0.7828
14159TIP3   OH263891   0.844   6.995  14.836 -0.0482  0.4106  0.2302
14159TIP3    H163892   0.861   6.905  14.809 -1.0243  0.2098  0.2700
14159TIP3    H263893   0.895   7.048  14.774  0.5011 -0.1604  0.1837
14160TIP3   OH263894   4.885   2.178   1.846 -0.4210  0.5942  0.2454
14160TIP3    H163895   4.819   2.168   1.914 -0.1803 -0.2209  0.3706
14160TIP3    H263896   4.863   2.260   1.802 -0.9199  0.8261  0.9268
14161TIP3   OH263897   0.007   3.057  11.802 -0.0430  0.0923 -0.1574
14161TIP3    H163898  -0.002   3.152  11.803  0.6184  0.1663 -0.3608
14161TIP3    H263899  -0.032   3.029  11.720  0.7726  0.3111 -0.6310
14162TIP3   OH263900   4.938   0.068   0.281  0.3527  0.6175 -0.3110
14162TIP3    H163901   4.969   0.041   0.368  0.0875  2.4360  0.3816
14162TIP3    H263902   5.017   0.066   0.227  0.8056  0.8547  0.3288
14163TIP3   OH263903   5.494   2.165   0.082 -0.2767 -0.5297  0.1153
14163TIP3    H163904   5.436   2.089   0.087 -0.0475 -0.6568  1.0465
14163TIP3    H263905   5.435   2.240   0.070 -0.4665 -0.9019 -1.3995
14164TIP3   OH263906   5.302   2.386   4.040 -0.2371 -0.6390  0.6768
14164TIP3    H163907   5.244   2.334   3.984 -0.5103  0.8134 -0.4410
14164TIP3    H263908   5.390   2.365   4.009 -0.4327  1.0614 -1.1930
14165TIP3   OH263909   1.452   5.247   5.006 -0.5970 -0.0679 -0.1447
14165TIP3    H163910   1.428   5.339   5.005 -1.2655 -0.2082  1.3844
14165TIP3    H263911   1.531   5.242   5.059 -0.7534 -0.4079  0.0646
14166TIP3   OH263912   4.229   5.972   2.099  0.1591  0.0797  0.3751
14166TIP3    H163913   4.239   6.044   2.037 -0.3521 -0.2458 -0.1007
14166TIP3    H263914   4.319   5.946   2.120  0.4765 -1.5869 -2.3991
14167TIP3   OH263915   2.340   1.650   0.344 -0.2513 -0.5619 -0.2572
14167TIP3    H163916   2.312   1.645   0.435  1.9407 -0.7458  0.4686
14167TIP3    H263917   2.267   1.692   0.298 -0.7297  1.1248  1.9081
14168TIP3   OH263918   4.872   6.662   3.106  0.8622 -0.8944 -0.0746
14168TIP3    H163919   4.886   6.664   3.200  0.6666 -0.0306 -0.0588
14168TIP3    H263920   4.896   6.750   3.076  0.7449 -1.1056 -0.8019
14169TIP3   OH263921   3.499   6.772  15.006  0.4343 -0.1985  0.3156
14169TIP3    H163922   3.467   6.748  14.919 -0.5993  1.1328  0.3121
14169TIP3    H263923   3.448   6.717  15.066 -1.3417  1.2816  0.2543
14170TIP3   OH263924   2.224   0.534   5.928 -0.0920  0.3949 -0.4019
14170TIP3    H163925   2.315   0.563   5.936 -0.2941  0.9609 -0.1268
14170TIP3    H263926   2.230   0.439   5.917  0.5248  0.4057 -0.1935
14171TIP3   OH263927   2.978   5.114   2.621  0.0138 -0.7573  0.1077
14171TIP3    H163928   2.963   5.175   2.549 -0.1090 -0.3585  0.4630
14171TIP3    H263929   3.066   5.136   2.652 -0.1702 -0.5041  0.4692
14172TIP3   OH263930   3.742   2.540  10.902 -0.1064 -0.0149  0.2425
14172TIP3    H163931   3.755   2.608  10.836 -1.2206  0.4743  0.4970
14172TIP3    H263932   3.647   2.524  10.901 -0.0920 -0.2531  1.4504
14173TIP3   OH263933   4.188   0.475   4.728 -0.6147  0.3055  0.5883
14173TIP3    H163934   4.228   0.510   4.649 -0.6908  0.3540  0.5709
14173TIP3    H263935   4.173   0.382   4.710  0.3999  0.0603  0.9589
14174TIP3   OH263936   3.313   4.798   3.066 -0.2165  0.1977  0.2942
14174TIP3    H163937   3.244   4.742   3.101  0.2033  0.0130  0.8205
14174TIP3    H263938   3.268   4.853   3.002 -0.8478  0.0447  0.5992
14175TIP3   OH263939   6.519   5.488   3.281 -0.3933 -0.8534 -0.3920
14175TIP3    H163940   6.551   5.488   3.371  0.1229  1.2929 -0.5220
14175TIP3    H263941   6.425   5.507   3.289 -0.1331  0.5341 -0.3090
14176TIP3   OH263942   6.260   6.611   2.559  0.8204 -0.3819 -0.0418
14176TIP3    H163943   6.168   6.593   2.575  1.1534 -1.1708  1.1065
14176TIP3    H263944   6.282   6.557   2.483  1.0338 -2.6447  1.4910
14177TIP3   OH263945   4.199   2.334   3.805  0.0538 -0.3143  0.1573
14177TIP3    H163946   4.156   2.417   3.787  3.4578  1.7327  0.6711
14177TIP3    H263947   4.203   2.290   3.720 -0.1743  0.8964 -0.5003
14178TIP3   OH263948   1.786   4.246   3.790 -0.1087  0.4380  0.3057
14178TIP3    H163949   1.759   4.227   3.879  0.2485  1.0782  0.5555
14178TIP3    H263950   1.707   4.234   3.737 -0.1300 -0.7611  0.5771
14179TIP3   OH263951   1.762   2.370  14.090  0.5764 -0.0560  0.1063
14179TIP3    H163952   1.762   2.459  14.055 -0.1222 -0.0199  0.1721
14179TIP3    H263953   1.716   2.377  14.173 -0.2337 -0.6176 -0.2803
14180TIP3   OH263954   0.890   6.980   0.051 -0.3436  0.2587 -0.4159
14180TIP3    H163955   0.799   6.975   0.022 -0.8289 -3.0311  1.2238
14180TIP3    H263956   0.886   7.017   0.139  0.3304  2.9152 -1.3977
14181TIP3   OH263957   1.311   1.550   4.873  0.4288 -0.4129 -0.1841
14181TIP3    H163958   1.358   1.477   4.913  1.9457  0.1416 -0.8552
14181TIP3    H263959   1.374   1.588   4.811 -1.3663 -0.4528 -2.1611
14182TIP3   OH263960   0.136   6.515  13.217  0.6912  0.4404  0.0367
14182TIP3    H163961   0.075   6.553  13.280  0.9530  1.7835 -0.4802
14182TIP3    H263962   0.222   6.527  13.257  0.7385 -0.1231  0.1111
14183TIP3   OH263963   5.306   6.981  13.403  0.0591  0.3881  0.0238
14183TIP3    H163964   5.322   6.960  13.495  0.4545 -0.1847 -0.1720
14183TIP3    H263965   5.367   6.926  13.355  0.0424  0.8800 -0.5737
14184TIP3   OH263966   3.076   1.226  13.831 -0.5683 -0.5630 -0.6632
14184TIP3    H163967   3.053   1.319  13.825 -0.1383 -0.4071  0.0376
14184TIP3    H263968   3.172   1.225  13.832 -0.5657 -0.9103  0.6543
14185TIP3   OH263969   0.085   6.242   5.928 -0.3691  0.4804  0.6509
14185TIP3    H163970   0.089   6.149   5.951  0.7246  0.3068 -0.1487
14185TIP3    H263971   0.171   6.261   5.891 -1.2599  1.2898 -1.1044
14186TIP3   OH263972   4.553   5.233   3.965  0.2589 -0.0568  0.9006
14186TIP3    H163973   4.583   5.236   4.056 -0.7902  0.1765  1.2525
14186TIP3    H263974   4.523   5.143   3.953 -1.2879  0.3570  1.3741
14187TIP3   OH263975   1.386   2.081  14.937  0.2752  0.4363  0.7760
14187TIP3    H163976   1.464   2.132  14.916 -0.0729  0.4196 -0.5912
14187TIP3    H263977   1.333   2.140  14.991  0.7001  0.8696  0.7267
14188TIP3   OH263978   0.222   6.563   4.555 -0.0643 -0.4043 -0.1841
14188TIP3    H163979   0.253   6.475   4.534 -1.6646 -1.2064  0.6116
14188TIP3    H263980   0.222   6.567   4.650  2.9607  1.6407 -0.1408
14189TIP3   OH263981   4.382   1.304  14.082  0.4310 -0.1557 -0.0289
14189TIP3    H163982   4.325   1.298  14.158 -0.4983  0.3447 -0.6669
14189TIP3    H263983   4.335   1.259  14.012  0.8108  0.2614 -0.5713
14190TIP3   OH263984   3.467   5.101   3.509  0.2827 -0.3287  0.0175
14190TIP3    H163985   3.548   5.067   3.547  0.3738 -1.8096 -1.4019
14190TIP3    H263986   3.442   5.037   3.443  0.3259  2.2544 -2.7130
14191TIP3   OH263987   1.946   4.437   0.122 -0.5874 -0.2742 -0.2843
14191TIP3    H163988   1.907   4.522   0.144  0.4298  0.0256  0.4635
14191TIP3    H263989   1.898   4.374   0.175 -0.4697  0.0072  0.1596
14192TIP3   OH263990   5.563   5.801  14.954  0.0204 -0.3658  0.3620
14192TIP3    H163991   5.629   5.862  14.922 -1.5689  1.5400  0.5497
14192TIP3    H263992   5.580   5.794  15.048 -0.1083  0.2108  0.4305
14193TIP3   OH263993   6.894   3.397  12.186 -0.0918 -0.2477 -0.0322
14193TIP3    H163994   6.981   3.359  12.193 -0.0297  0.1460  1.7817
14193TIP3    H263995   6.896   3.473  12.244 -1.3390  0.3696 -0.7421
14194TIP3   OH263996   0.789   2.826   0.984  0.0181 -1.0182 -0.1117
14194TIP3    H163997   0.755   2.742   1.015 -0.1790 -0.8300  0.1808
14194TIP3    H263998   0.758   2.832   0.893 -0.1919 -1.1426 -0.0494
14195TIP3   OH263999   1.798   4.989  13.090  0.3091  0.1604 -0.1756
14195TIP3    H164000   1.771   4.916  13.146  0.3152  0.6688  0.5101
14195TIP3    H264001   1.741   5.061  13.116 -0.2827  0.1848 -1.4400
14196TIP3   OH264002   1.205   3.209   0.670  0.0187 -0.3100 -0.1732
14196TIP3    H164003   1.214   3.158   0.589 -2.5799  1.1701 -1.5323
14196TIP3    H264004   1.295   3.232   0.693  0.9454 -1.7730 -1.9499
14197TIP3   OH264005   1.726   4.326   5.491 -0.5508  0.4815 -0.1485
14197TIP3    H164006   1.784   4.367   5.426  0.3902  0.3177  0.5624
14197TIP3    H264007   1.711   4.238   5.458 -2.0791  1.1504 -1.3718
14198TIP3   OH264008   5.088   1.334   1.219  0.2131  0.0049 -0.2146
14198TIP3    H164009   5.115   1.276   1.147  1.0411 -1.4710  1.2279
14198TIP3    H264010   4.997   1.311   1.235  0.0416  0.2973 -0.7224
14199TIP3   OH264011   4.231   5.805   4.870 -0.3564 -0.0082  0.2451
14199TIP3    H164012   4.308   5.767   4.912  1.0865  0.4604 -1.8255
14199TIP3    H264013   4.230   5.897   4.897 -0.5186 -0.1323  0.6771
14200TIP3   OH264014   2.407   3.083   3.226 -0.0098  0.3302  0.3514
14200TIP3    H164015   2.459   3.045   3.297 -0.2757  1.0977  0.9693
14200TIP3    H264016   2.317   3.066   3.252 -0.0920 -0.8844 -0.6548
14201TIP3   OH264017   4.720   4.325   5.613  0.4804 -0.3794 -0.4874
14201TIP3    H164018   4.691   4.411   5.643  1.2042  0.3320 -1.7386
14201TIP3    H264019   4.814   4.324   5.633  0.5141 -0.7864 -0.6710
14202TIP3   OH264020   1.372   5.832  11.042  0.0402  0.1807 -0.2187
14202TIP3    H164021   1.428   5.860  11.115  0.5138 -0.1545 -0.4541
14202TIP3    H264022   1.420   5.761  11.001 -0.1785  0.4431 -0.9333
14203TIP3   OH264023   1.227   3.858   1.659 -0.1140  0.0153 -0.3636
14203TIP3    H164024   1.269   3.853   1.745  0.4994 -0.8686 -0.6968
14203TIP3    H264025   1.297   3.887   1.600  0.1072 -1.6148 -0.9530
14204TIP3   OH264026   3.198   6.370  14.419  0.3756  0.0893  0.2479
14204TIP3    H164027   3.195   6.279  14.448  0.7580  0.4616  1.5254
14204TIP3    H264028   3.215   6.420  14.498  1.4459  1.1700 -0.6150
14205TIP3   OH264029   1.888   1.763   1.521  0.0321 -0.1567 -0.9280
14205TIP3    H164030   1.816   1.701   1.510 -1.8630  1.6897  0.3047
14205TIP3    H264031   1.904   1.763   1.616  0.2477  0.9505 -0.9578
14206TIP3   OH264032   0.403   2.729  14.320 -0.7578 -0.2223 -0.3822
14206TIP3    H164033   0.407   2.823  14.303  1.4086 -0.2298 -0.2471
14206TIP3    H264034   0.487   2.709  14.361 -0.4052 -2.5143 -2.0432
14207TIP3   OH264035   6.424   6.355   5.835 -0.2512  0.2200  0.7018
14207TIP3    H164036   6.502   6.348   5.890 -0.6991  1.2369  1.5064
14207TIP3    H264037   6.384   6.268   5.838  1.4956 -0.7002 -0.7717
14208TIP3   OH264038   3.662   6.923   1.940  0.3131 -1.0184 -0.1142
14208TIP3    H164039   3.684   6.912   2.032  2.2130 -1.5354 -0.5865
14208TIP3    H264040   3.658   7.018   1.926  0.7904 -0.9352  0.3248
14209TIP3   OH264041   0.627   2.223   5.647 -0.4804  0.2232 -0.0334
14209TIP3    H164042   0.653   2.296   5.591 -1.1359 -0.1781 -0.8770
14209TIP3    H264043   0.710   2.184   5.675 -0.0646 -1.3179 -3.0569
14210TIP3   OH264044   3.065   6.178  13.636  0.5757  0.3488 -0.1022
14210TIP3    H164045   3.047   6.126  13.558  0.8879 -1.3567  0.9107
14210TIP3    H264046   3.155   6.209  13.624  0.4837  0.4353 -0.5927
14211TIP3   OH264047   2.403   2.439   3.026 -0.2914  0.3968 -0.1742
14211TIP3    H164048   2.478   2.487   2.991 -0.3733  0.2895 -0.5003
14211TIP3    H264049   2.405   2.457   3.120  2.5984 -2.8997  0.6024
14212TIP3   OH264050   3.728   5.652   2.197 -0.0419 -0.7086 -0.3229
14212TIP3    H164051   3.711   5.687   2.285 -1.5663 -0.0752 -0.8499
14212TIP3    H264052   3.720   5.727   2.139  0.5825 -1.2034 -1.0621
14213TIP3   OH264053   4.137   2.138   4.779  0.3403  0.1033 -0.0390
14213TIP3    H164054   4.101   2.186   4.704  0.7018  0.9856  0.3413
14213TIP3    H264055   4.219   2.100   4.746 -0.4478 -1.1455 -0.6409
14214TIP3   OH264056   3.109   5.653   0.531  0.4561 -0.4465 -0.0032
14214TIP3    H164057   3.131   5.719   0.466  1.3720 -0.6161  0.1257
14214TIP3    H264058   3.193   5.626   0.568 -0.0203 -0.5848  1.0257
14215TIP3   OH264059   4.381   1.908   3.006  0.2545  0.0455 -0.9657
14215TIP3    H164060   4.410   1.824   3.041 -1.4408 -0.3147 -0.3077
14215TIP3    H264061   4.407   1.907   2.914  1.2296 -0.7170 -0.6983
14216TIP3   OH264062   2.135   6.843   2.197  0.1383  0.0249 -0.3829
14216TIP3    H164063   2.218   6.888   2.187  0.5167 -0.6042 -0.1533
14216TIP3    H264064   2.142   6.799   2.281 -0.3259 -0.2346 -0.4781
14217TIP3   OH264065   5.190   1.924   5.254 -0.2428 -0.0636  0.3372
14217TIP3    H164066   5.236   1.983   5.314  1.5198 -0.3786 -0.6177
14217TIP3    H264067   5.224   1.837   5.276 -0.1626 -0.2734 -0.5709
14218TIP3   OH264068   2.527   6.631   1.528 -0.3175  0.2100  0.1495
14218TIP3    H164069   2.555   6.564   1.591 -0.1768  0.2047  0.0821
14218TIP3    H264070   2.514   6.710   1.580 -0.9371  0.0111  0.3041
14219TIP3   OH264071   0.667   4.877  15.228 -0.7873 -0.1953  0.4844
14219TIP3    H164072   0.611   4.907  15.300 -2.1913  1.9291 -1.3991
14219TIP3    H264073   0.691   4.956  15.180  0.7545 -1.4654 -0.9840
14220TIP3   OH264074   1.808   6.487  13.994  0.0583  0.1142 -0.0508
14220TIP3    H164075   1.802   6.567  13.942 -0.8308 -0.0076 -0.1447
14220TIP3    H264076   1.817   6.416  13.930 -0.3470  0.0267 -0.0091
14221TIP3   OH264077   3.768   1.360   5.093 -0.0018  0.4010  0.0265
14221TIP3    H164078   3.787   1.337   5.184 -0.6105  0.3018  0.1358
14221TIP3    H264079   3.804   1.287   5.042  0.1414  0.3459  0.2060
14222TIP3   OH264080   5.602   2.012   1.146 -0.5262  0.1481  0.2191
14222TIP3    H164081   5.692   2.030   1.172 -1.0531  2.0651  0.8955
14222TIP3    H264082   5.570   1.952   1.214  1.2877 -3.8460 -2.1105
14223TIP3   OH264083   0.431   4.700   3.109  0.7280  0.3550  0.0064
14223TIP3    H164084   0.434   4.720   3.203  0.3362 -0.3677  0.1757
14223TIP3    H264085   0.441   4.605   3.104 -4.2472 -0.3805 -0.3346
14224TIP3   OH264086   5.488   4.492   0.748 -0.4027 -0.0655  0.6679
14224TIP3    H164087   5.565   4.505   0.692  1.3010 -1.6518  2.4904
14224TIP3    H264088   5.435   4.428   0.701 -0.1254  0.2966 -0.1605
14225TIP3   OH264089   2.844   5.178   1.474 -0.3057 -0.0441 -0.1211
14225TIP3    H164090   2.842   5.106   1.537 -0.5421 -0.0791 -0.1697
14225TIP3    H264091   2.782   5.242   1.509 -0.0893  0.1409 -0.0728
14226TIP3   OH264092   5.960   6.631   4.164  0.1855 -0.1583 -0.3734
14226TIP3    H164093   5.951   6.655   4.257 -0.0590  0.1078 -0.4641
14226TIP3    H264094   5.876   6.656   4.125 -0.5412 -2.1801 -0.2588
14227TIP3   OH264095   2.919   0.034   4.996  0.5788  0.1256  0.3257
14227TIP3    H164096   2.930  -0.061   4.995  2.1502  0.2700 -0.1952
14227TIP3    H264097   2.827   0.048   5.015 -0.2276 -1.5381 -1.9956
14228TIP3   OH264098   0.117   3.619  14.961 -0.3590  0.4423  0.0613
14228TIP3    H164099   0.096   3.648  14.872  0.8026 -0.8367 -0.6738
14228TIP3    H264100   0.194   3.671  14.986 -1.4158  1.6929  0.8504
14229TIP3   OH264101   5.562   4.689   4.721  0.2765  0.3975 -0.1213
14229TIP3    H164102   5.635   4.746   4.699  0.8254  0.7030  2.1833
14229TIP3    H264103   5.530   4.723   4.805 -2.1664 -0.0809 -0.7605
14230TIP3   OH264104   3.125   2.672   2.997 -0.1297 -0.5769  0.0543
14230TIP3    H164105   3.188   2.711   2.935  0.2610  0.5943  1.1298
14230TIP3    H264106   3.137   2.723   3.078 -2.0593 -0.7066  0.4752
14231TIP3   OH264107   5.686   7.105  12.089  0.0674 -0.0962  0.3053
14231TIP3    H164108   5.645   7.186  12.119 -2.3455 -1.4008  0.8288
14231TIP3    H264109   5.685   7.112  11.994 -1.1270  0.0559  0.3162
14232TIP3   OH264110   6.554   1.166   2.539  0.2157  0.3981  0.0408
14232TIP3    H164111   6.595   1.119   2.611 -0.6922 -2.7193 -1.2803
14232TIP3    H264112   6.467   1.188   2.571  0.8788  1.9138  0.9044
14233TIP3   OH264113   0.584   0.508   4.608  0.3126 -0.0645  0.3680
14233TIP3    H164114   0.668   0.499   4.563 -0.4239  0.2072 -1.1143
14233TIP3    H264115   0.543   0.422   4.600 -0.4381  0.3779 -0.8028
14234TIP3   OH264116   0.674   0.645   3.242  0.0273 -0.3232  0.2012
14234TIP3    H164117   0.757   0.689   3.259  0.2764 -0.3878 -0.7861
14234TIP3    H264118   0.690   0.591   3.165 -0.8858 -0.4606  0.0915
14235TIP3   OH264119   4.125   0.882   1.165  0.3353  0.4370 -0.5243
14235TIP3    H164120   4.216   0.857   1.184  0.0387  0.7308  1.5972
14235TIP3    H264121   4.114   0.966   1.210 -0.5674  1.1687 -2.0389
14236TIP3   OH264122   1.212   2.971  12.961  0.2062 -0.6402 -0.3133
14236TIP3    H164123   1.295   3.018  12.958  0.4760 -1.1345 -0.6253
14236TIP3    H264124   1.153   3.022  12.904  0.6535 -0.9819 -1.0887
14237TIP3   OH264125   1.171   6.517   5.653 -0.2396 -0.1474  0.2222
14237TIP3    H164126   1.145   6.595   5.701  0.7029  0.9465 -0.9472
14237TIP3    H264127   1.267   6.516   5.659  0.1640  1.3906 -3.4550
14238TIP3   OH264128   5.346   3.714   0.194  0.6897  0.3941  0.3444
14238TIP3    H164129   5.286   3.787   0.210 -1.5778 -0.7984 -1.8831
14238TIP3    H264130   5.314   3.644   0.252  1.5658  0.5022  0.9815
14239TIP3   OH264131   5.629   2.561   4.295  0.2010 -0.4659  0.1200
14239TIP3    H164132   5.657   2.652   4.294  2.4837 -1.0451  2.1813
14239TIP3    H264133   5.623   2.538   4.387  0.4748 -2.6129 -0.3402
14240TIP3   OH264134   5.164   3.593   5.742 -0.2584 -0.2564  0.2501
14240TIP3    H164135   5.259   3.593   5.757 -0.0464  1.4393 -0.7543
14240TIP3    H264136   5.145   3.505   5.710  0.7864 -0.9532  1.4414
14241TIP3   OH264137   0.116   0.079  10.463  0.1755  0.1370 -0.1908
14241TIP3    H164138   0.164   0.006  10.502 -0.1750  0.7606  1.4795
14241TIP3    H264139   0.077   0.042  10.383  1.4350 -1.0080 -0.3088
14242TIP3   OH264140   1.695   7.162   3.028 -0.5550 -0.3314  0.3279
14242TIP3    H164141   1.739   7.150   3.112 -0.8847  1.8434  0.8667
14242TIP3    H264142   1.766   7.159   2.963  0.0837  0.7950  0.9568
14243TIP3   OH264143   6.870   4.716  14.342 -0.5224  0.5773 -0.0625
14243TIP3    H164144   6.940   4.652  14.332 -0.3419  0.7176  0.2615
14243TIP3    H264145   6.791   4.671  14.312 -0.7822 -0.5453  2.0789
14244TIP3   OH264146   1.613   5.058   4.261 -1.0226 -0.3115 -0.5370
14244TIP3    H164147   1.547   5.023   4.321 -1.5017  0.0358 -0.8561
14244TIP3    H264148   1.696   5.026   4.296 -1.0163  1.9392  1.7937
14245TIP3   OH264149   0.916   0.400   5.495 -0.2772 -0.7902  0.4090
14245TIP3    H164150   0.826   0.377   5.514  0.2172 -1.8112  1.6090
14245TIP3    H264151   0.915   0.496   5.487 -1.7064 -0.8865 -1.0745
14246TIP3   OH264152   1.989   6.295   3.276  0.4555  0.6605  0.1018
14246TIP3    H164153   2.077   6.321   3.248  1.5451 -0.7299  1.9323
14246TIP3    H264154   1.986   6.319   3.369 -1.0249  0.4748  0.1198
14247TIP3   OH264155   0.535   3.406   0.440  0.4919  0.6979 -0.4711
14247TIP3    H164156   0.575   3.480   0.394  1.3028  0.7621  0.3050
14247TIP3    H264157   0.579   3.329   0.403  0.5759  0.6959 -0.3680
14248TIP3   OH264158   5.643   5.251   1.560  0.1486  0.6437 -0.5981
14248TIP3    H164159   5.674   5.187   1.625 -0.8772  1.9922  1.3261
14248TIP3    H264160   5.694   5.232   1.482  1.1587 -1.3415  0.4555
14249TIP3   OH264161   6.652   1.536   3.622 -0.3639 -0.0240 -0.0745
14249TIP3    H164162   6.605   1.613   3.654 -1.0065  0.1301 -1.3140
14249TIP3    H264163   6.663   1.481   3.699 -0.4168  1.0390  0.7224
14250TIP3   OH264164   2.473   4.315   5.066  0.9471 -0.6897 -0.0430
14250TIP3    H164165   2.404   4.256   5.036  0.9386 -0.8345  0.2647
14250TIP3    H264166   2.461   4.321   5.160 -1.2164  2.5171 -0.3962
14251TIP3   OH264167   2.432   5.823   4.492  0.5031  0.0003 -0.1185
14251TIP3    H164168   2.499   5.865   4.438 -0.2238  2.4842  0.7825
14251TIP3    H264169   2.467   5.736   4.511  2.3546  0.3539 -1.6220
14252TIP3   OH264170   3.724   5.865   4.372 -0.1023 -0.0299  0.0246
14252TIP3    H164171   3.687   5.943   4.413  0.4382 -0.2897  1.0613
14252TIP3    H264172   3.685   5.792   4.421 -0.0397 -0.3916 -0.4528
14253TIP3   OH264173   2.408   1.027   9.940  0.4459 -0.4505  0.4368
14253TIP3    H164174   2.414   0.997  10.031  0.8392 -0.3816  0.4345
14253TIP3    H264175   2.493   1.067   9.922 -0.6089  2.3003  1.0246
14254TIP3   OH264176   3.047   3.951   3.541  0.4638  0.2935  0.2102
14254TIP3    H164177   3.039   4.002   3.622 -1.1751  0.3855  0.0281
14254TIP3    H264178   2.999   4.002   3.476 -0.0980 -0.8276 -0.2857
14255TIP3   OH264179   4.410   4.250   4.582 -0.1399 -0.2209 -0.3078
14255TIP3    H164180   4.468   4.209   4.646  1.5549  2.1902 -0.2060
14255TIP3    H264181   4.439   4.215   4.497  1.3804  0.7606 -0.2353
14256TIP3   OH264182   3.781   5.450   4.746 -0.0211 -0.0300  0.4999
14256TIP3    H164183   3.697   5.480   4.782 -0.0916  0.4217 -0.0194
14256TIP3    H264184   3.817   5.528   4.703  0.0839 -0.5389 -0.3524
14257TIP3   OH264185   5.745   3.151  11.778  0.0926  0.0669  0.1258
14257TIP3    H164186   5.753   3.072  11.832 -1.1842  0.5119  1.0149
14257TIP3    H264187   5.828   3.197  11.792 -0.2067  0.1717  1.7412
14258TIP3   OH264188   0.903   0.766  11.611  0.0659 -0.1159  0.1731
14258TIP3    H164189   0.989   0.806  11.603  0.6175 -1.1447  0.7548
14258TIP3    H264190   0.904   0.694  11.547  0.1107 -0.8933  1.0195
14259TIP3   OH264191   0.330   4.502   4.159 -0.1962 -0.0467  0.1721
14259TIP3    H164192   0.330   4.409   4.179 -0.5797 -0.1870 -0.4845
14259TIP3    H264193   0.248   4.535   4.197  0.5776  0.3054  1.6383
14260TIP3   OH264194   4.919   6.029  11.452 -0.0962  0.4475  0.2457
14260TIP3    H164195   4.943   5.978  11.375  1.9999  1.8006 -0.0649
14260TIP3    H264196   4.949   5.976  11.526 -0.9860 -0.2749  0.1092
14261TIP3   OH264197   0.697   0.968   5.389  0.0728 -0.4781  0.0955
14261TIP3    H164198   0.671   0.992   5.478 -1.8222  0.6654 -0.7243
14261TIP3    H264199   0.761   1.035   5.365 -1.2475  0.7030 -0.2546
14262TIP3   OH264200   0.415   1.164  12.526  0.9159  0.7738  0.0637
14262TIP3    H164201   0.476   1.174  12.452 -1.0714  0.2984 -1.7620
14262TIP3    H264202   0.423   1.072  12.551 -2.4177 -0.8026 -3.5586
14263TIP3   OH264203   5.167   0.364  13.649 -0.3307 -0.1351  0.2274
14263TIP3    H164204   5.093   0.352  13.590  0.3793 -0.7425 -0.5859
14263TIP3    H264205   5.152   0.302  13.720 -1.3045  0.7543  0.8110
14264TIP3   OH264206   6.445   3.437  14.772 -0.6586 -0.3243  0.0663
14264TIP3    H164207   6.412   3.384  14.699 -3.0358  1.2159 -0.0743
14264TIP3    H264208   6.418   3.389  14.850  1.0667 -1.4913  0.0056
14265TIP3   OH264209   3.408   6.882   4.752  0.4161  0.2898 -0.3409
14265TIP3    H164210   3.500   6.904   4.738  0.5575  0.8349  1.2121
14265TIP3    H264211   3.371   6.873   4.664  2.1531 -0.8656 -1.0025
14266TIP3   OH264212   1.054   2.934   0.866 -0.1831  1.0701 -0.0140
14266TIP3    H164213   0.993   2.941   0.793  0.1235 -0.3237 -0.4201
14266TIP3    H264214   0.999   2.909   0.940 -0.0083 -1.2732 -0.6152
14267TIP3   OH264215   2.148   4.060   4.840 -0.2378  0.2320  0.2081
14267TIP3    H164216   2.110   3.973   4.832 -1.7645  0.8182  0.7064
14267TIP3    H264217   2.101   4.113   4.777 -1.8545  1.4547  2.2952
14268TIP3   OH264218   4.589   1.561   3.408 -0.1013 -0.6421  0.0874
14268TIP3    H164219   4.540   1.507   3.345  0.4868 -0.4330 -0.5657
14268TIP3    H264220   4.676   1.522   3.411 -0.2917 -1.0146  1.2462
14269TIP3   OH264221   0.866   4.787   5.517  0.3790 -0.3257  0.5907
14269TIP3    H164222   0.780   4.756   5.488  1.0286 -1.5870 -0.0971
14269TIP3    H264223   0.848   4.866   5.568 -0.9688  1.2338 -2.0825
14270TIP3   OH264224   3.050   0.944   4.269  0.3939  0.5774 -0.3920
14270TIP3    H164225   3.012   0.963   4.184  1.4269 -1.0260 -1.2487
14270TIP3    H264226   3.142   0.971   4.261  0.7700 -0.6037 -0.1572
14271TIP3   OH264227   3.419   4.618   4.816 -0.3259 -0.4257 -0.2537
14271TIP3    H164228   3.362   4.630   4.740 -2.4218 -4.5244  0.4172
14271TIP3    H264229   3.365   4.646   4.890  0.3476  0.0927  0.0517
14272TIP3   OH264230   6.943   1.278  14.601  0.6762  0.4306 -0.6792
14272TIP3    H164231   6.921   1.196  14.645  0.5611  0.1675 -1.2233
14272TIP3    H264232   6.869   1.294  14.542  0.7189  0.9040 -0.6090
14273TIP3   OH264233   3.767   4.235   0.130 -0.5593 -0.4565 -0.3226
14273TIP3    H164234   3.746   4.164   0.069 -0.1318  0.7181 -1.9027
14273TIP3    H264235   3.729   4.313   0.089 -0.6232  0.3042  1.1493
14274TIP3   OH264236   0.912   1.499   2.778 -0.2396 -0.0596 -0.3582
14274TIP3    H164237   0.844   1.485   2.844 -0.0754  1.5856  0.1968
14274TIP3    H264238   0.865   1.533   2.702  0.0427  2.4245  0.4907
14275TIP3   OH264239   4.447   6.047   2.689  0.4327  0.3566 -0.3328
14275TIP3    H164240   4.463   5.975   2.627  1.1087 -0.2267  0.4971
14275TIP3    H264241   4.359   6.032   2.722 -0.7463  1.7781 -2.5595
14276TIP3   OH264242   1.709   4.805   3.461 -0.0883  0.4381  0.0145
14276TIP3    H164243   1.750   4.890   3.451 -0.4096  0.5633 -0.2474
14276TIP3    H264244   1.621   4.815   3.423  1.4482 -1.3512 -4.7549
14277TIP3   OH264245   0.493   6.870   3.098  0.4590 -0.5915  0.3251
14277TIP3    H164246   0.421   6.933   3.097  0.3482 -0.6795  1.2179
14277TIP3    H264247   0.500   6.840   3.008 -0.2908 -0.1996  0.1248
14278TIP3   OH264248   4.770   4.708  15.078 -0.3981  0.0664  0.0573
14278TIP3    H164249   4.776   4.804  15.086 -1.8190  0.3748 -1.8693
14278TIP3    H264250   4.684   4.687  15.114 -0.1051 -0.4868  0.4325
14279TIP3   OH264251   2.500   5.396   5.257 -0.0994  0.0286 -0.1574
14279TIP3    H164252   2.564   5.326   5.273  1.1494  1.3746  1.1774
14279TIP3    H264253   2.456   5.407   5.341  0.6032  1.6356  0.0395
14280TIP3   OH264254   4.185   3.960   1.868  0.3232 -0.3855  0.1796
14280TIP3    H164255   4.247   3.918   1.809  0.8412 -0.3381  0.6771
14280TIP3    H264256   4.217   4.050   1.877 -0.5565  0.0115 -0.5718
14281TIP3   OH264257   1.453   2.562  13.191 -0.4359  0.3998 -1.0521
14281TIP3    H164258   1.396   2.618  13.137 -0.3361  0.8818 -0.6619
14281TIP3    H264259   1.406   2.553  13.274 -0.0959  0.5342 -0.8434
14282TIP3   OH264260   3.374   1.375   2.356 -0.5652  0.0493  0.4122
14282TIP3    H164261   3.457   1.404   2.317 -1.1447 -1.3679 -2.0799
14282TIP3    H264262   3.382   1.398   2.448  3.0384 -0.9187  0.4941
14283TIP3   OH264263   1.696   6.285  14.140  1.2253 -0.0628  0.8714
14283TIP3    H164264   1.603   6.284  14.117  1.1357 -0.9613  1.2198
14283TIP3    H264265   1.728   6.368  14.105  0.6623 -0.4798 -0.7344
14284TIP3   OH264266   0.312   0.589   5.628  0.4569 -0.5064 -0.0025
14284TIP3    H164267   0.381   0.646   5.593  2.9966 -2.3775  1.5759
14284TIP3    H264268   0.302   0.617   5.719  1.3004 -2.1286  0.6148
14285TIP3   OH264269   5.389   2.418   2.396 -0.0576  0.1881 -0.0277
14285TIP3    H164270   5.464   2.378   2.352  0.0987 -0.4492  0.7896
14285TIP3    H264271   5.326   2.346   2.407 -0.1675  0.3787  0.6185
14286TIP3   OH264272   1.591   0.425   2.403  0.1188 -0.0823  0.3337
14286TIP3    H164273   1.687   0.430   2.399  0.1291 -0.6053 -0.5334
14286TIP3    H264274   1.563   0.514   2.424  0.8946 -0.5524  3.8875
14287TIP3   OH264275   6.525   4.472   5.793 -0.6808  0.5490  0.2781
14287TIP3    H164276   6.471   4.463   5.714  0.7736  1.1078 -0.8181
14287TIP3    H264277   6.509   4.391   5.842 -1.2602 -0.0118 -0.8002
14288TIP3   OH264278   0.447   3.856   2.842  0.1455 -0.0986  0.6029
14288TIP3    H164279   0.457   3.783   2.902  0.5236 -1.7594 -1.3780
14288TIP3    H264280   0.366   3.839   2.795 -0.1099  1.1140  0.5508
14289TIP3   OH264281   5.064   6.735  14.133  0.0351  0.3418  0.1473
14289TIP3    H164282   5.048   6.645  14.161 -0.6227  0.5378  0.4196
14289TIP3    H264283   5.054   6.787  14.212  2.9043  0.4324  0.5426
14290TIP3   OH264284   0.299   5.017   1.292 -0.3143  0.0927  0.1490
14290TIP3    H164285   0.266   5.031   1.380 -0.7890 -0.8301  0.1323
14290TIP3    H264286   0.221   5.013   1.237 -0.3558 -3.0565  0.2446
14291TIP3   OH264287   5.637   4.347  13.416 -0.3730 -1.0305 -0.4417
14291TIP3    H164288   5.640   4.319  13.508  1.4171  0.9468  0.1861
14291TIP3    H264289   5.580   4.424  13.416  0.6988 -0.2195 -0.7062
14292TIP3   OH264290   0.678   1.792   0.990 -0.0100  0.2649 -0.0064
14292TIP3    H164291   0.607   1.825   0.935  0.9683 -0.0902 -1.5592
14292TIP3    H264292   0.637   1.723   1.043 -1.2301  1.3816  0.5535
14293TIP3   OH264293   0.859   3.777   0.390  0.7433  0.4444 -0.4383
14293TIP3    H164294   0.806   3.700   0.370  0.1413  1.0380 -1.2352
14293TIP3    H264295   0.928   3.745   0.447 -0.9276 -0.2079  1.3382
14294TIP3   OH264296   6.193   6.950   0.494  0.2072  0.0669 -0.5175
14294TIP3    H164297   6.121   6.966   0.554 -0.6426 -2.6200 -0.6734
14294TIP3    H264298   6.271   6.981   0.541 -0.5358 -1.0901  1.6225
14295TIP3   OH264299   5.377   4.065  14.364  0.8321 -0.5057  0.0486
14295TIP3    H164300   5.400   4.156  14.348  1.1549 -0.3463  1.3056
14295TIP3    H264301   5.307   4.047  14.301 -0.0247  0.9545  0.5359
14296TIP3   OH264302   4.338   4.091   3.433  0.2615  0.4354 -0.2793
14296TIP3    H164303   4.333   3.996   3.441  0.0710  0.5032  0.4545
14296TIP3    H264304   4.431   4.111   3.441  0.3566  0.2788 -0.9111
14297TIP3   OH264305   3.405   5.765  12.604  0.3595 -0.0434  0.3652
14297TIP3    H164306   3.350   5.829  12.558  0.2671 -0.2792  0.1471
14297TIP3    H264307   3.382   5.681  12.565  0.7742 -0.1625  0.3699
14298TIP3   OH264308   5.260   0.678   5.410 -0.0586  0.4373 -0.1828
14298TIP3    H164309   5.333   0.623   5.381 -1.0881 -0.9102 -0.3260
14298TIP3    H264310   5.261   0.671   5.506  0.0778  0.5391 -0.1763
14299TIP3   OH264311   2.026   3.702  13.445 -0.3213 -0.1245 -0.1086
14299TIP3    H164312   1.958   3.711  13.512 -0.3420  0.0897 -0.1564
14299TIP3    H264313   2.108   3.717  13.492 -0.2247 -1.3385  0.1455
14300TIP3   OH264314   1.801   0.070  10.819  0.0617 -0.1413 -0.0523
14300TIP3    H164315   1.870   0.006  10.837 -0.5304 -0.6633  0.4085
14300TIP3    H264316   1.720   0.019  10.823 -0.5369  0.8469  1.5676
14301TIP3   OH264317   5.480   0.839   5.734 -0.1173 -0.7883  0.3862
14301TIP3    H164318   5.411   0.773   5.735 -0.6325 -0.2659  1.7376
14301TIP3    H264319   5.450   0.904   5.670  0.9936 -2.4027 -1.9203
14302TIP3   OH264320   5.995   2.308   1.949  0.1078  0.0389 -0.1983
14302TIP3    H164321   5.958   2.284   2.034 -0.7956 -1.0708 -0.8724
14302TIP3    H264322   6.086   2.281   1.953  0.0396 -0.1109  0.3821
14303TIP3   OH264323   2.590   7.142  12.571 -0.2071 -0.5536 -0.3846
14303TIP3    H164324   2.589   7.105  12.483 -1.8146 -1.0492 -0.1914
14303TIP3    H264325   2.504   7.121  12.607  0.2670 -0.0000  1.1613
14304TIP3   OH264326   1.714   2.787  14.743  0.0425 -0.8039 -0.0026
14304TIP3    H164327   1.629   2.744  14.744 -0.4400  0.1142  1.0861
14304TIP3    H264328   1.776   2.720  14.771 -0.4102 -1.2921 -0.1589
14305TIP3   OH264329   0.583   0.294  14.695  0.2916  0.3591  0.0163
14305TIP3    H164330   0.542   0.291  14.609 -0.5446  0.6870  0.3868
14305TIP3    H264331   0.537   0.229  14.747  0.7080  0.2456  0.2516
14306TIP3   OH264332   2.006   6.229  14.805 -0.3843 -0.4613 -0.4417
14306TIP3    H164333   1.964   6.216  14.720 -0.6143  0.5290 -0.4920
14306TIP3    H264334   2.071   6.159  14.811 -1.2512 -1.3126 -0.8614
14307TIP3   OH264335   1.689   2.682   5.116  0.0246  0.7779  0.1640
14307TIP3    H164336   1.664   2.664   5.207 -1.4523  1.8015 -0.0012
14307TIP3    H264337   1.689   2.596   5.074  1.7232  0.1525  1.3164
14308TIP3   OH264338   6.212   0.358   0.495 -0.3630  0.0506  0.6521
14308TIP3    H164339   6.121   0.332   0.505 -0.4426  0.5335  1.2330
14308TIP3    H264340   6.257   0.316   0.569  0.0261 -0.8220 -0.0713
14309TIP3   OH264341   4.677   2.910   4.886  0.2231 -0.1309  0.0014
14309TIP3    H164342   4.731   2.952   4.953  0.3537 -0.8156  0.3351
14309TIP3    H264343   4.588   2.940   4.904  0.0549 -1.3281  1.3160
14310TIP3   OH264344   0.960   2.004   5.575  0.5497  0.4063  0.0341
14310TIP3    H164345   0.875   1.958   5.579  0.8139 -0.0341  0.8851
14310TIP3    H264346   0.978   2.029   5.665  1.5050  0.1592 -0.0722
14311TIP3   OH264347   4.615   2.810  12.634  0.2523 -0.2064 -0.5006
14311TIP3    H164348   4.649   2.878  12.575  1.2061  0.0245  0.2886
14311TIP3    H264349   4.618   2.730  12.583  0.0507  0.1725 -1.1171
14312TIP3   OH264350   5.437   2.650   5.205  0.2877 -0.0191  0.0334
14312TIP3    H164351   5.376   2.715   5.170  1.1549  0.4854 -0.5635
14312TIP3    H264352   5.452   2.678   5.295  1.8002  1.5076 -0.6419
14313TIP3   OH264353   0.622   2.168   5.335  0.2059 -0.4628 -0.1446
14313TIP3    H164354   0.584   2.213   5.411 -0.8203  0.7390 -1.3039
14313TIP3    H264355   0.591   2.078   5.342  0.0277 -0.3400  0.7912
14314TIP3   OH264356   2.952   5.035   4.550 -0.3134 -0.4423  0.2388
14314TIP3    H164357   2.874   4.982   4.571  0.1412 -1.7275 -1.1009
14314TIP3    H264358   2.916   5.121   4.526 -1.1413 -0.3572  1.6959
14315TIP3   OH264359   5.831   3.113   5.460  0.3711 -0.2570 -0.2844
14315TIP3    H164360   5.898   3.176   5.486  0.0280  0.5612 -1.3158
14315TIP3    H264361   5.809   3.138   5.370 -1.4413 -0.3904  0.0955
14316TIP3   OH264362   0.404   1.097   0.769 -0.3172  0.3915  0.2844
14316TIP3    H164363   0.444   1.062   0.689  1.6248  1.4247  0.7412
14316TIP3    H264364   0.394   1.021   0.826 -1.0162 -0.2310 -0.6339
14317TIP3   OH264365   1.373   2.038  10.882  0.2610  0.7069 -0.0499
14317TIP3    H164366   1.288   2.034  10.838  0.3396  1.0807 -0.2331
14317TIP3    H264367   1.384   1.950  10.919  0.9679 -0.1497 -2.1881
14318TIP3   OH264368   7.111   1.308   5.373  0.1825  0.0522  0.5443
14318TIP3    H164369   7.175   1.354   5.320  0.4588  0.0664  0.8824
14318TIP3    H264370   7.157   1.229   5.402 -0.9790 -1.6258 -1.8542
14319TIP3   OH264371   3.627   0.026   1.924 -0.7177 -0.1336 -0.4157
14319TIP3    H164372   3.537   0.059   1.928 -1.2307 -1.5416 -0.0122
14319TIP3    H264373   3.661   0.062   1.842 -1.2173  1.4038  0.0016
14320TIP3   OH264374   0.022   2.977   4.146 -0.4412  0.1796 -0.3283
14320TIP3    H164375  -0.051   3.037   4.158 -1.8685 -1.3740 -0.9116
14320TIP3    H264376   0.046   2.987   4.053 -0.2764  0.3045 -0.2713
14321TIP3   OH264377   4.110   2.436  13.408  0.1824  0.0520 -0.3313
14321TIP3    H164378   4.170   2.507  13.383  0.1774 -0.0581 -0.6708
14321TIP3    H264379   4.090   2.452  13.500  2.0666 -0.8711  0.2845
14322TIP3   OH264380   5.951   1.642   0.935  0.3611 -0.5004  0.1607
14322TIP3    H164381   5.878   1.601   0.888 -0.6209 -1.0334  2.0330
14322TIP3    H264382   5.990   1.570   0.985  1.6501 -0.0424 -0.1564
14323TIP3   OH264383   4.083   7.126   2.389  0.0379 -0.3533 -0.5085
14323TIP3    H164384   4.055   7.155   2.302  0.1276 -1.1006 -0.7854
14323TIP3    H264385   4.062   7.200   2.446  1.1685  0.6678 -1.3651
14324TIP3   OH264386   3.588   2.843   1.882 -0.3880  0.1368 -0.2281
14324TIP3    H164387   3.573   2.750   1.899 -0.3296 -0.2403 -2.0550
14324TIP3    H264388   3.662   2.865   1.938 -0.9552 -0.6736  0.8965
14325TIP3   OH264389   3.434   2.563   0.393 -0.3301  0.7658  0.3074
14325TIP3    H164390   3.447   2.493   0.329  1.6407  0.3942  1.0349
14325TIP3    H264391   3.420   2.642   0.340 -0.8162  0.1300 -0.5318
14326TIP3   OH264392   4.298   5.738   0.698  0.1000 -0.0330 -0.0509
14326TIP3    H164393   4.357   5.803   0.736  2.5228 -2.3395  0.4985
14326TIP3    H264394   4.328   5.730   0.607  1.1892 -1.6767  0.4048
14327TIP3   OH264395   7.140   1.142  12.960  0.4591  0.0949 -0.5608
14327TIP3    H164396   7.062   1.151  12.907  0.6335  0.3739 -0.7763
14327TIP3    H264397   7.113   1.092  13.036 -0.1243  0.8756 -0.2389
14328TIP3   OH264398   3.545   1.129   4.022 -0.5264  0.2894 -0.1559
14328TIP3    H164399   3.555   1.054   3.963  0.4675 -0.1366  0.5261
14328TIP3    H264400   3.607   1.194   3.990 -1.4469  0.8784 -0.7962
14329TIP3   OH264401   2.652   4.829  12.702 -0.1971 -1.1991  0.4097
14329TIP3    H164402   2.633   4.912  12.745  0.7416 -0.2560 -0.8996
14329TIP3    H264403   2.741   4.839  12.670 -0.8282 -1.8289 -1.7044
14330TIP3   OH264404   3.127   0.702  12.717 -0.3635  0.2045  0.2871
14330TIP3    H164405   3.120   0.742  12.630  2.6808 -1.1768 -0.7283
14330TIP3    H264406   3.213   0.731  12.749 -0.9248 -0.2858  2.3502
14331TIP3   OH264407   2.924   6.957  14.665 -0.1727 -0.1075 -0.3906
14331TIP3    H164408   2.931   7.004  14.748  0.7494 -0.1528 -0.4347
14331TIP3    H264409   3.014   6.943  14.637 -0.4562 -0.7462 -1.0347
14332TIP3   OH264410   0.761   3.300   5.336  0.5648 -0.8702 -0.5443
14332TIP3    H164411   0.713   3.261   5.409  0.4142 -1.4227 -0.9327
14332TIP3    H264412   0.786   3.387   5.367 -0.5324 -0.6397 -0.2715
14333TIP3   OH264413   6.572   0.130   4.342  0.2334  0.3848  0.3238
14333TIP3    H164414   6.520   0.211   4.345  0.9731  0.9164 -0.5467
14333TIP3    H264415   6.634   0.144   4.270  0.5175 -0.8800  0.2954
14334TIP3   OH264416   4.651   4.196   1.171  0.2824  0.2997  0.1573
14334TIP3    H164417   4.627   4.247   1.249 -1.4323  0.2920 -0.3112
14334TIP3    H264418   4.600   4.115   1.180  1.2538 -0.3703 -0.2205
14335TIP3   OH264419   5.664   3.269   0.241  0.6249  0.2467  0.0495
14335TIP3    H164420   5.682   3.289   0.333  0.9763 -0.7438  0.2079
14335TIP3    H264421   5.750   3.249   0.204  0.3545 -0.4234 -0.2257
14336TIP3   OH264422   5.662   2.063   1.890  0.5468  0.2213  0.4148
14336TIP3    H164423   5.628   2.153   1.890 -1.5837 -0.5171 -0.4633
14336TIP3    H264424   5.678   2.044   1.982 -0.3502  1.0310  0.7592
14337TIP3   OH264425   1.794   3.368  11.623  0.1119  0.6895  0.0006
14337TIP3    H164426   1.720   3.322  11.583  0.2696  1.0696 -0.7407
14337TIP3    H264427   1.803   3.328  11.709  0.6396 -1.1096 -0.8439
14338TIP3   OH264428   5.597   3.540  10.408  0.0623  0.0940 -0.4953
14338TIP3    H164429   5.564   3.528  10.497 -1.4094 -2.3266 -1.2470
14338TIP3    H264430   5.544   3.611  10.372 -0.7995 -0.3158 -0.0658
14339TIP3   OH264431   5.575   3.122  10.905  0.7108 -0.0762 -0.1211
14339TIP3    H164432   5.581   3.031  10.935 -0.3236 -0.5274 -1.2020
14339TIP3    H264433   5.656   3.136  10.856  1.0214 -0.3075  0.3216
14340TIP3   OH264434   1.917   3.115  13.072 -0.3706  0.1909  0.5472
14340TIP3    H164435   2.010   3.094  13.067 -0.4446 -0.2119  0.8085
14340TIP3    H264436   1.914   3.209  13.091  0.0288 -0.1831  2.7571
14341TIP3   OH264437   2.664   2.264   5.231  0.5903  0.1758 -0.5656
14341TIP3    H164438   2.746   2.296   5.269  0.3726  0.7738 -0.5874
14341TIP3    H264439   2.610   2.343   5.220 -0.9610 -0.4517  1.8068
14342TIP3   OH264440   5.223   5.068  15.204 -0.3639  0.7487  0.6807
14342TIP3    H164441   5.248   5.094  15.292 -1.0830  0.4867  0.9682
14342TIP3    H264442   5.202   4.975  15.212  2.0217  0.0434 -0.2877
14343TIP3   OH264443   5.079   6.416  13.703 -0.2453  0.1001  0.2316
14343TIP3    H164444   5.035   6.475  13.765  1.4802  1.3246  0.3683
14343TIP3    H264445   5.008   6.364  13.665 -1.7912  1.8793  0.5096
14344TIP3   OH264446   2.768   0.903   5.287 -0.6875 -0.6498 -0.2181
14344TIP3    H164447   2.797   0.899   5.195  0.6210  3.4975 -0.1734
14344TIP3    H264448   2.849   0.893   5.338 -0.4274  2.5930  0.1850
14345TIP3   OH264449   2.122   2.479  14.773  0.1410 -0.0598 -0.4230
14345TIP3    H164450   2.184   2.494  14.701  0.7062  2.8181  0.5229
14345TIP3    H264451   2.175   2.445  14.844  0.4513  1.2284 -0.0138
14346TIP3   OH264452   2.130   6.377  10.317 -0.5164 -0.0012  0.5615
14346TIP3    H164453   2.086   6.351  10.236  0.7964  3.3152 -1.4302
14346TIP3    H264454   2.222   6.351  10.304 -0.5628 -0.7493  1.6505
14347TIP3   OH264455   2.251   2.296   3.578 -0.0181 -0.0524 -0.4301
14347TIP3    H164456   2.294   2.322   3.660  0.9486  0.1783 -0.9997
14347TIP3    H264457   2.320   2.255   3.526 -0.8831 -1.2318 -0.6940
14348TIP3   OH264458   2.409   4.115   1.248 -0.2880  0.1531 -0.0402
14348TIP3    H164459   2.377   4.062   1.175 -0.5663 -0.7951  0.7600
14348TIP3    H264460   2.484   4.163   1.211 -0.4915 -0.2267 -0.9744
14349TIP3   OH264461   5.060   6.801  10.750  0.2874 -0.3608 -0.3963
14349TIP3    H164462   5.140   6.830  10.706 -0.6152  1.1256 -1.1319
14349TIP3    H264463   4.989   6.828  10.692 -0.7493 -2.5741 -0.2720
14350TIP3   OH264464   0.056   4.154   5.251  0.0932  0.1101 -0.0538
14350TIP3    H164465   0.014   4.069   5.234 -2.3281  1.4803 -1.6022
14350TIP3    H264466   0.099   4.176   5.169  0.4896  0.4831  0.2530
14351TIP3   OH264467   4.944   6.010   0.044 -0.7407  0.2302 -0.0812
14351TIP3    H164468   4.980   5.929   0.009 -1.2364  0.5717 -1.4170
14351TIP3    H264469   4.851   5.992   0.054 -0.9801  0.8531 -1.0762
14352TIP3   OH264470   0.905   1.662   3.970  0.7337  0.0983  0.2069
14352TIP3    H164471   0.980   1.606   3.953 -0.4385 -0.9059 -2.0663
14352TIP3    H264472   0.924   1.743   3.921  0.8560  0.3084  0.5998
14353TIP3   OH264473   5.048   2.599  13.371  0.3618  1.0887 -0.1488
14353TIP3    H164474   5.098   2.677  13.394  2.0856  0.1614 -0.6214
14353TIP3    H264475   4.996   2.626  13.295 -0.0501  2.1166  0.4653
14354TIP3   OH264476   4.497   4.156   2.482  0.9574 -0.2040 -0.0226
14354TIP3    H164477   4.492   4.239   2.530  0.3981 -0.0892 -0.2652
14354TIP3    H264478   4.405   4.132   2.467  1.1092 -1.0766  0.3936
14355TIP3   OH264479   6.068   4.590   3.617  0.0559  0.5250  0.7908
14355TIP3    H164480   6.062   4.501   3.583 -0.1257  1.2180 -1.0985
14355TIP3    H264481   6.085   4.579   3.711  1.8945 -1.4815  0.2980
14356TIP3   OH264482   2.716   3.493   0.778  0.1620  0.1376  1.0237
14356TIP3    H164483   2.780   3.454   0.718  0.1286  1.4491  0.1111
14356TIP3    H264484   2.634   3.446   0.759  0.5555 -0.6944  1.3291
14357TIP3   OH264485   0.188   1.892   2.837 -0.5542  0.2694 -0.1398
14357TIP3    H164486   0.201   1.879   2.743 -0.0795  0.1576 -0.0627
14357TIP3    H264487   0.243   1.825   2.878 -0.2645  0.7212  0.2242
14358TIP3   OH264488   1.280   0.019   2.178  0.2038 -0.0684  0.0274
14358TIP3    H164489   1.275   0.015   2.082 -0.4538  2.6226 -0.1300
14358TIP3    H264490   1.366   0.058   2.196  0.7339 -1.4579  0.6085
14359TIP3   OH264491   6.218   6.084   1.574  0.0352  0.0363  0.1262
14359TIP3    H164492   6.203   6.007   1.519  1.0675  0.3654 -0.6526
14359TIP3    H264493   6.309   6.076   1.602 -0.3894  0.0264  1.5810
14360TIP3   OH264494   1.548   6.136  12.909 -0.0329  0.5507  0.0907
14360TIP3    H164495   1.527   6.113  12.819 -0.3910  3.3440 -0.6260
14360TIP3    H264496   1.471   6.110  12.960 -0.8098  1.0334 -0.8135
14361TIP3   OH264497   7.023   6.122  14.592 -0.1292 -0.3923  0.2541
14361TIP3    H164498   7.003   6.194  14.532 -1.1180 -1.3089 -0.5563
14361TIP3    H264499   6.968   6.050  14.563 -0.5670 -0.9171  2.2166
14362TIP3   OH264500   1.739   4.118   5.280  0.1089  0.1337  0.0807
14362TIP3    H164501   1.680   4.070   5.221 -2.1299 -0.1265  2.3830
14362TIP3    H264502   1.825   4.080   5.264 -0.6224 -0.7776 -2.0778
14363TIP3   OH264503   5.807   5.944   0.562 -0.3951  0.7042  0.5541
14363TIP3    H164504   5.766   5.977   0.642 -0.9514  0.6968  0.2796
14363TIP3    H264505   5.893   5.914   0.590  0.0209  2.1225  0.8706
14364TIP3   OH264506   6.042   5.339   5.184  0.1518  0.1474  0.2959
14364TIP3    H164507   5.964   5.287   5.200  0.0614 -0.2927 -1.4435
14364TIP3    H264508   6.014   5.430   5.199 -0.3571 -0.0946  0.8460
14365TIP3   OH264509   5.750   2.799   2.756  0.2964 -0.3731 -0.4897
14365TIP3    H164510   5.822   2.857   2.730  0.3203 -0.3077 -0.2772
14365TIP3    H264511   5.708   2.776   2.673  0.5164 -0.3529 -0.6103
14366TIP3   OH264512   1.523   6.412   5.232  0.4962 -0.2057 -0.0144
14366TIP3    H164513   1.548   6.500   5.204  0.8877  0.2856  1.7159
14366TIP3    H264514   1.605   6.373   5.264  0.0593 -0.6380  0.6033
14367TIP3   OH264515   6.833   4.924   1.566 -0.3517  0.2715  0.0013
14367TIP3    H164516   6.776   4.928   1.642  0.5541  2.2159  0.6455
14367TIP3    H264517   6.819   5.007   1.521  0.1654 -0.2627 -1.1752
14368TIP3   OH264518   5.553   0.294   5.373  0.0737 -0.3853  0.1172
14368TIP3    H164519   5.587   0.240   5.302  0.7788  0.7270 -0.4295
14368TIP3    H264520   5.458   0.286   5.367  0.1498 -2.7933  1.0543
14369TIP3   OH264521   0.993   1.188   5.470 -0.3623  0.0276 -0.2871
14369TIP3    H164522   0.948   1.229   5.543 -1.4796  0.6219 -1.2844
14369TIP3    H264523   0.946   1.217   5.392 -0.0165 -1.6178 -1.1688
14370TIP3   OH264524   6.428   1.659  13.349  0.1828  0.2839  0.2951
14370TIP3    H164525   6.426   1.643  13.444 -0.7626 -0.8967  0.0910
14370TIP3    H264526   6.459   1.577  13.311  0.9926  0.8945 -0.4120
14371TIP3   OH264527   2.107   7.097   5.030  0.7786 -0.1504  0.5087
14371TIP3    H164528   2.077   7.007   5.016 -0.5963  0.6059 -1.9805
14371TIP3    H264529   2.098   7.139   4.944  0.9227  2.5105  1.7058
14372TIP3   OH264530   1.071   4.022   5.627  0.0932  0.4914  0.1798
14372TIP3    H164531   1.161   3.993   5.636  0.6350  2.0930  0.2303
14372TIP3    H264532   1.050   4.007   5.535  1.0576  1.7929 -0.2787
14373TIP3   OH264533   5.481   5.990   2.685  0.3594 -0.6060  0.3096
14373TIP3    H164534   5.521   6.071   2.715 -0.8994 -0.6802  2.3614
14373TIP3    H264535   5.411   6.019   2.626  2.3458 -0.4266 -2.1003
14374TIP3   OH264536   6.595   1.109   1.054 -0.6872  0.1010  0.2481
14374TIP3    H164537   6.668   1.062   1.093  0.5111  1.3995 -0.3631
14374TIP3    H264538   6.562   1.165   1.124 -1.8268 -1.2316  0.8401
14375TIP3   OH264539   6.754   5.172   0.962 -0.1489  0.3722  0.0182
14375TIP3    H164540   6.769   5.103   0.898 -2.7104  0.3803 -0.6759
14375TIP3    H264541   6.779   5.132   1.046 -0.2649 -0.9174 -0.5427
14376TIP3   OH264542   4.812   1.464  15.245  0.0637 -0.2563 -0.3991
14376TIP3    H164543   4.725   1.438  15.216 -0.2084  0.5938 -0.3720
14376TIP3    H264544   4.863   1.473  15.165  0.5834 -2.2587 -0.3395
14377TIP3   OH264545   6.891   1.722  14.333  0.6279  0.2832  0.1930
14377TIP3    H164546   6.927   1.809  14.349 -0.2792  0.4258  1.5494
14377TIP3    H264547   6.825   1.736  14.265  0.9205  0.5385 -0.0438
14378TIP3   OH264548   2.246   0.220   2.227 -0.6304  0.3621 -0.0482
14378TIP3    H164549   2.282   0.259   2.147 -1.8936  1.8619  0.0730
14378TIP3    H264550   2.309   0.242   2.295  0.1549 -0.4211 -0.4954
14379TIP3   OH264551   6.108   0.986   1.921 -0.4925  0.0755  0.0691
14379TIP3    H164552   6.047   1.001   1.848  0.2651  0.7839 -0.4325
14379TIP3    H264553   6.086   0.898   1.952 -1.1065 -0.0728 -0.7452
14380TIP3   OH264554   1.114   0.141   4.242 -0.4138 -0.3256 -0.1786
14380TIP3    H164555   1.171   0.064   4.248  0.9989  0.7595  1.4853
14380TIP3    H264556   1.029   0.110   4.273  0.1446 -1.2229  0.5454
14381TIP3   OH264557   7.018   5.904   3.987  0.4918 -0.4670 -0.0672
14381TIP3    H164558   6.929   5.878   4.011  0.7962  0.0279  1.7551
14381TIP3    H264559   7.033   5.862   3.903 -0.6764 -2.4349  0.6292
14382TIP3   OH264560   0.326   1.412   2.428 -0.3570  0.3159 -0.2129
14382TIP3    H164561   0.266   1.357   2.478 -1.6691  1.6166 -0.2897
14382TIP3    H264562   0.275   1.491   2.407  1.6924  2.0043  0.7134
14383TIP3   OH264563   3.429   6.105   0.340  0.1440  0.0094 -0.1812
14383TIP3    H164564   3.415   6.197   0.315  0.9028 -0.3255 -2.0207
14383TIP3    H264565   3.524   6.095   0.339  0.0357 -1.0883 -1.2046
14384TIP3   OH264566   0.145   5.432   2.997  0.7351  0.2772 -0.2421
14384TIP3    H164567   0.205   5.382   3.053  0.6990 -1.3115 -1.5445
14384TIP3    H264568   0.191   5.443   2.914  0.1257  1.0852 -0.4940
14385TIP3   OH264569   3.038   2.938   2.773 -0.0180  0.1331  0.4157
14385TIP3    H164570   3.115   2.933   2.830  0.5698 -0.0212 -0.3756
14385TIP3    H264571   3.068   2.905   2.689 -0.7300  0.8471 -0.1347
14386TIP3   OH264572   0.044   0.531   1.375 -0.4232 -0.3302  0.1383
14386TIP3    H164573   0.123   0.539   1.322 -0.9647  2.8198 -0.4159
14386TIP3    H264574   0.075   0.535   1.465  0.1420 -0.1295 -0.0585
14387TIP3   OH264575   6.500   6.380   1.496 -0.1031 -0.1104  0.9013
14387TIP3    H164576   6.574   6.374   1.435  0.3477  1.8099  1.1826
14387TIP3    H264577   6.430   6.332   1.453  1.1759 -1.6690  0.4490
14388TIP3   OH264578   2.862   6.077   2.977  0.7657 -0.2549 -0.5848
14388TIP3    H164579   2.832   6.012   2.914  1.3453 -1.3625  0.2483
14388TIP3    H264580   2.850   6.035   3.062  2.4736  0.1595 -0.1009
14389TIP3   OH264581   3.124   1.680  15.234 -0.7116 -0.1020 -0.5198
14389TIP3    H164582   3.046   1.713  15.278  0.2911 -0.4938  1.6943
14389TIP3    H264583   3.196   1.733  15.270 -0.0174  1.1518 -3.4498
14390TIP3   OH264584   6.936   6.377   5.448 -0.2299  0.0719  0.6543
14390TIP3    H164585   6.974   6.400   5.533  1.5710 -0.2661 -0.0098
14390TIP3    H264586   6.995   6.417   5.384 -1.0850 -0.3893 -0.4486
14391TIP3   OH264587   0.431   4.177  15.054  0.0935  0.9332 -0.4600
14391TIP3    H164588   0.481   4.247  15.095 -0.9909  1.8494 -0.6493
14391TIP3    H264589   0.372   4.145  15.123 -0.2147  0.9994 -0.6871
14392TIP3   OH264590   6.397   0.655  15.073 -0.9571 -0.1273 -0.3323
14392TIP3    H164591   6.469   0.697  15.025 -0.7855  1.2767  1.0572
14392TIP3    H264592   6.439   0.583  15.119 -0.1261  1.3741  1.3895
14393TIP3   OH264593   6.301   6.879  15.466  0.3926 -0.1940 -0.0785
14393TIP3    H164594   6.337   6.940  15.531  1.9329 -1.6060  0.4624
14393TIP3    H264595   6.326   6.917  15.382 -0.1380  0.7636  0.1712
14394TIP3   OH264596   2.792   3.036  11.621 -0.2004  0.0453  0.0100
14394TIP3    H164597   2.822   3.002  11.705 -0.4777  1.0630  0.5280
14394TIP3    H264598   2.854   2.999  11.557  1.0524  0.6495  0.8476
14395TIP3   OH264599   5.460   2.362  13.013  0.2478 -0.2259 -0.5178
14395TIP3    H164600   5.437   2.293  13.075 -0.6688 -0.1184 -0.7119
14395TIP3    H264601   5.380   2.374  12.961  0.6745  0.3845 -1.0472
14396TIP3   OH264602   2.762   5.516  12.631  0.0083 -0.2521  0.6729
14396TIP3    H164603   2.828   5.454  12.600 -1.5291 -1.6088 -0.0086
14396TIP3    H264604   2.734   5.480  12.715  0.2797  0.4626  1.0821
14397TIP3   OH264605   0.468   1.820   2.052 -0.2629  0.7590 -0.1810
14397TIP3    H164606   0.549   1.819   2.103 -0.5521 -0.4851  0.3067
14397TIP3    H264607   0.493   1.851   1.966  0.7310  0.4167 -0.0207
14398TIP3   OH264608   1.956   0.153   3.466  0.2941 -0.0249  0.0778
14398TIP3    H164609   1.871   0.142   3.423 -0.9704  0.4850  2.3156
14398TIP3    H264610   1.979   0.244   3.450 -0.2865  0.2295  0.6610
14399TIP3   OH264611   4.882   3.545  13.383  0.0265 -0.2663 -0.5330
14399TIP3    H164612   4.959   3.548  13.327 -0.9010 -0.1847 -1.8392
14399TIP3    H264613   4.902   3.478  13.448  1.2646 -0.1035 -0.7243
14400TIP3   OH264614   5.815   4.603   5.246  0.0716  0.6809 -0.2637
14400TIP3    H164615   5.849   4.519   5.215  0.1259  0.9916 -1.0903
14400TIP3    H264616   5.862   4.620   5.327 -1.7276 -1.2588  1.2875
14401TIP3   OH264617   4.217   3.056  13.615  0.2679 -0.3591  0.1090
14401TIP3    H164618   4.210   3.018  13.702  0.0653  1.7949  1.1085
14401TIP3    H264619   4.293   3.115  13.621 -0.0063  0.1315 -1.0424
14402TIP3   OH264620   3.010   1.865   4.314 -0.7110  0.1769 -0.4856
14402TIP3    H164621   2.936   1.810   4.289 -0.4402 -0.9412  1.0363
14402TIP3    H264622   3.086   1.823   4.274 -0.4326 -0.9365  1.1156
14403TIP3   OH264623   6.723   5.922   3.923  0.3687  0.3930 -0.4427
14403TIP3    H164624   6.724   5.973   4.004  0.2673 -1.2743  0.6594
14403TIP3    H264625   6.638   5.942   3.884  0.0968  0.6601  0.2609
14404TIP3   OH264626   5.338   1.630   4.851  0.1065  0.3550 -0.1105
14404TIP3    H164627   5.354   1.553   4.798 -0.7929 -0.8725  1.3136
14404TIP3    H264628   5.251   1.616   4.889 -0.6161  2.6492 -0.7397
14405TIP3   OH264629   0.508   6.981  10.826  0.5873  0.2260 -0.0476
14405TIP3    H164630   0.421   6.944  10.838  1.2718 -0.8595  2.0484
14405TIP3    H264631   0.560   6.908  10.791  0.9086  0.5405 -0.2348
14406TIP3   OH264632   6.517   3.932   3.363  0.1471  0.1329  0.4544
14406TIP3    H164633   6.454   3.987   3.410  1.6475  2.0420  0.3543
14406TIP3    H264634   6.556   3.877   3.431 -0.8857 -0.3714  0.6668
14407TIP3   OH264635   5.754   0.275   3.769  0.3515 -0.3162  0.1401
14407TIP3    H164636   5.739   0.359   3.725 -0.2945  0.4547  1.7662
14407TIP3    H264637   5.849   0.273   3.785  0.5302 -0.4079 -0.8353
14408TIP3   OH264638   2.485   0.640  11.747 -0.3046 -0.6855  0.0239
14408TIP3    H164639   2.458   0.723  11.786  2.4654  1.3010 -1.8438
14408TIP3    H264640   2.558   0.611  11.801  1.0132  0.0418 -1.2793
14409TIP3   OH264641   2.390   1.569   2.531 -0.4847 -0.1093 -0.5801
14409TIP3    H164642   2.421   1.492   2.579  1.3862  0.6899 -0.4055
14409TIP3    H264643   2.435   1.563   2.447  0.1497  1.0722 -0.3416
14410TIP3   OH264644   4.094   1.389   4.786  0.8223  0.0854 -0.3160
14410TIP3    H164645   4.126   1.463   4.836 -0.9615  0.1109  0.8739
14410TIP3    H264646   4.065   1.326   4.852  0.6289 -0.9085 -1.3115
14411TIP3   OH264647   1.829   5.035   1.193  0.0776  0.5891 -0.0143
14411TIP3    H164648   1.837   5.027   1.098 -1.6657 -1.6633 -0.0669
14411TIP3    H264649   1.752   5.090   1.206 -0.0906  0.3413  0.0570
14412TIP3   OH264650   6.345   7.067   4.542 -0.2243  0.2046 -0.0675
14412TIP3    H164651   6.391   7.095   4.463  0.3174  1.2614  0.5989
14412TIP3    H264652   6.410   7.018   4.592 -0.5941 -0.5488 -0.3103
14413TIP3   OH264653   5.123   6.992   0.919 -0.1380  0.4066 -0.4949
14413TIP3    H164654   5.028   6.976   0.914  0.0086 -0.1609 -1.6570
14413TIP3    H264655   5.152   6.933   0.989 -0.8637  1.8070  1.0613
14414TIP3   OH264656   5.316   2.154  14.616 -0.2907  0.0602  0.3750
14414TIP3    H164657   5.394   2.131  14.565 -1.3034  1.0778 -1.7877
14414TIP3    H264658   5.339   2.134  14.706  1.7881 -1.4301 -0.4099
14415TIP3   OH264659   6.506   1.944  14.667 -0.5024  0.7531 -0.1867
14415TIP3    H164660   6.563   2.001  14.719  0.0096  0.6077 -0.5898
14415TIP3    H264661   6.435   1.920  14.728  0.6467 -0.2891  0.8010
14416TIP3   OH264662   0.815   0.848   0.200  0.3710 -0.0170  0.2487
14416TIP3    H164663   0.731   0.831   0.242 -0.6908  1.6795 -1.0623
14416TIP3    H264664   0.866   0.895   0.266  0.1119 -0.5627  0.8534
14417TIP3   OH264665   6.145   1.382   3.967  0.2086 -0.0005 -0.4480
14417TIP3    H164666   6.111   1.348   4.050 -0.8676  0.3387 -0.7338
14417TIP3    H264667   6.219   1.437   3.992 -0.0934  0.0871  0.2814
14418TIP3   OH264668   1.410   6.101   5.326  0.1449  0.2589  0.5628
14418TIP3    H164669   1.356   6.129   5.400 -0.9383 -0.4515  0.0702
14418TIP3    H264670   1.495   6.142   5.341 -0.9683  2.7120  0.5303
14419TIP3   OH264671   2.410   2.420  14.436  0.3154  0.2946 -0.4142
14419TIP3    H164672   2.475   2.357  14.405 -0.4272  0.3924 -2.3046
14419TIP3    H264673   2.460   2.502  14.444  0.9128 -0.1393  0.3896
14420TIP3   OH264674   4.077   4.913   3.010 -0.1793 -0.1355 -0.7668
14420TIP3    H164675   4.063   4.819   3.013 -0.6677 -0.1133 -1.9201
14420TIP3    H264676   3.990   4.951   3.000  0.0012  0.4510 -0.1847
14421TIP3   OH264677   7.113   1.345   0.053 -0.9449 -0.3044 -0.6151
14421TIP3    H164678   7.208   1.340   0.040 -0.9158 -0.3028 -0.4018
14421TIP3    H264679   7.076   1.319  -0.031 -0.7497  0.4322 -0.9421
14422TIP3   OH264680   3.133   2.842   3.873  0.0075 -0.1549  0.2446
14422TIP3    H164681   3.139   2.802   3.960  0.3783  2.0012  1.2715
14422TIP3    H264682   3.153   2.770   3.813  1.6724 -1.2985  2.0098
14423TIP3   OH264683   4.897   7.113   3.508 -0.1942  0.1951 -0.2279
14423TIP3    H164684   4.886   7.018   3.507 -2.2260  0.3715  0.0782
14423TIP3    H264685   4.936   7.133   3.423 -0.2631 -0.8624 -0.5268
14424TIP3   OH264686   6.245   0.220   0.736 -0.1055 -0.7665 -0.4692
14424TIP3    H164687   6.278   0.289   0.792  2.9524 -2.2924 -0.2081
14424TIP3    H264688   6.150   0.235   0.733  0.0212  1.3318  2.3390
14425TIP3   OH264689   2.275   4.895  10.847 -0.7130  0.7507  0.2551
14425TIP3    H164690   2.244   4.959  10.783  0.3640  2.5353  1.4291
14425TIP3    H264691   2.319   4.827  10.796 -4.5805 -0.8774 -1.3302
14426TIP3   OH264692   5.375   1.621   0.326 -0.1790 -0.5798 -0.1623
14426TIP3    H164693   5.426   1.699   0.306 -0.2131 -0.2813  0.8578
14426TIP3    H264694   5.371   1.573   0.243  1.2961 -0.3491 -0.3955
14427TIP3   OH264695   4.499   5.222   1.958  0.0033 -0.2499  0.3618
14427TIP3    H164696   4.427   5.228   2.021 -0.8579  0.1849 -0.6518
14427TIP3    H264697   4.462   5.176   1.883  0.4267  1.0406 -0.6646
14428TIP3   OH264698   0.895   2.584   4.229 -0.2718  0.0669 -0.1708
14428TIP3    H164699   0.973   2.616   4.183 -0.3951 -0.4203 -0.7213
14428TIP3    H264700   0.857   2.663   4.269 -0.1696  0.5046 -0.9114
14429TIP3   OH264701   4.055   2.535   5.207  0.7784 -0.3218  0.0184
14429TIP3    H164702   4.036   2.487   5.287  2.9310 -1.0824  0.1419
14429TIP3    H264703   4.144   2.567   5.218 -0.2123  3.0559 -0.4511
14430TIP3   OH264704   4.627   3.727  14.135 -0.3923 -0.4065  0.2302
14430TIP3    H164705   4.641   3.822  14.133  0.1531 -0.3435  3.0109
14430TIP3    H264706   4.532   3.716  14.139 -0.5594 -0.1052 -2.0115
14431TIP3   OH264707   6.832   0.973   1.131 -0.1450 -0.4629  0.0368
14431TIP3    H164708   6.890   1.012   1.065  0.8279 -1.4350  0.2986
14431TIP3    H264709   6.888   0.912   1.179 -0.9637 -0.1609  1.4328
14432TIP3   OH264710   4.571   4.953   2.156 -0.2039 -0.3448 -0.1265
14432TIP3    H164711   4.638   4.888   2.178  0.1738  0.2266  0.4354
14432TIP3    H264712   4.619   5.027   2.121 -0.4501  0.4314  1.1191
14433TIP3   OH264713   3.929   5.757   0.980  0.5717  0.3694 -0.1213
14433TIP3    H164714   3.920   5.844   0.943  0.1298 -0.1551 -1.2957
14433TIP3    H264715   3.989   5.711   0.920  2.2018  0.3703  1.4250
14434TIP3   OH264716   2.508   6.479   4.348  0.0372 -0.3369 -0.0461
14434TIP3    H164717   2.412   6.480   4.347  0.0023  2.1160 -0.2070
14434TIP3    H264718   2.533   6.463   4.257 -0.2486 -0.1623 -0.1563
14435TIP3   OH264719   1.398   0.260  11.997  0.0853  0.6073  0.1180
14435TIP3    H164720   1.356   0.226  11.918 -0.3953  0.6039  0.3709
14435TIP3    H264721   1.326   0.299  12.048  0.7236  2.9487 -0.6239
14436TIP3   OH264722   3.864   3.531   2.145  0.3938 -0.6081  0.1469
14436TIP3    H164723   3.958   3.510   2.148  0.4872 -0.1318  0.9023
14436TIP3    H264724   3.823   3.467   2.202  0.3557 -0.3346  0.4255
14437TIP3   OH264725   4.572   1.696  14.341  0.2084  0.0543  0.5464
14437TIP3    H164726   4.491   1.648  14.358  0.4354 -0.4020  0.3771
14437TIP3    H264727   4.631   1.630  14.302  0.0392  0.8045 -1.0786
14438TIP3   OH264728   1.537   6.352   3.206  0.2251 -0.1064  0.0171
14438TIP3    H164729   1.491   6.335   3.288  1.5267 -0.9073  0.6220
14438TIP3    H264730   1.467   6.367   3.142 -0.8421 -0.4115  1.0685
14439TIP3   OH264731   4.775   0.863   3.026  0.1338 -0.7724 -0.1960
14439TIP3    H164732   4.768   0.781   3.076 -0.1245 -0.0736  0.9615
14439TIP3    H264733   4.747   0.840   2.938  0.6443 -2.0654 -0.0409
14440TIP3   OH264734   0.311   2.621   0.881  0.2639  0.0207  0.2602
14440TIP3    H164735   0.226   2.651   0.912  0.0401  0.2241 -0.5367
14440TIP3    H264736   0.307   2.630   0.785  1.0379 -0.3284  0.1852
14441TIP3   OH264737   3.443   6.087   2.603 -0.2165 -0.8814  0.0762
14441TIP3    H164738   3.429   6.144   2.679  1.0882  0.3151 -0.5445
14441TIP3    H264739   3.355   6.058   2.579 -0.7248 -0.7148  1.5937
14442TIP3   OH264740   4.842   4.604  11.192  0.0099  0.1490 -0.1618
14442TIP3    H164741   4.876   4.515  11.202  0.7775  0.3877 -0.5526
14442TIP3    H264742   4.887   4.638  11.115 -1.8537  0.1484 -1.3074
14443TIP3   OH264743   5.901   1.796  12.638  0.0112 -0.5258 -0.0241
14443TIP3    H164744   5.840   1.787  12.710 -0.4252  0.2794 -0.2710
14443TIP3    H264745   5.897   1.712  12.592 -0.4019 -0.7160  0.3501
14444TIP3   OH264746   6.942   4.316   2.471 -0.2042 -0.2255  0.0566
14444TIP3    H164747   6.954   4.285   2.561  0.6998  0.9043  0.3501
14444TIP3    H264748   6.876   4.384   2.477 -1.2580 -1.1772 -0.3914
14445TIP3   OH264749   1.774   6.076   3.953  0.0456 -0.0477  0.2738
14445TIP3    H164750   1.843   6.027   3.998 -1.2983 -2.1483  0.2128
14445TIP3    H264751   1.797   6.070   3.860  1.6508  2.4044  0.4392
14446TIP3   OH264752   6.313   2.705   4.386  0.1040 -0.1724 -0.3475
14446TIP3    H164753   6.363   2.729   4.463  0.3488  0.9103 -0.8128
14446TIP3    H264754   6.249   2.776   4.376 -0.1855 -0.5021 -0.9089
14447TIP3   OH264755   4.829   3.929   5.893  0.3282 -0.5090 -0.3303
14447TIP3    H164756   4.888   4.001   5.872  0.7034 -1.0399 -1.1255
14447TIP3    H264757   4.861   3.855   5.841 -2.1415 -0.3360 -2.3004
14448TIP3   OH264758   3.574   5.461   0.466  0.3773  0.4877  0.0116
14448TIP3    H164759   3.486   5.425   0.481 -0.1664  1.6730 -0.1767
14448TIP3    H264760   3.634   5.392   0.494 -0.5840  0.5874  2.6045
14449TIP3   OH264761   5.908   2.923   1.889  0.2596 -0.1841  0.0070
14449TIP3    H164762   5.900   2.947   1.981  1.4825 -2.3641  0.7496
14449TIP3    H264763   5.979   2.977   1.855  0.9705 -0.5929  0.8268
14450TIP3   OH264764   5.579   0.843   4.176  0.1424  0.4875 -0.7930
14450TIP3    H164765   5.507   0.825   4.237  0.6960  3.4532  0.9367
14450TIP3    H264766   5.651   0.789   4.207 -0.8406 -1.4084 -1.6542
14451TIP3   OH264767   7.048   5.520   3.032 -0.3270  0.4888 -0.0781
14451TIP3    H164768   7.028   5.592   3.091 -0.5103  0.0751  0.3710
14451TIP3    H264769   7.144   5.522   3.024 -0.3627  1.0685 -0.4481
14452TIP3   OH264770   5.805   4.370  12.803 -0.8544  0.1459 -0.5992
14452TIP3    H164771   5.890   4.412  12.794  0.8268 -3.0766 -1.2315
14452TIP3    H264772   5.750   4.413  12.737  0.4417  1.8050 -0.6677
14453TIP3   OH264773   3.909   0.425   4.769  0.3868  0.5055 -0.5076
14453TIP3    H164774   3.998   0.450   4.744  0.5042  0.4454 -0.1507
14453TIP3    H264775   3.853   0.484   4.720  0.5763 -0.3142 -1.7709
14454TIP3   OH264776   1.640   1.017   2.070 -0.3900  0.2010 -0.2688
14454TIP3    H164777   1.663   0.925   2.055  0.6656  0.4659 -0.3569
14454TIP3    H264778   1.643   1.027   2.165 -0.2583  0.2000 -0.2723
14455TIP3   OH264779   0.546   2.565   3.489 -0.3909 -0.2590 -0.0440
14455TIP3    H164780   0.494   2.492   3.455 -1.7760  0.3571  0.6612
14455TIP3    H264781   0.556   2.624   3.415 -1.7554  0.1789  0.0984
14456TIP3   OH264782   3.033   5.855   5.163 -0.3525  0.7414  0.1782
14456TIP3    H164783   3.083   5.785   5.121 -1.6696  0.3910 -0.8814
14456TIP3    H264784   3.033   5.832   5.256 -0.3985 -0.4426 -0.0966
14457TIP3   OH264785   4.670   4.156   4.474 -0.0478 -0.1147  0.4759
14457TIP3    H164786   4.637   4.197   4.394  1.4624 -1.7851 -1.0956
14457TIP3    H264787   4.678   4.063   4.451 -1.6891 -1.0833  3.3034
14458TIP3   OH264788   0.182   1.435   4.412  0.7355  0.0359  0.1185
14458TIP3    H164789   0.203   1.376   4.339  1.0711 -0.4813  0.6189
14458TIP3    H264790   0.177   1.522   4.372 -0.1212 -0.3671 -0.7020
14459TIP3   OH264791   1.255   3.289   1.633 -0.2984 -0.7890  0.1995
14459TIP3    H164792   1.304   3.371   1.634 -1.6706  0.0712 -0.4729
14459TIP3    H264793   1.251   3.262   1.724 -3.1299  1.9661  1.0644
14460TIP3   OH264794   0.972   6.010   1.622  0.4205 -0.5697 -0.8100
14460TIP3    H164795   0.944   6.101   1.631  3.5322  0.4924 -0.8040
14460TIP3    H264796   0.999   6.002   1.531  2.0833 -0.8332 -0.3243
14461TIP3   OH264797   4.448   6.157   2.189 -0.1042 -0.2112  1.1108
14461TIP3    H164798   4.490   6.213   2.254 -0.7865  0.2099  1.1969
14461TIP3    H264799   4.354   6.165   2.207 -0.2320 -1.0351  0.8390
14462TIP3   OH264800   3.270   3.762   2.541 -0.1603  0.0649  0.2949
14462TIP3    H164801   3.211   3.747   2.616 -1.0708  1.6247 -0.0650
14462TIP3    H264802   3.213   3.761   2.465  0.9355 -2.8115 -0.5942
14463TIP3   OH264803   1.404   5.814   5.324 -0.1132 -0.6287  0.1307
14463TIP3    H164804   1.484   5.762   5.318  0.4151  0.1809  0.0004
14463TIP3    H264805   1.434   5.903   5.346 -0.6748  0.3840 -2.7124
14464TIP3   OH264806   4.959   2.369  15.214  0.2729 -0.1876 -0.4242
14464TIP3    H164807   4.938   2.289  15.166  1.2610 -1.6794  1.4838
14464TIP3    H264808   5.050   2.357  15.242 -0.1587  0.7414  1.4963
14465TIP3   OH264809   4.627   7.119  10.803  0.0159  0.1027  0.3845
14465TIP3    H164810   4.579   7.195  10.837 -0.8236 -0.6693  0.9580
14465TIP3    H264811   4.579   7.043  10.835  0.9637 -0.6907 -0.0061
14466TIP3   OH264812   6.562   1.738  12.154  0.2291  0.0834  0.2637
14466TIP3    H164813   6.554   1.643  12.164 -0.2093  0.2675  1.9475
14466TIP3    H264814   6.584   1.769  12.242 -2.4436  1.8325  0.3958
14467TIP3   OH264815   2.735   1.862   4.093 -0.7783  0.1624 -0.1994
14467TIP3    H164816   2.672   1.923   4.054 -0.6926  1.4876  1.6392
14467TIP3    H264817   2.820   1.889   4.058 -0.7976  0.8101  0.2472
14468TIP3   OH264818   6.270   5.351   4.325  0.0955  0.6552  0.0941
14468TIP3    H164819   6.262   5.402   4.244 -0.0862  0.1751 -0.1955
14468TIP3    H264820   6.363   5.329   4.330  0.5449  2.5040  1.1570
14469TIP3   OH264821   3.073   3.004   3.172  0.1159  0.1869  0.7791
14469TIP3    H164822   3.072   3.100   3.169 -0.5603  0.1650 -0.2801
14469TIP3    H264823   3.127   2.978   3.097  2.3662 -0.2578  2.4570
14470TIP3   OH264824   2.346   4.249   3.937 -0.6709  0.4405 -0.1749
14470TIP3    H164825   2.305   4.308   4.001 -0.4387  0.3144  0.0915
14470TIP3    H264826   2.274   4.193   3.907 -0.2954 -1.3456  2.0122
14471TIP3   OH264827   4.386   6.817  14.674  0.0080  0.5919 -0.5036
14471TIP3    H164828   4.338   6.884  14.721  0.5037 -0.7942  2.1690
14471TIP3    H264829   4.463   6.863  14.639 -1.1816  1.9833 -1.4200
14472TIP3   OH264830   2.046   5.705   1.624  0.0190 -0.0009  0.3676
14472TIP3    H164831   1.961   5.678   1.590  0.2696 -1.5467  0.8726
14472TIP3    H264832   2.079   5.769   1.561 -1.0393 -0.1938 -0.3987
14473TIP3   OH264833   2.275   1.437   4.733  0.1609 -0.7933 -0.0372
14473TIP3    H164834   2.209   1.502   4.755 -0.1386 -0.9032 -0.5818
14473TIP3    H264835   2.347   1.488   4.695  0.0386 -0.7491 -0.2129
14474TIP3   OH264836   5.256   6.745  15.022 -0.4893 -0.1570 -0.3509
14474TIP3    H164837   5.189   6.737  15.090  1.4244 -0.9813  1.5488
14474TIP3    H264838   5.323   6.802  15.061  0.7802 -0.8411 -1.4556
14475TIP3   OH264839   3.999   0.736  12.840  0.6556  0.1731 -0.5341
14475TIP3    H164840   3.927   0.688  12.800 -0.7048  1.3638  0.3597
14475TIP3    H264841   4.066   0.670  12.857 -0.8823 -1.3004  0.0758
14476TIP3   OH264842   2.332   5.851   5.113 -0.6175 -0.2083  0.2312
14476TIP3    H164843   2.406   5.907   5.138 -1.5350  1.0171  0.3363
14476TIP3    H264844   2.342   5.839   5.019 -0.7390  0.7035  0.0838
14477TIP3   OH264845   3.606   2.534   4.411  0.3167 -0.4825 -0.0094
14477TIP3    H164846   3.524   2.504   4.371 -0.4525 -0.0022  1.1489
14477TIP3    H264847   3.655   2.454   4.428  0.5973 -0.7180 -1.7057
14478TIP3   OH264848   1.614   0.456   3.712 -0.3632  0.4380 -0.5980
14478TIP3    H164849   1.540   0.419   3.663  0.3854 -1.6022 -0.3052
14478TIP3    H264850   1.645   0.529   3.658 -2.1631  0.9331 -1.0404
14479TIP3   OH264851   3.545   5.037   4.391 -0.1890  0.0101 -0.1863
14479TIP3    H164852   3.581   4.949   4.398 -2.2565 -1.0029 -1.3021
14479TIP3    H264853   3.484   5.044   4.464 -0.4364  0.2981 -0.4168
14480TIP3   OH264854   0.829   5.864  14.255 -0.6769 -0.0699  0.5562
14480TIP3    H164855   0.770   5.918  14.202 -0.9976 -0.8753  0.0535
14480TIP3    H264856   0.880   5.815  14.190 -0.0621 -0.0115  0.9944
14481TIP3   OH264857   1.711   2.099   2.683 -0.0845 -0.3954 -0.2203
14481TIP3    H164858   1.692   2.099   2.589 -2.1939 -0.1176  0.1633
14481TIP3    H264859   1.807   2.089   2.688  0.0870 -0.3064 -2.3798
14482TIP3   OH264860   5.531   2.767   3.536  0.2874  0.0180  0.0029
14482TIP3    H164861   5.501   2.817   3.612  0.4960 -0.6631  0.5451
14482TIP3    H264862   5.526   2.676   3.564  1.5109 -0.1853 -0.3785
14483TIP3   OH264863   4.411   3.329  14.706 -0.5771  0.3826  0.6828
14483TIP3    H164864   4.456   3.386  14.643 -0.5324  0.3031  0.6422
14483TIP3    H264865   4.457   3.245  14.700 -0.8561  0.2415  0.4975
14484TIP3   OH264866   1.209   6.722   5.862  0.0314 -0.3675 -0.1793
14484TIP3    H164867   1.208   6.814   5.837  1.3535  0.0090  0.9862
14484TIP3    H264868   1.120   6.704   5.892 -0.3398  0.4194 -0.7921
14485TIP3   OH264869   1.811   2.019   4.618 -0.4031  0.1266 -0.0545
14485TIP3    H164870   1.778   2.106   4.596  0.7922  0.9581  1.2489
14485TIP3    H264871   1.896   2.014   4.574 -0.6371 -0.5432 -0.4352
14486TIP3   OH264872   3.086   4.462   2.164 -0.5371 -0.7456  0.1721
14486TIP3    H164873   3.019   4.446   2.098  0.2116  0.3154 -0.8995
14486TIP3    H264874   3.085   4.384   2.219 -0.5131 -2.1167 -1.6793
14487TIP3   OH264875   2.064   4.639  14.626  0.3656  0.4637  0.3125
14487TIP3    H164876   1.981   4.599  14.599  1.1282 -0.4610 -0.7359
14487TIP3    H264877   2.044   4.679  14.710 -0.8104 -0.9118  0.7368
14488TIP3   OH264878   4.008   3.998  15.227 -0.2472  0.4640  0.3458
14488TIP3    H164879   3.937   3.954  15.274 -1.1490 -0.3497 -1.6727
14488TIP3    H264880   4.052   3.927  15.179  0.2455  1.3408 -0.5198
14489TIP3   OH264881   4.826   2.590  14.809 -0.2301  0.5444 -0.5137
14489TIP3    H164882   4.860   2.676  14.785  0.2875  0.8614  1.1547
14489TIP3    H264883   4.740   2.608  14.847  0.8255  0.7134  2.0492
14490TIP3   OH264884   6.088   1.346   2.593 -0.0867 -0.1283 -0.0635
14490TIP3    H164885   6.116   1.320   2.505  0.0447 -1.2821  0.2992
14490TIP3    H264886   6.037   1.271   2.624  0.7066 -0.1546  1.2225
14491TIP3   OH264887   4.330   2.539   5.156  0.0504 -0.2136 -0.1883
14491TIP3    H164888   4.314   2.475   5.086 -0.6855 -0.9846  0.6504
14491TIP3    H264889   4.391   2.495   5.215  1.1494  0.6685 -0.6375
14492TIP3   OH264890   6.323   5.627   2.648 -0.4779 -0.0277 -0.0994
14492TIP3    H164891   6.279   5.712   2.639 -0.3056  0.3401  2.1324
14492TIP3    H264892   6.257   5.569   2.684 -0.0805 -0.3737  0.0749
14493TIP3   OH264893   3.000   1.043   3.542 -0.1704 -0.4830  0.0306
14493TIP3    H164894   2.917   1.088   3.553 -1.4766 -2.3288 -1.6456
14493TIP3    H264895   3.065   1.113   3.537 -1.4839  0.9708  2.1066
14494TIP3   OH264896   2.344   0.452   2.698 -0.0473 -0.0430 -0.3711
14494TIP3    H164897   2.279   0.514   2.730 -1.5336 -1.4892 -0.4545
14494TIP3    H264898   2.410   0.448   2.767 -0.6354  0.6105  0.2440
14495TIP3   OH264899   7.076   3.442   4.621 -0.1157 -0.2311  0.1264
14495TIP3    H164900   7.039   3.513   4.674 -1.5609 -1.0707  0.3085
14495TIP3    H264901   7.151   3.410   4.671  0.6882  1.2717 -0.0591
14496TIP3   OH264902   0.642   5.223   3.184 -0.2916  1.1087 -0.8154
14496TIP3    H164903   0.580   5.189   3.248  0.2442  2.3217  0.4027
14496TIP3    H264904   0.723   5.176   3.201 -0.6670  0.0000 -1.9652
14497TIP3   OH264905   5.120   5.922  14.184  0.2166 -0.3024  0.1920
14497TIP3    H164906   5.088   5.970  14.260  1.0672 -0.0607  0.4142
14497TIP3    H264907   5.153   5.989  14.125  0.9198 -0.5680  0.2687
14498TIP3   OH264908   3.856   0.059   3.151  0.4949 -0.1825 -0.4161
14498TIP3    H164909   3.900  -0.017   3.114 -0.6833 -0.6810 -0.8418
14498TIP3    H264910   3.927   0.112   3.188  1.4317 -0.9714 -1.0278
14499TIP3   OH264911   2.825   2.489   5.781  0.3877  0.1269  0.3020
14499TIP3    H164912   2.790   2.547   5.848 -2.1318  0.6884 -1.3670
14499TIP3    H264913   2.873   2.547   5.722  0.4172  0.0393  0.2400
14500TIP3   OH264914   3.503   5.087   4.739  0.2488  0.2555  0.0569
14500TIP3    H164915   3.490   5.164   4.684 -0.9752 -0.0801 -0.1618
14500TIP3    H264916   3.419   5.040   4.734  1.2925 -1.6325 -0.6693
14501TIP3   OH264917   3.102   2.574  12.645 -0.0426  0.2052 -0.4638
14501TIP3    H164918   3.108   2.648  12.585  0.2374  0.0931 -0.5752
14501TIP3    H264919   3.033   2.519  12.608 -0.5973  0.6535 -0.1102
14502TIP3   OH264920   6.962   0.692   0.686  0.5962  0.2730  0.0645
14502TIP3    H164921   6.905   0.616   0.701  1.1542 -0.2869 -0.5869
14502TIP3    H264922   7.002   0.675   0.601  1.9235  0.5489  0.6212
14503TIP3   OH264923   5.960   0.017   4.643 -0.1194  0.2097  0.2330
14503TIP3    H164924   5.866   0.033   4.633  0.1838  2.1671  0.1732
14503TIP3    H264925   5.990  -0.003   4.554 -0.4667 -0.4328  0.2533
14504TIP3   OH264926   0.691   1.606   9.597  0.4228  0.0393 -0.1514
14504TIP3    H164927   0.631   1.665   9.553  0.9606 -0.3264 -1.4221
14504TIP3    H264928   0.724   1.656   9.672 -0.6949  0.5833 -0.0021
14505TIP3   OH264929   2.724   5.707   5.801  0.3101 -0.2779 -1.0517
14505TIP3    H164930   2.812   5.739   5.780  0.4643  1.0548  1.2560
14505TIP3    H264931   2.668   5.783   5.789 -0.2810 -0.7070 -1.0408
14506TIP3   OH264932   5.227   0.803   3.341  0.1051  0.8005  0.4919
14506TIP3    H164933   5.134   0.793   3.361 -0.2547 -2.8211 -2.0075
14506TIP3    H264934   5.229   0.830   3.250  1.4823 -0.1685  0.2077
14507TIP3   OH264935   4.309   5.365  12.255 -0.7640 -0.2692 -0.1738
14507TIP3    H164936   4.296   5.448  12.210  2.6641 -0.7480 -2.4272
14507TIP3    H264937   4.364   5.387  12.330 -0.9862 -0.3526  0.0158
14508TIP3   OH264938   6.763   5.092   3.888  0.1552 -0.5137  0.0227
14508TIP3    H164939   6.724   5.101   3.800 -0.7164  0.8563  0.5147
14508TIP3    H264940   6.704   5.032   3.934  0.7337 -1.4077 -0.3759
14509TIP3   OH264941   3.961   4.661  13.870 -0.1310  0.1540 -0.4894
14509TIP3    H164942   3.946   4.731  13.806  2.3011  1.7355  0.5403
14509TIP3    H264943   4.008   4.594  13.821 -0.5015  0.2319 -0.9572
14510TIP3   OH264944   6.430   0.687   2.060  0.1433  0.3823 -0.3736
14510TIP3    H164945   6.482   0.761   2.029  2.9290 -0.7903  1.1635
14510TIP3    H264946   6.416   0.633   1.982 -1.7215  2.2581 -1.4636
14511TIP3   OH264947   1.251   0.497   4.474  0.7028 -0.6429 -0.5764
14511TIP3    H164948   1.185   0.439   4.512  0.5425 -0.3364 -0.3810
14511TIP3    H264949   1.309   0.519   4.547  0.3720 -0.0240 -0.4928
14512TIP3   OH264950   6.857   5.192  13.099 -0.2544 -0.2150 -0.1963
14512TIP3    H164951   6.901   5.258  13.046  2.5281 -0.2196  1.9153
14512TIP3    H264952   6.917   5.175  13.172 -2.9615 -1.6778  1.8708
14513TIP3   OH264953   5.415   3.348   4.446 -0.1593 -0.4695  0.5210
14513TIP3    H164954   5.408   3.293   4.368  0.9243  0.3267 -0.1655
14513TIP3    H264955   5.324   3.366   4.471 -0.5232 -1.0671 -0.3125
14514TIP3   OH264956   2.462   2.831  11.125  0.1909 -0.7018 -0.0820
14514TIP3    H164957   2.502   2.884  11.194  1.6749  1.0806 -2.1583
14514TIP3    H264958   2.368   2.836  11.141  0.4798  0.0788  1.5009
14515TIP3   OH264959   1.231   3.077   5.224 -0.0849 -0.2578 -0.6688
14515TIP3    H164960   1.268   3.165   5.219  1.3974 -0.8806 -1.3107
14515TIP3    H264961   1.137   3.089   5.217 -0.1689  1.5015  1.9935
14516TIP3   OH264962   5.684   6.403   4.593  0.1112 -0.8832  0.1098
14516TIP3    H164963   5.677   6.497   4.576  0.1709 -0.8679  0.1682
14516TIP3    H264964   5.594   6.374   4.602  0.0261 -1.0371 -1.0127
14517TIP3   OH264965   5.800   1.331   0.906  0.1930  0.3728  0.3186
14517TIP3    H164966   5.762   1.381   0.978  1.0031  2.6380 -0.7516
14517TIP3    H264967   5.827   1.248   0.946 -2.7579  0.0201  1.7863
14518TIP3   OH264968   5.566   3.788  13.604 -0.3226  0.1542  0.3069
14518TIP3    H164969   5.660   3.805  13.600  0.2636 -2.6037  0.3930
14518TIP3    H264970   5.540   3.811  13.693  0.8596 -1.4658  1.1080
14519TIP3   OH264971   1.794   3.704   0.363  0.0845  0.1023 -0.3360
14519TIP3    H164972   1.808   3.626   0.309 -0.9367  0.1457 -0.6927
14519TIP3    H264973   1.878   3.749   0.363 -0.3811  1.1950 -3.6454
14520TIP3   OH264974   2.423   5.108  11.866  0.2485  0.0509 -0.2100
14520TIP3    H164975   2.502   5.109  11.812 -0.0614  1.0953 -0.6801
14520TIP3    H264976   2.413   5.199  11.895 -1.0455  0.0437 -0.5633
14521TIP3   OH264977   6.333   3.802   0.959 -0.3319 -0.2055 -0.1548
14521TIP3    H164978   6.342   3.833   0.869 -0.7377  1.9174  0.4712
14521TIP3    H264979   6.258   3.742   0.956 -0.3145 -0.1996 -1.2270
14522TIP3   OH264980   2.802   7.042   1.349 -0.4172 -0.3767 -0.2667
14522TIP3    H164981   2.892   7.073   1.336 -0.3686 -0.2722  0.2547
14522TIP3    H264982   2.795   6.963   1.296 -0.5746  0.5677 -1.7134
14523TIP3   OH264983   5.007   1.295   2.710  0.4319  0.2168 -0.0717
14523TIP3    H164984   4.984   1.297   2.803 -0.6809  1.4190 -0.3427
14523TIP3    H264985   5.103   1.288   2.709  0.3448 -2.2362  1.1178
14524TIP3   OH264986   5.857   2.551   1.982  0.0724  0.1621 -0.6138
14524TIP3    H164987   5.815   2.532   1.898 -1.7346 -1.6583  0.6320
14524TIP3    H264988   5.921   2.481   1.993 -1.2989 -0.9709  0.5166
14525TIP3   OH264989   4.106   4.524   2.803  0.7353  0.0584 -0.1386
14525TIP3    H164990   4.104   4.593   2.737  0.7151  2.0125  1.8265
14525TIP3    H264991   4.178   4.467   2.774  0.6374  0.7536 -1.9030
14526TIP3   OH264992   3.182   3.259   4.602 -0.0031 -0.2627 -0.1019
14526TIP3    H164993   3.167   3.216   4.517  0.9072 -0.5166 -0.1428
14526TIP3    H264994   3.198   3.351   4.579 -0.8301 -0.1102 -0.1067
14527TIP3   OH264995   2.341   6.103   1.237 -0.3989  0.1348  0.2314
14527TIP3    H164996   2.250   6.073   1.231  0.0684 -1.0304 -2.6624
14527TIP3    H264997   2.390   6.024   1.262 -0.1197  0.7435  1.7235
14528TIP3   OH264998   3.245   7.079   4.907 -0.2239  0.6402  0.1906
14528TIP3    H164999   3.296   7.006   4.871 -0.9247 -0.1688  0.8226
14528TIP3    H265000   3.311   7.147   4.925  0.3424  0.4681 -1.0979
14529TIP3   OH265001   6.014   4.773  15.465 -0.3825  0.1234 -0.8653
14529TIP3    H165002   6.080   4.817  15.518  0.8414 -0.3655 -1.9164
14529TIP3    H265003   5.984   4.840  15.403 -1.9512  0.7487  0.5040
14530TIP3   OH265004   5.699   0.028   2.649 -0.2706 -1.1968 -0.7633
14530TIP3    H165005   5.683  -0.057   2.608 -1.9409 -2.0743  1.4949
14530TIP3    H265006   5.743   0.007   2.731 -2.2764 -0.0900  0.6661
14531TIP3   OH265007   1.169   1.886   4.717  0.5648 -0.2971  0.6006
14531TIP3    H165008   1.253   1.878   4.671 -0.2603  1.4306 -1.3703
14531TIP3    H265009   1.117   1.943   4.661 -1.7105 -0.7696  2.1197
14532TIP3   OH265010   4.063   6.474   0.161 -0.3507  0.7425 -0.2956
14532TIP3    H165011   4.096   6.391   0.128  1.8163  1.0516  0.8591
14532TIP3    H265012   4.058   6.462   0.256 -0.1637  1.8551 -0.1233
14533TIP3   OH265013   3.655   5.168   3.710  0.0650 -0.2976 -0.2075
14533TIP3    H165014   3.564   5.177   3.681 -0.3532  0.5641  1.2398
14533TIP3    H265015   3.686   5.258   3.720 -0.0799 -0.4631  2.6136
14534TIP3   OH265016   1.758   0.994   1.762 -0.4262 -0.2278  0.7697
14534TIP3    H165017   1.776   0.909   1.801 -0.6506 -0.3522  0.6016
14534TIP3    H265018   1.715   1.044   1.831  0.4897  0.0530  1.1614
14535TIP3   OH265019   5.538   5.163  13.840 -0.3919  0.4257  0.6233
14535TIP3    H165020   5.610   5.225  13.853  0.3118 -0.1516 -0.3559
14535TIP3    H265021   5.460   5.218  13.833 -0.0029  1.0900  1.3508
14536TIP3   OH265022   1.436   1.506   2.275  0.3922 -0.0723  0.0058
14536TIP3    H165023   1.431   1.426   2.223 -1.7772 -0.9685  1.4352
14536TIP3    H265024   1.530   1.523   2.283  0.8890 -1.9878 -1.0552
14537TIP3   OH265025   6.455   5.495   4.877  0.3325 -0.5447 -0.5935
14537TIP3    H165026   6.449   5.520   4.969 -0.8676 -0.8407 -0.5670
14537TIP3    H265027   6.397   5.419   4.870  2.0465 -1.8576 -1.1544
14538TIP3   OH265028   6.175   1.536  13.327 -0.3928  0.4180 -0.0656
14538TIP3    H165029   6.175   1.470  13.258  1.2844 -0.4965  0.7177
14538TIP3    H265030   6.252   1.590  13.309 -0.7343  1.0424  0.3064
14539TIP3   OH265031   4.414   2.603   3.405  0.0926  0.0156  0.3240
14539TIP3    H165032   4.484   2.572   3.348 -0.0102  0.6610 -0.1615
14539TIP3    H265033   4.335   2.594   3.353  0.2100  2.2792 -0.3231
14540TIP3   OH265034   4.723   3.651   4.801  0.2071 -0.3808  0.3863
14540TIP3    H165035   4.705   3.615   4.888  0.3724 -3.4035 -0.7044
14540TIP3    H265036   4.669   3.598   4.742  2.6143 -0.7231 -1.6550
14541TIP3   OH265037   0.978   4.449   1.219 -0.3709  0.2954 -0.0792
14541TIP3    H165038   0.998   4.361   1.251  1.0318  1.3000  2.0340
14541TIP3    H265039   0.904   4.437   1.160  0.2882 -2.3914 -0.4985
14542TIP3   OH265040   1.703   5.080   3.495 -0.4653  0.7443  0.3723
14542TIP3    H165041   1.770   5.117   3.437 -0.7948  1.1131  0.2204
14542TIP3    H265042   1.668   5.156   3.542 -0.6460  0.5283  0.5871
14543TIP3   OH265043   0.991   1.185  14.263  0.3802 -0.5282 -0.1416
14543TIP3    H165044   0.964   1.138  14.184 -1.8947 -2.3757  1.5639
14543TIP3    H265045   1.033   1.119  14.317  1.2344  0.5245  0.5255
14544TIP3   OH265046   6.086   2.873   0.971  0.5293  0.3031 -0.6214
14544TIP3    H165047   6.014   2.933   0.992  0.5719  0.6189 -1.3457
14544TIP3    H265048   6.083   2.864   0.876  0.3679 -1.0633 -0.5001
14545TIP3   OH265049   3.610   2.149   5.038 -0.9410 -0.3838 -0.2929
14545TIP3    H165050   3.682   2.140   5.101 -3.1219 -1.2750  2.2312
14545TIP3    H265051   3.596   2.243   5.032 -0.6029 -0.2811  0.4178
14546TIP3   OH265052   3.603   0.240   9.523  0.1207 -0.1391  0.6705
14546TIP3    H165053   3.632   0.162   9.475  0.2967 -0.3027  1.0376
14546TIP3    H265054   3.656   0.311   9.489 -0.2414 -0.1230  0.1260
14547TIP3   OH265055   7.062   1.050   4.726 -0.2600  0.6954  0.0455
14547TIP3    H165056   7.079   1.074   4.635 -0.7507  0.0183 -0.2404
14547TIP3    H265057   6.966   1.055   4.734 -0.2257  0.6549  0.4924
14548TIP3   OH265058   5.625   6.856   3.506 -0.0562 -0.3808  0.0174
14548TIP3    H165059   5.647   6.931   3.451  0.4854  1.2581  2.3492
14548TIP3    H265060   5.710   6.822   3.534 -0.2994 -1.8581 -0.9344
14549TIP3   OH265061   0.822   2.065  13.975  0.2018 -0.1063 -0.1061
14549TIP3    H165062   0.893   2.002  13.961 -0.0194 -0.6549  1.1358
14549TIP3    H265063   0.851   2.117  14.050 -0.5526 -0.0912  0.1790
14550TIP3   OH265064   5.212   3.827   4.434 -0.5752  0.1996 -0.6952
14550TIP3    H165065   5.302   3.795   4.446 -0.7352  0.3176  0.9639
14550TIP3    H265066   5.167   3.755   4.390  0.2783  0.0793 -1.4140
14551TIP3   OH265067   0.398   3.102   2.648 -0.1105 -0.7287 -0.6016
14551TIP3    H165068   0.305   3.114   2.626  0.0584  0.4624 -0.7286
14551TIP3    H265069   0.445   3.157   2.585  0.5546  0.4607  0.8750
14552TIP3   OH265070   5.063   4.007   3.951 -0.2803  0.0507 -0.2521
14552TIP3    H165071   5.141   4.061   3.935  1.5465 -2.5630 -0.9303
14552TIP3    H265072   4.990   4.060   3.920  1.5586  1.5059 -2.4389
14553TIP3   OH265073   0.196   7.026   0.488  0.2314 -0.4925  0.5022
14553TIP3    H165074   0.272   6.978   0.454  0.4645  0.6542 -0.6852
14553TIP3    H265075   0.121   6.971   0.467  0.6810 -1.4637  1.3551
14554TIP3   OH265076   5.581   6.302   1.609 -0.2855 -0.3466 -0.1854
14554TIP3    H165077   5.675   6.282   1.618 -0.3939  0.0976  2.4152
14554TIP3    H265078   5.578   6.396   1.594 -0.3440 -0.1342  1.0743
14555TIP3   OH265079   0.061   0.807   0.472  0.1281 -0.8896  0.0683
14555TIP3    H165080   0.077   0.892   0.431  1.7269 -1.0277  0.3416
14555TIP3    H265081   0.088   0.818   0.563 -0.0907 -1.5588  0.2197
14556TIP3   OH265082   7.101   6.569   4.532  0.0472 -0.0998  0.1760
14556TIP3    H165083   7.194   6.587   4.547 -0.1065  1.3394 -0.4012
14556TIP3    H265084   7.060   6.656   4.528 -1.8092 -0.6900  3.1523
14557TIP3   OH265085   0.299   5.205   4.630  0.3351 -0.4521  0.5096
14557TIP3    H165086   0.387   5.167   4.626  0.4176 -0.4389  1.7266
14557TIP3    H265087   0.287   5.227   4.723 -0.8721 -0.2551  0.3218
14558TIP3   OH265088   5.493   5.084   5.697  0.2583 -0.0972  0.1519
14558TIP3    H165089   5.421   5.098   5.636  1.1959 -0.1003 -1.0057
14558TIP3    H265090   5.566   5.057   5.642  0.7414 -1.5819  1.4504
14559TIP3   OH265091   5.595   6.512   4.938  0.5378 -0.5230  0.3821
14559TIP3    H165092   5.659   6.572   4.902 -1.6817  1.7912  0.0133
14559TIP3    H265093   5.604   6.433   4.884  1.3823  0.6501 -1.3075
14560TIP3   OH265094   3.118   1.692   2.070  0.0505 -0.1469 -0.1257
14560TIP3    H165095   3.036   1.714   2.025  0.1712 -0.8716 -0.7109
14560TIP3    H265096   3.107   1.602   2.101  1.0112 -0.6431 -1.1450
14561TIP3   OH265097   5.989   0.297   4.055  0.2486 -0.4626 -0.6799
14561TIP3    H165098   5.955   0.339   4.134  0.3916 -0.6843 -0.4999
14561TIP3    H265099   6.046   0.363   4.015  0.8297 -0.6386 -0.1605
14562TIP3   OH265100   6.058   4.875  14.138  0.2249 -0.1883 -0.2336
14562TIP3    H165101   6.011   4.912  14.213 -0.6446 -2.4362  0.3889
14562TIP3    H265102   6.111   4.948  14.105 -1.7086  1.6986  0.6430
14563TIP3   OH265103   4.626   2.337   2.189  0.3760  0.0039  0.3862
14563TIP3    H165104   4.633   2.432   2.197 -0.2136  0.0367  0.5924
14563TIP3    H265105   4.626   2.305   2.279  0.3360 -0.1722  0.3244
14564TIP3   OH265106   4.807   1.618  14.045 -0.3756  0.2058  0.0392
14564TIP3    H165107   4.869   1.561  13.999  0.7085  0.8198  0.7052
14564TIP3    H265108   4.743   1.643  13.978  1.9450  2.2552 -1.6125
14565TIP3   OH265109   1.947   1.509  12.902 -0.0095 -0.1310  0.9336
14565TIP3    H165110   1.945   1.525  12.808 -0.9627  1.1823  1.1411
14565TIP3    H265111   1.870   1.453  12.918 -1.5233  1.9134  1.2429
14566TIP3   OH265112   4.224   2.127   3.970 -0.0822 -0.2964  0.0239
14566TIP3    H165113   4.269   2.053   3.929 -0.9542 -1.1010  0.4621
14566TIP3    H265114   4.212   2.190   3.899  2.3680  0.2997  0.0649
14567TIP3   OH265115   6.880   0.434   4.475  0.1829  0.2982  0.1899
14567TIP3    H165116   6.857   0.527   4.486  3.0199  0.9662  1.2274
14567TIP3    H265117   6.974   0.430   4.492  0.5468 -2.4863 -1.7273
14568TIP3   OH265118   4.668   0.646   3.534 -0.2856 -0.0101  0.0179
14568TIP3    H165119   4.720   0.637   3.614  0.9606  0.0480 -0.7715
14568TIP3    H265120   4.577   0.641   3.565  0.1599  0.3146  1.4705
14569TIP3   OH265121   6.318   5.434  10.807 -0.2043 -0.3009 -0.5049
14569TIP3    H165122   6.225   5.456  10.809 -0.4721 -1.4227 -0.0569
14569TIP3    H265123   6.334   5.404  10.718  0.0813  1.2423 -1.0146
14570TIP3   OH265124   1.345   5.963   1.632  0.0131  0.1207  0.2511
14570TIP3    H165125   1.344   5.950   1.537  0.5987  0.2898  0.2192
14570TIP3    H265126   1.305   5.884   1.667 -0.5910  0.2403 -0.1547
14571TIP3   OH265127   4.795   1.918   2.163  0.4867 -0.0227 -0.5976
14571TIP3    H165128   4.783   2.008   2.131  2.3088  0.7075  0.5675
14571TIP3    H265129   4.711   1.896   2.204 -1.3405 -0.3722 -4.1697
14572TIP3   OH265130   6.659   1.605  15.213 -0.1463  0.4977 -0.2984
14572TIP3    H165131   6.600   1.534  15.189 -0.5584  1.1713 -1.3756
14572TIP3    H265132   6.616   1.684  15.179  0.6873  1.1632  0.1567
14573TIP3   OH265133   2.065   6.137   5.459 -0.3506  0.0397 -0.1878
14573TIP3    H165134   2.047   6.087   5.538 -0.4522 -0.0746 -0.2821
14573TIP3    H265135   2.127   6.084   5.410 -1.2260 -0.4843 -0.7614
14574TIP3   OH265136   3.958   0.122  15.096 -0.1618 -0.1007 -0.3396
14574TIP3    H165137   4.011   0.102  15.019 -0.7286 -1.5950 -0.3693
14574TIP3    H265138   3.980   0.054  15.160 -2.4601 -1.1843 -0.5912
14575TIP3   OH265139   3.582   3.170  13.937  0.1146  0.9396  0.4529
14575TIP3    H165140   3.560   3.160  14.029  0.1511 -0.2831  0.3509
14575TIP3    H265141   3.502   3.145  13.890 -0.3448  2.8373  0.1432
14576TIP3   OH265142   0.132   3.303   0.503 -0.4892  0.0508  0.1641
14576TIP3    H165143   0.122   3.239   0.432 -0.8467  2.1835 -1.8342
14576TIP3    H265144   0.049   3.298   0.552 -0.2987 -1.3481  0.3814
14577TIP3   OH265145   3.103   5.563  14.303  0.0652 -0.6954 -0.1995
14577TIP3    H165146   3.085   5.581  14.211  0.4433  2.0747  0.1868
14577TIP3    H265147   3.017   5.567  14.345  0.0194 -0.9296 -0.2669
14578TIP3   OH265148   3.404   2.294   4.049  0.0531 -0.7433 -0.1879
14578TIP3    H165149   3.374   2.206   4.025 -0.8405 -0.3690 -0.4614
14578TIP3    H265150   3.494   2.280   4.081 -0.7150 -2.0337  1.6065
14579TIP3   OH265151   2.275   1.640   4.131  0.2295 -0.4178 -0.3454
14579TIP3    H165152   2.260   1.704   4.061 -0.0825 -1.1618 -0.9677
14579TIP3    H265153   2.239   1.682   4.209  1.8598  1.0346 -0.3047
14580TIP3   OH265154   2.979   4.598   3.962  0.5703 -0.4290  0.2656
14580TIP3    H165155   3.052   4.625   4.017  0.8890 -1.9234  0.5998
14580TIP3    H265156   3.016   4.535   3.901 -0.2488 -0.5072 -0.1711
14581TIP3   OH265157   1.049   2.211   1.731  0.2918 -0.8649  0.1991
14581TIP3    H165158   1.053   2.299   1.769 -0.2665 -1.6238  2.1902
14581TIP3    H265159   0.972   2.212   1.675  0.1731 -0.1312  0.3645
14582TIP3   OH265160   2.462   1.513   1.838 -0.3619 -0.3110  0.6986
14582TIP3    H165161   2.382   1.474   1.873 -0.4759 -1.0521 -0.3322
14582TIP3    H265162   2.516   1.438   1.812 -0.1660  0.1954 -0.4123
14583TIP3   OH265163   3.167   1.895   4.553  0.0005  0.1208 -0.8726
14583TIP3    H165164   3.144   1.921   4.464 -1.3832 -0.7289 -0.7928
14583TIP3    H265165   3.135   1.805   4.561  1.2122 -0.2470  0.0888
14584TIP3   OH265166   3.179   5.107  13.260  0.4648 -0.4619 -0.0557
14584TIP3    H165167   3.170   5.058  13.342 -1.4681 -2.1909 -1.2161
14584TIP3    H265168   3.205   5.041  13.195 -1.9727 -0.0145 -1.6260
14585TIP3   OH265169   6.408   3.436   3.775  0.2018  0.0425 -0.0785
14585TIP3    H165170   6.315   3.457   3.790  0.4614 -0.4129  2.6297
14585TIP3    H265171   6.406   3.356   3.723 -0.8632  0.9854 -1.5847
14586TIP3   OH265172   5.667   4.643   2.122  0.1905 -0.3015  0.1838
14586TIP3    H165173   5.719   4.562   2.120 -0.1609 -0.5155 -0.3718
14586TIP3    H265174   5.665   4.667   2.214 -0.9092 -1.7221  0.5709
14587TIP3   OH265175   5.276   1.797   3.830 -0.1342 -0.4498  0.1500
14587TIP3    H165176   5.326   1.771   3.908  0.9876 -1.2383 -0.7972
14587TIP3    H265177   5.185   1.781   3.853  0.2098 -1.0332  1.1741
14588TIP3   OH265178   4.326   4.618   3.253 -0.1108  0.0237 -0.3563
14588TIP3    H165179   4.279   4.558   3.196  1.0380 -1.0699 -0.1925
14588TIP3    H265180   4.396   4.654   3.199  0.9317 -0.9528  0.2920
14589TIP3   OH265181   1.713   7.004   1.159 -1.0581  0.1662  0.3461
14589TIP3    H165182   1.808   7.014   1.168 -1.0695 -0.8680  2.0927
14589TIP3    H265183   1.689   7.067   1.092  0.8734  0.3933 -0.2086
14590TIP3   OH265184   0.180   2.927  14.689  0.4124 -0.1618 -0.3146
14590TIP3    H165185   0.106   2.941  14.631  1.3527 -0.0507 -1.5303
14590TIP3    H265186   0.203   3.015  14.721 -0.6683 -0.3273  0.9710
14591TIP3   OH265187   1.933   2.709   3.226 -0.5275 -0.3213 -0.0381
14591TIP3    H165188   2.024   2.721   3.200 -0.7163  3.4206  0.4885
14591TIP3    H265189   1.928   2.745   3.315 -2.3407 -1.2836  0.3003
14592TIP3   OH265190   7.150   0.517   4.513 -0.6134 -0.8731 -0.1838
14592TIP3    H165191   7.184   0.591   4.462  0.4845 -1.1356  0.1417
14592TIP3    H265192   7.221   0.496   4.574 -1.9431 -0.5012  1.5363
14593TIP3   OH265193   1.764   4.343   1.099  0.5458  0.4321  0.1170
14593TIP3    H165194   1.795   4.262   1.141  0.0504 -0.4268 -1.1267
14593TIP3    H265195   1.802   4.413   1.152  0.2124 -0.5992  1.8018
14594TIP3   OH265196   4.066   6.502   3.140 -0.1872  0.1823 -0.1680
14594TIP3    H165197   4.030   6.514   3.052  0.4213 -1.5861 -0.7087
14594TIP3    H265198   4.001   6.540   3.199 -2.3929 -1.8023 -1.1738
14595TIP3   OH265199   3.803   5.306   4.495 -0.7493  0.4017  0.3652
14595TIP3    H165200   3.793   5.342   4.583  0.1529  1.2444  0.1479
14595TIP3    H265201   3.875   5.243   4.503 -0.3798  0.7867  0.1646
14596TIP3   OH265202   3.930   4.457   5.378 -0.2261  0.8315 -0.4626
14596TIP3    H165203   3.931   4.367   5.345  1.1644  1.0960 -1.2211
14596TIP3    H265204   3.839   4.471   5.405 -0.5931 -0.6197 -0.8166
14597TIP3   OH265205   6.404   6.205   2.257 -0.4908  0.4149  0.4959
14597TIP3    H165206   6.367   6.293   2.249  0.9294  0.8743 -2.2277
14597TIP3    H265207   6.369   6.157   2.181  1.0386 -0.4417  0.2879
14598TIP3   OH265208   3.454   6.514   4.830  0.0779 -0.4080  0.1208
14598TIP3    H165209   3.470   6.602   4.865 -2.1280  0.1644 -0.1431
14598TIP3    H265210   3.369   6.521   4.787  1.5616 -1.6685 -3.4275
14599TIP3   OH265211   1.092   4.704   1.579  0.3124 -0.5366 -0.4853
14599TIP3    H165212   1.024   4.655   1.533  0.3941 -1.3481  0.2503
14599TIP3    H265213   1.122   4.646   1.648 -1.4052  1.4247  2.1220
14600TIP3   OH265214   5.526   2.401  14.678 -0.8459 -0.3927  0.4300
14600TIP3    H165215   5.522   2.473  14.616 -1.5641 -0.0342  0.8735
14600TIP3    H265216   5.568   2.330  14.630 -0.1229  0.3184 -0.0070
14601TIP3   OH265217   5.076   4.028   2.832 -0.5181  0.4363  0.0154
14601TIP3    H165218   5.168   4.052   2.828 -0.2121 -0.5625  0.6100
14601TIP3    H265219   5.029   4.106   2.805  0.5207  0.8080 -0.7581
14602TIP3   OH265220   4.647   6.165   0.765 -0.0744  0.1298 -0.4969
14602TIP3    H165221   4.705   6.219   0.711 -0.4460  1.4063  0.3348
14602TIP3    H265222   4.696   6.149   0.845 -0.6881  0.8910  0.0518
14603TIP3   OH265223   2.077   6.522   2.311  0.0077 -0.2442  0.0266
14603TIP3    H165224   2.128   6.472   2.247  0.7848  1.6643 -0.9419
14603TIP3    H265225   2.022   6.457   2.354  2.4077 -2.2429  0.3147
14604TIP3   OH265226   2.194   1.554  14.748 -0.9716 -0.0517 -0.3803
14604TIP3    H165227   2.171   1.596  14.831  1.0618 -1.2679  0.8928
14604TIP3    H265228   2.127   1.487  14.735 -0.6716 -0.6330  0.9317
14605TIP3   OH265229   4.654   3.896   3.227 -0.2203  0.3683 -0.7664
14605TIP3    H165230   4.599   3.852   3.291  2.3088 -0.9469  0.6509
14605TIP3    H265231   4.676   3.980   3.268  1.6018 -0.5750  0.3408
14606TIP3   OH265232   0.807   5.274   4.295  0.0081 -0.5802  0.1569
14606TIP3    H165233   0.897   5.272   4.326  0.5084  0.9659 -1.0764
14606TIP3    H265234   0.810   5.325   4.214 -2.1108  0.2883  0.5500
14607TIP3   OH265235   1.325   2.497   4.749 -0.2548 -0.1457 -0.6706
14607TIP3    H165236   1.246   2.457   4.786 -0.2724  0.0767 -0.4591
14607TIP3    H265237   1.397   2.461   4.801 -0.3740  1.0344  0.3618
14608TIP3   OH265238   4.914   2.061  15.471 -0.7104 -0.0130 -0.3365
14608TIP3    H165239   4.957   2.125  15.528  0.0352 -2.1705  1.6872
14608TIP3    H265240   4.828   2.048  15.510 -1.5589  0.9684 -1.7722
14609TIP3   OH265241   6.993   5.937   2.528  0.6056 -0.2573  1.2325
14609TIP3    H165242   6.986   6.026   2.492  1.9964 -0.0856  1.3390
14609TIP3    H265243   6.903   5.914   2.552  0.0174  0.5957 -0.0272
14610TIP3   OH265244   2.221   4.843   5.329 -0.1158  0.1003  0.1619
14610TIP3    H165245   2.287   4.843   5.398 -1.3048  1.2212  1.3828
14610TIP3    H265246   2.258   4.790   5.259  0.6230 -2.2194  2.1850
14611TIP3   OH265247   0.536   1.814  14.758 -0.0261 -0.5623  0.7234
14611TIP3    H165248   0.495   1.896  14.785 -1.5513 -0.5987 -1.2510
14611TIP3    H265249   0.494   1.792  14.675  2.2885 -1.9523 -0.1844
14612TIP3   OH265250   3.099   0.236   0.515  0.1504 -0.2050  0.2417
14612TIP3    H165251   3.080   0.159   0.463  0.8403 -0.7952  0.8442
14612TIP3    H265252   3.183   0.217   0.557  0.3968  0.9232  0.2997
14613TIP3   OH265253   6.397   2.465  14.048 -0.0553  0.5765  0.9236
14613TIP3    H165254   6.391   2.371  14.033  0.4573  0.0045  3.7056
14613TIP3    H265255   6.307   2.496  14.040 -0.1122  0.0410 -0.8741
14614TIP3   OH265256   2.780   3.611   4.590  0.7929 -0.0388 -0.1727
14614TIP3    H165257   2.704   3.668   4.577  0.2318 -0.9445 -0.9769
14614TIP3    H265258   2.838   3.630   4.516  0.8852 -0.0825 -0.1127
14615TIP3   OH265259   4.116   5.031   1.841  0.1921 -0.4396  0.3717
14615TIP3    H165260   4.189   4.993   1.890 -0.8718 -0.8891  1.6865
14615TIP3    H265261   4.054   4.959   1.831 -0.0307 -0.0940 -0.8250
14616TIP3   OH265262   3.738   6.160   3.495 -0.3777  0.1115  0.3807
14616TIP3    H165263   3.687   6.233   3.530 -1.4348  0.2273 -1.3117
14616TIP3    H265264   3.808   6.146   3.560 -1.7084  0.8798  2.0421
14617TIP3   OH265265   6.557   2.934   4.585 -0.0108  0.0732  0.0551
14617TIP3    H165266   6.478   2.890   4.617  0.8220 -0.4338  1.4532
14617TIP3    H265267   6.561   3.016   4.635  0.1273  0.3014 -0.3231
14618TIP3   OH265268   0.524   4.009   3.089 -0.1750 -0.1321 -0.4770
14618TIP3    H165269   0.500   3.978   3.001  1.4510 -0.3626 -0.8802
14618TIP3    H265270   0.494   3.940   3.147  1.2331 -1.3714 -1.1459
14619TIP3   OH265271   5.429   5.163   1.370  0.6224  0.4254  0.5017
14619TIP3    H165272   5.457   5.156   1.279 -1.1221  2.0490 -0.2218
14619TIP3    H265273   5.505   5.200   1.416  1.6782 -0.8452 -0.1596
14620TIP3   OH265274   2.479   0.478   4.691  0.2327 -0.2499 -0.6883
14620TIP3    H165275   2.389   0.456   4.665 -0.1422  1.6230 -1.0770
14620TIP3    H265276   2.485   0.572   4.679  2.5291 -0.4431 -1.4633
14621TIP3   OH265277   4.486   4.283   3.160 -0.8459  0.1546  0.3394
14621TIP3    H165278   4.406   4.327   3.130 -0.8140  0.0835  0.1518
14621TIP3    H265279   4.557   4.337   3.126 -0.8183  0.7296  1.2733
14622TIP3   OH265280   5.468   2.512  11.155  0.3030  0.5475  0.4575
14622TIP3    H165281   5.453   2.538  11.246  0.9857  0.6483  0.5442
14622TIP3    H265282   5.488   2.594  11.110 -0.2661  0.5304  0.1589
14623TIP3   OH265283   2.267   4.745   0.151 -0.2048 -0.0812 -0.2819
14623TIP3    H165284   2.314   4.677   0.199 -0.1654 -0.5854 -1.0238
14623TIP3    H265285   2.229   4.800   0.219  0.8396 -0.0863  0.3284
14624TIP3   OH265286   4.325   7.038   5.501  0.0502  0.4751  0.0863
14624TIP3    H165287   4.325   7.020   5.407  0.1905  0.7771  0.0290
14624TIP3    H265288   4.328   7.133   5.508 -0.5469  0.4796  0.3932
14625TIP3   OH265289   3.410   3.425   0.811 -0.2160 -0.1529 -0.1501
14625TIP3    H165290   3.361   3.368   0.871  0.4845 -0.4856  0.1245
14625TIP3    H265291   3.343   3.468   0.758 -0.7702 -1.4739 -0.5823
14626TIP3   OH265292   3.278   3.844   4.541  0.5993 -0.2896 -0.0938
14626TIP3    H165293   3.282   3.892   4.459  0.9154 -1.6887 -0.9410
14626TIP3    H265294   3.353   3.784   4.537  1.2081  0.2807  1.6709
14627TIP3   OH265295   2.019   2.715   2.134 -0.6741 -1.0629  0.6097
14627TIP3    H165296   2.017   2.627   2.097 -3.2820 -0.4126 -1.1051
14627TIP3    H265297   2.079   2.764   2.078 -1.7600 -0.9887 -0.5258
14628TIP3   OH265298   6.671   6.989   2.371 -0.1030  0.3386  0.1768
14628TIP3    H165299   6.577   6.988   2.393  0.2058 -2.7397  1.9124
14628TIP3    H265300   6.708   6.916   2.421  3.4388  2.0083  0.3186
14629TIP3   OH265301   0.158   6.356   2.204 -0.7168 -0.1542  0.2493
14629TIP3    H165302   0.227   6.313   2.154 -1.3431 -0.6388 -0.2080
14629TIP3    H265303   0.204   6.424   2.254  0.3272 -1.4629  1.1507
14630TIP3   OH265304   2.781   6.313   4.090 -0.4796 -0.1931  0.0214
14630TIP3    H165305   2.703   6.368   4.082 -1.4772 -1.4814  0.6624
14630TIP3    H265306   2.825   6.347   4.168 -0.7262  0.1209  0.0302
14631TIP3   OH265307   0.950   6.748   4.635 -0.2201 -0.2079 -0.2414
14631TIP3    H165308   1.003   6.674   4.666 -0.6695 -0.0191  1.0353
14631TIP3    H265309   0.860   6.714   4.636 -0.2915 -0.0756 -1.0382
14632TIP3   OH265310   3.551   2.945   2.748  0.3593 -0.3835  0.0283
14632TIP3    H165311   3.563   2.852   2.768 -0.8169 -0.7693 -0.9628
14632TIP3    H265312   3.610   2.990   2.808  2.0995 -1.8352 -0.5104
14633TIP3   OH265313   3.021   4.554  15.145 -0.3822 -0.6278  0.4234
14633TIP3    H165314   3.095   4.570  15.087 -1.3338 -0.8966 -0.9016
14633TIP3    H265315   2.970   4.635  15.142 -0.7557 -0.8618  0.4065
14634TIP3   OH265316   7.068   2.725   4.075  0.0076 -0.7218  0.4730
14634TIP3    H165317   7.019   2.733   4.157 -1.7366 -1.3538 -0.4635
14634TIP3    H265318   7.150   2.684   4.101 -1.0397 -2.1383  1.7523
14635TIP3   OH265319   4.261   3.940  14.802 -0.2417 -0.0031  0.1957
14635TIP3    H165320   4.293   3.949  14.712  0.7474  0.0039  0.5362
14635TIP3    H265321   4.340   3.925  14.854 -0.8323 -0.2956  1.0290
14636TIP3   OH265322   2.701   6.227   1.518 -0.0111 -0.5395 -0.4116
14636TIP3    H165323   2.754   6.257   1.444  0.4596  0.7984  0.4376
14636TIP3    H265324   2.762   6.178   1.573 -0.1753 -0.8494 -0.5029
14637TIP3   OH265325   4.742   1.961   4.905  0.1631 -0.4937 -0.4561
14637TIP3    H165326   4.727   1.869   4.929 -2.8557  0.3376  1.4145
14637TIP3    H265327   4.714   1.967   4.814 -0.2849 -1.2999 -0.3812
14638TIP3   OH265328   3.218   3.628   3.041 -0.1893  0.2696 -0.2723
14638TIP3    H165329   3.213   3.567   2.968 -1.7704  0.5758 -0.4591
14638TIP3    H265330   3.203   3.714   3.003  0.5132  0.6163  0.2046
14639TIP3   OH265331   0.053   2.533   2.072  0.3687 -0.0749 -0.2213
14639TIP3    H165332   0.075   2.444   2.045  0.3933  0.4458 -2.0804
14639TIP3    H265333   0.134   2.583   2.058 -0.3377  0.7198 -1.6387
14640TIP3   OH265334   0.413   4.077  14.233  0.2499  0.1018 -0.2262
14640TIP3    H165335   0.387   4.009  14.170  0.7472 -0.1658 -0.1447
14640TIP3    H265336   0.346   4.145  14.223 -0.0364 -0.2253 -0.5850
14641TIP3   OH265337   5.554   5.696  11.417 -0.2112  0.3156  0.0998
14641TIP3    H165338   5.531   5.606  11.438 -0.9973 -0.0562 -2.1212
14641TIP3    H265339   5.470   5.743  11.417 -0.0329  0.6451 -0.5441
14642TIP3   OH265340   1.866   2.581   4.088  0.7880 -0.4915 -0.2464
14642TIP3    H165341   1.847   2.661   4.039  1.9875 -0.1761 -0.2214
14642TIP3    H265342   1.829   2.597   4.175  0.4056 -0.2480 -0.4500
14643TIP3   OH265343   2.002   6.297  13.366 -0.0499  0.0535 -0.0559
14643TIP3    H165344   2.026   6.373  13.313 -1.4999  0.6712  0.1188
14643TIP3    H265345   2.079   6.281  13.421  0.7267  0.6367 -0.9446
14644TIP3   OH265346   4.819   1.186   4.834  0.8754 -0.0899 -0.4495
14644TIP3    H165347   4.833   1.196   4.739 -1.7647  2.3799 -0.7016
14644TIP3    H265348   4.726   1.202   4.846  1.0560 -0.8363  2.5560
14645TIP3   OH265349   6.209   4.642   9.644 -0.0728  0.2279  0.9459
14645TIP3    H165350   6.288   4.681   9.681 -0.7600  2.5911  0.1288
14645TIP3    H265351   6.224   4.548   9.649  2.9474  0.5841  0.5093
14646TIP3   OH265352   3.210   1.973   1.662  0.2428  0.0027  0.2340
14646TIP3    H165353   3.219   1.879   1.677  0.6390  0.0023  0.0176
14646TIP3    H265354   3.133   1.981   1.605  0.9511 -0.3111 -0.8114
14647TIP3   OH265355   0.121   0.492   1.003  0.1758 -0.2830 -0.4702
14647TIP3    H165356   0.053   0.560   1.007  2.1052  1.7162  0.2463
14647TIP3    H265357   0.083   0.424   0.948 -2.7629  0.3017  0.6449
14648TIP3   OH265358   6.779   1.244  11.986 -0.6605  0.0270  0.1101
14648TIP3    H165359   6.727   1.197  12.051 -0.2949 -0.7354 -0.1459
14648TIP3    H265360   6.769   1.193  11.905  0.3803 -0.0631  0.0260
14649TIP3   OH265361   5.957   6.953  12.795 -0.2862 -0.5158 -0.1830
14649TIP3    H165362   6.048   6.962  12.824 -0.1420  0.5063 -0.8962
14649TIP3    H265363   5.964   6.908  12.711 -0.1655  2.0576 -1.6409
14650TIP3   OH265364   1.672   2.153  13.330 -0.5119  0.4824  0.6596
14650TIP3    H165365   1.619   2.125  13.256  2.0833 -1.8327 -0.5263
14650TIP3    H265366   1.644   2.097  13.403 -0.3144 -0.1149  0.2828
14651TIP3   OH265367   6.093   2.922   4.079 -0.0719  0.5247 -0.3156
14651TIP3    H165368   6.153   2.993   4.100  1.2790 -1.0725  1.6923
14651TIP3    H265369   6.133   2.844   4.119 -0.8687 -1.6387 -3.3194
14652TIP3   OH265370   4.643   5.872   5.787  0.3644  0.1551  0.1963
14652TIP3    H165371   4.729   5.909   5.810  1.0612 -1.7250  0.8094
14652TIP3    H265372   4.663   5.807   5.719 -0.9369  1.4410 -1.5237
14653TIP3   OH265373   2.250   1.400   1.029 -0.0430  0.3181  0.1171
14653TIP3    H165374   2.191   1.336   1.069 -0.1234  0.8760  0.9242
14653TIP3    H265375   2.260   1.370   0.938 -0.5936 -0.4647  0.3014
14654TIP3   OH265376   2.949   3.113   4.988  0.4950 -0.1981  0.4067
14654TIP3    H165377   2.959   3.166   4.909  0.7090 -1.9279 -0.8029
14654TIP3    H265378   2.920   3.028   4.955 -0.2961 -0.7055  2.2968
14655TIP3   OH265379   5.534   6.300   4.274  0.0334  0.3748 -0.5298
14655TIP3    H165380   5.597   6.250   4.326  0.1432  0.5488 -0.4954
14655TIP3    H265381   5.472   6.234   4.241 -0.8809  0.4266  0.9813
14656TIP3   OH265382   5.956   3.467  15.412  0.5636  0.4553  0.6110
14656TIP3    H165383   6.038   3.483  15.365 -0.5243  1.9250 -0.9317
14656TIP3    H265384   5.969   3.507  15.498  1.0530  1.7417 -0.0458
14657TIP3   OH265385   1.492   2.814   5.502 -0.1381  0.2630 -0.4881
14657TIP3    H165386   1.458   2.901   5.524  1.0281  0.3507  1.1721
14657TIP3    H265387   1.422   2.754   5.527 -0.4351  0.6488 -0.3729
14658TIP3   OH265388   0.468   3.409   4.722 -0.2713  0.5500  0.7407
14658TIP3    H165389   0.546   3.363   4.752 -1.1849 -0.2544  1.9573
14658TIP3    H265390   0.437   3.456   4.799 -2.4197 -1.2060  1.0571
14659TIP3   OH265391   1.556   4.242   3.652 -0.8421 -0.5970 -0.2052
14659TIP3    H165392   1.572   4.185   3.577 -0.5117  0.8879 -1.3215
14659TIP3    H265393   1.462   4.259   3.649 -0.5240  1.3360 -1.7944
14660TIP3   OH265394   1.700   0.447   2.762  0.6018 -0.4374 -0.0087
14660TIP3    H165395   1.762   0.491   2.704 -1.2950  0.2220 -1.6889
14660TIP3    H265396   1.713   0.354   2.746 -0.0912 -0.2670 -1.8295
14661TIP3   OH265397   1.869   6.699   1.928  0.0421  0.3684 -0.0623
14661TIP3    H165398   1.812   6.688   2.004  0.2264  0.1267  0.0383
14661TIP3    H265399   1.808   6.707   1.854 -0.1591  1.2247  0.1809
14662TIP3   OH265400   2.200   3.012   2.830  0.2027 -0.2035  0.3324
14662TIP3    H165401   2.131   2.952   2.858 -0.3221  0.4735  0.5022
14662TIP3    H265402   2.251   2.961   2.766 -0.9848 -0.4185 -0.4629
14663TIP3   OH265403   2.016   4.096   0.191 -0.0233  0.2881  0.7316
14663TIP3    H165404   2.034   4.069   0.101  1.3094  1.2083  0.6858
14663TIP3    H265405   2.011   4.015   0.240 -1.3637 -0.2626 -0.2509
14664TIP3   OH265406   5.051   5.763  13.587  0.9188 -0.8701  0.3795
14664TIP3    H165407   5.056   5.697  13.656  0.3832 -0.6759  0.6052
14664TIP3    H265408   5.134   5.754  13.541  0.9691 -1.5184  0.5751
14665TIP3   OH265409   3.063   1.599  11.036  0.1441  0.2335 -1.0205
14665TIP3    H165410   3.073   1.510  11.003 -1.4721 -0.6480  0.6761
14665TIP3    H265411   3.125   1.604  11.109 -1.5639 -0.4661  0.5595
14666TIP3   OH265412   7.154   0.178   4.306 -0.1462 -0.3772  0.4129
14666TIP3    H165413   7.195   0.108   4.255  0.2142 -0.3162  0.6109
14666TIP3    H265414   7.213   0.253   4.295 -0.3952 -0.1807  0.4096
14667TIP3   OH265415   0.453   1.657  15.017  0.2716 -0.2913 -0.1527
14667TIP3    H165416   0.521   1.693  14.961  2.3372 -2.9228  0.4742
14667TIP3    H265417   0.441   1.567  14.986 -1.1142 -0.6843  1.3619
14668TIP3   OH265418   4.240   4.132   3.680 -0.2842  0.4594  0.1881
14668TIP3    H165419   4.261   4.055   3.732 -1.2707  0.0805  0.0504
14668TIP3    H265420   4.288   4.120   3.598  1.4818  1.1831  1.0619
14669TIP3   OH265421   0.393   2.912  15.195 -0.5140  0.2696  0.3102
14669TIP3    H165422   0.340   2.895  15.117 -0.0109 -1.9543  0.3969
14669TIP3    H265423   0.353   2.989  15.235 -1.1972  1.0587 -1.7590
14670TIP3   OH265424   5.712   2.788  10.204 -0.7450  0.1887  0.3152
14670TIP3    H165425   5.644   2.752  10.148  1.8393 -2.0962 -1.6299
14670TIP3    H265426   5.757   2.712  10.240  0.2233  1.5996  2.3192
14671TIP3   OH265427   2.858   3.755   4.166 -0.1863 -0.0695  0.7350
14671TIP3    H165428   2.938   3.795   4.131 -0.1423 -1.4077 -0.8017
14671TIP3    H265429   2.788   3.814   4.138  0.0557 -0.0637  0.1281
14672TIP3   OH265430   0.066   4.458  10.071  0.2246 -0.3864  0.0501
14672TIP3    H165431  -0.017   4.415  10.091 -0.3400  0.2275 -0.8621
14672TIP3    H265432   0.042   4.549  10.054  0.7544 -0.5984 -2.2373
14673TIP3   OH265433   5.768   4.050   0.286 -0.1989  0.0178  0.6288
14673TIP3    H165434   5.798   4.139   0.304 -1.1065  0.4063  0.3158
14673TIP3    H265435   5.846   4.002   0.260 -0.1062  1.5899 -2.5175
14674TIP3   OH265436   2.035   0.213   0.434  0.2988  0.5679 -0.0222
14674TIP3    H165437   1.952   0.249   0.405  1.0310  1.5607 -0.9731
14674TIP3    H265438   2.014   0.162   0.512 -1.4382 -0.5397 -1.1664
14675TIP3   OH265439   4.534   3.634  14.626  0.4339 -0.0569  0.6805
14675TIP3    H165440   4.538   3.723  14.591 -0.8205 -0.1898  0.1678
14675TIP3    H265441   4.578   3.580  14.559 -1.5853 -0.2487 -0.5696
14676TIP3   OH265442   0.856   0.184  14.808  0.7694 -0.6266  0.1988
14676TIP3    H165443   0.803   0.217  14.735  1.3913  1.3917  0.5813
14676TIP3    H265444   0.793   0.156  14.874  0.1936 -0.8895 -0.4613
14677TIP3   OH265445   4.035   0.970   3.760  0.0828 -0.5430 -0.5468
14677TIP3    H165446   4.109   0.941   3.706 -0.3744  1.4545 -2.3878
14677TIP3    H265447   3.987   0.889   3.780  2.9267 -1.9909  1.1462
14678TIP3   OH265448   3.262   1.807   5.751 -0.1533 -0.7169  0.2341
14678TIP3    H165449   3.329   1.741   5.768 -2.0679 -2.6460  0.8212
14678TIP3    H265450   3.211   1.771   5.678 -0.7049  0.5523 -0.0194
14679TIP3   OH265451   4.739   6.543  13.138  0.0673  0.3191  0.1134
14679TIP3    H165452   4.774   6.629  13.114  0.2488  0.0021 -0.8183
14679TIP3    H265453   4.739   6.542  13.233  0.1194  1.3292  0.1299
14680TIP3   OH265454   0.978   6.112   5.156  0.0358 -0.6771  0.3353
14680TIP3    H165455   1.047   6.110   5.222 -0.2052  0.8859  0.6888
14680TIP3    H265456   0.914   6.174   5.191 -0.3767 -0.2553 -1.0945
14681TIP3   OH265457   1.334   1.866   3.910 -0.0596 -0.4308  0.2427
14681TIP3    H165458   1.310   1.928   3.979 -1.1580 -1.1496  0.5271
14681TIP3    H265459   1.414   1.825   3.942 -0.5359 -0.7247  1.0724
14682TIP3   OH265460   2.455   0.586   3.886  0.4753  0.0177  0.6212
14682TIP3    H165461   2.507   0.567   3.965  0.4961  0.7689  0.7953
14682TIP3    H265462   2.493   0.667   3.852 -0.6085  0.6122  0.7795
14683TIP3   OH265463   5.826   6.825   3.916  0.6401 -0.4305 -0.1965
14683TIP3    H165464   5.917   6.798   3.913  0.3235 -1.4893 -0.7645
14683TIP3    H265465   5.779   6.757   3.867 -0.1405  1.4141 -2.1944
14684TIP3   OH265466   2.918   5.798   1.513 -0.2206 -0.0252 -0.3683
14684TIP3    H165467   2.858   5.800   1.588 -2.4703  0.1081 -2.0515
14684TIP3    H265468   2.998   5.758   1.547 -0.6980  1.1040  2.3624
14685TIP3   OH265469   4.815   2.052   4.199  0.0647 -0.9311  0.7209
14685TIP3    H165470   4.827   2.060   4.104 -0.2353 -2.7097  0.4900
14685TIP3    H265471   4.724   2.076   4.214 -0.3822 -2.2839  0.2956
14686TIP3   OH265472   4.631   1.949   1.399  0.5603 -0.3425  0.1536
14686TIP3    H165473   4.666   2.009   1.334 -1.3859 -0.5936 -1.2103
14686TIP3    H265474   4.628   2.000   1.480  1.5621  0.4697 -0.3041
14687TIP3   OH265475   4.193   2.637  10.691 -0.3585  0.0663  0.2886
14687TIP3    H165476   4.264   2.599  10.741  0.0288  0.8420  0.3516
14687TIP3    H265477   4.134   2.673  10.757 -0.8224 -0.5924  0.2360
14688TIP3   OH265478   0.724   5.136  15.147  0.8491 -0.0281 -0.2972
14688TIP3    H165479   0.648   5.194  15.157  0.2687 -0.6815 -0.7632
14688TIP3    H265480   0.800   5.192  15.162  0.2556  0.1953  2.5308
14689TIP3   OH265481   5.578   6.659   3.827  0.8896 -0.0278 -0.3244
14689TIP3    H165482   5.506   6.721   3.828  1.7473  0.9836  0.9843
14689TIP3    H265483   5.569   6.613   3.744 -1.5448 -0.2802  0.0228
14690TIP3   OH265484   5.953   3.525   1.409 -0.6743 -0.2302 -0.0707
14690TIP3    H165485   5.899   3.550   1.483 -1.0549  0.7138 -0.6454
14690TIP3    H265486   5.913   3.569   1.334  1.3546  1.1982 -0.3925
14691TIP3   OH265487   4.950   1.677  12.603 -0.1813 -0.4928  0.0267
14691TIP3    H165488   5.013   1.730  12.651  0.1992 -1.7005  0.9055
14691TIP3    H265489   5.003   1.616  12.551 -0.6175 -0.5239 -0.3971
14692TIP3   OH265490   2.352   1.557  14.518 -0.9373  0.0399  0.1734
14692TIP3    H165491   2.288   1.544  14.588 -0.5607 -0.3111  0.4610
14692TIP3    H265492   2.383   1.646  14.531 -0.7849 -0.0607  0.5287
14693TIP3   OH265493   2.071   3.450  15.359  0.2225 -0.3525  0.2774
14693TIP3    H165494   2.153   3.437  15.405  0.9512  0.7055 -0.6436
14693TIP3    H265495   2.080   3.400  15.278  0.4353  0.6337 -0.3314
14694TIP3   OH265496   5.009   1.825   0.194 -0.3753  0.1074 -0.1619
14694TIP3    H165497   4.948   1.768   0.147 -0.8355  0.6796 -0.2706
14694TIP3    H265498   5.055   1.873   0.125  0.3041 -0.4145 -0.0861
14695TIP3   OH265499   3.227   1.587  13.367 -0.1480 -0.3648 -0.0593
14695TIP3    H165500   3.267   1.660  13.321  1.1667  0.1165  1.7244
14695TIP3    H265501   3.226   1.516  13.303  2.3519  0.0238 -0.6544
14696TIP3   OH265502   7.112   0.606   4.000 -0.6992 -0.1766  0.6849
14696TIP3    H165503   7.207   0.618   3.996 -0.6343 -0.6228  0.8345
14696TIP3    H265504   7.078   0.694   4.015 -0.3760  0.1306 -0.3084
14697TIP3   OH265505   3.996   0.305  12.914  0.3273 -0.0009 -0.4881
14697TIP3    H165506   3.906   0.337  12.905 -0.0781 -1.2916 -1.3591
14697TIP3    H265507   3.986   0.211  12.927  1.5360 -0.0504  0.1730
14698TIP3   OH265508   0.823   0.934   0.738 -0.4058  0.0859  0.2252
14698TIP3    H165509   0.797   1.025   0.747  0.0628  0.1719  0.7430
14698TIP3    H265510   0.870   0.914   0.819  1.3744  0.0174 -0.7565
14699TIP3   OH265511   5.321   3.820   2.360 -0.4698 -0.3616 -0.4444
14699TIP3    H165512   5.275   3.771   2.428  0.1345 -1.1267 -0.5770
14699TIP3    H265513   5.269   3.806   2.281 -0.7410 -0.1152 -0.3122
14700TIP3   OH265514   3.598   4.395  13.830  0.0916 -0.0442  0.0571
14700TIP3    H165515   3.676   4.437  13.793 -1.1252  0.1376 -2.5566
14700TIP3    H265516   3.536   4.466  13.843  0.5736 -0.0495  3.0280
14701TIP3   OH265517   6.230   5.962  13.121 -0.4256 -0.1657  0.2442
14701TIP3    H165518   6.323   5.947  13.134 -0.0386  0.7342 -1.2763
14701TIP3    H265519   6.195   5.878  13.093 -0.2270 -0.6779  1.4572
14702TIP3   OH265520   1.802   1.691   6.051  0.5218  0.1096  0.3534
14702TIP3    H165521   1.861   1.764   6.032  1.7033 -0.3861  1.9106
14702TIP3    H265522   1.721   1.733   6.080  1.3544  0.8752  1.7403
14703TIP3   OH265523   6.193   1.274  13.469  0.0726  0.1069  0.8985
14703TIP3    H165524   6.201   1.368  13.449 -0.7571 -0.3373 -1.8266
14703TIP3    H265525   6.278   1.238  13.443 -0.3907 -0.2167 -0.1870
14704TIP3   OH265526   0.091   5.989   4.336  0.4645 -0.2609  0.0614
14704TIP3    H165527   0.179   6.025   4.341  1.2542 -2.1680  1.0670
14704TIP3    H265528   0.056   6.022   4.254  2.0002  0.7929 -0.2044
14705TIP3   OH265529   5.753   2.350   1.222 -0.1108  0.3770  0.4111
14705TIP3    H165530   5.833   2.403   1.218 -0.0982  0.3197 -0.2989
14705TIP3    H265531   5.732   2.333   1.130 -0.1191 -0.8331  0.6262
14706TIP3   OH265532   6.173   5.008   2.583  0.1836 -0.3880  0.0672
14706TIP3    H165533   6.198   5.087   2.630  2.0704 -0.4518 -0.7142
14706TIP3    H265534   6.186   5.030   2.491 -0.7214 -1.1335 -0.2492
14707TIP3   OH265535   4.148   3.166  14.849 -0.3632 -0.1697  0.4925
14707TIP3    H165536   4.182   3.090  14.802  1.2316 -0.0492  1.3972
14707TIP3    H265537   4.065   3.136  14.886 -0.4163 -1.0326 -0.2831
14708TIP3   OH265538   4.120   6.218  14.042  0.0296 -0.1708 -0.4933
14708TIP3    H165539   4.115   6.313  14.033 -1.4494  0.1405  2.5829
14708TIP3    H265540   4.029   6.189  14.053  0.6392 -1.5897  1.2560
14709TIP3   OH265541   4.056   4.336   4.242 -0.3057 -0.5675  0.3952
14709TIP3    H165542   4.122   4.403   4.222 -0.2041 -0.8433 -0.2406
14709TIP3    H265543   4.041   4.344   4.336 -0.8098  0.8176  0.2206
14710TIP3   OH265544   3.736   0.587   5.293 -0.4165 -0.4422 -0.1080
14710TIP3    H165545   3.782   0.503   5.294 -2.0449 -1.4737 -2.7296
14710TIP3    H265546   3.777   0.637   5.222 -0.7360  0.2233  0.1628
14711TIP3   OH265547   5.836   6.144  12.930 -0.9642 -0.0940  0.0996
14711TIP3    H165548   5.919   6.176  12.895 -1.1188 -1.8475 -2.1168
14711TIP3    H265549   5.852   6.132  13.024  0.4808  1.8992  0.1670
14712TIP3   OH265550   5.630   1.291   4.835  0.5054  0.3706  0.1437
14712TIP3    H165551   5.639   1.386   4.844 -0.0385  0.3716  0.7881
14712TIP3    H265552   5.715   1.256   4.862  0.1453  0.5966  1.6721
14713TIP3   OH265553   3.966   0.879   5.217  0.6019  0.0921 -0.5447
14713TIP3    H165554   4.049   0.924   5.234  0.3863  0.9887 -1.7081
14713TIP3    H265555   3.924   0.873   5.302  1.2580  0.8745 -0.1549
14714TIP3   OH265556   1.585   1.407   5.024  0.2186  0.0654  0.2804
14714TIP3    H165557   1.655   1.426   5.087  0.5212 -0.0085 -0.0354
14714TIP3    H265558   1.584   1.312   5.017  0.5324  0.1007 -0.2249
14715TIP3   OH265559   2.168   5.844   3.954 -0.3525  0.5514  0.3836
14715TIP3    H165560   2.202   5.758   3.981  1.6604  0.9564 -0.6249
14715TIP3    H265561   2.246   5.900   3.954 -1.4537  2.1166 -0.0019
14716TIP3   OH265562   4.336   6.938  13.425 -0.0870 -0.2125 -0.0430
14716TIP3    H165563   4.255   6.908  13.385 -0.5321  0.8128  0.0509
14716TIP3    H265564   4.315   6.946  13.518  0.7276 -1.8858  0.3144
14717TIP3   OH265565   2.463   2.990   2.247 -0.1610  0.5602  0.1652
14717TIP3    H165566   2.521   2.915   2.236 -1.1867 -0.2226 -0.0898
14717TIP3    H265567   2.410   2.991   2.168 -0.7986  0.9826  0.5864
14718TIP3   OH265568   2.006   4.525   2.545  0.2174 -0.1321  0.4410
14718TIP3    H165569   1.973   4.601   2.593  0.8494  0.8041 -0.5591
14718TIP3    H265570   1.966   4.449   2.588 -0.7229  0.7919  1.2203
14719TIP3   OH265571   4.110   2.859   3.358  0.3518 -0.5271  0.1241
14719TIP3    H165572   4.125   2.953   3.349 -0.9960 -0.0495  2.1402
14719TIP3    H265573   4.109   2.826   3.269 -1.8921  1.8516 -0.8575
14720TIP3   OH265574   1.924   0.040   2.853  1.2552  0.0257  0.4461
14720TIP3    H165575   2.017   0.031   2.835  1.5513  1.5309  1.0579
14720TIP3    H265576   1.918   0.114   2.914 -0.3629  0.1715  0.1680
14721TIP3   OH265577   5.213   3.071   4.779 -0.1466  0.0365 -0.7062
14721TIP3    H165578   5.281   3.008   4.802 -0.4699 -0.2673 -0.5632
14721TIP3    H265579   5.237   3.102   4.692 -0.3413 -0.7885 -1.0697
14722TIP3   OH265580   0.525   1.750   4.145  0.5385  0.5788 -0.2439
14722TIP3    H165581   0.493   1.828   4.101  0.8059  0.1459 -1.2172
14722TIP3    H265582   0.561   1.696   4.076  0.1089 -0.5436  0.3882
14723TIP3   OH265583   6.598   3.610   2.629 -0.1779 -0.2378 -0.2327
14723TIP3    H165584   6.549   3.683   2.592  0.3285 -0.6099 -1.6827
14723TIP3    H265585   6.622   3.640   2.717  0.7274  1.7093 -1.0725
14724TIP3   OH265586   4.838   4.769   1.920  0.2996 -0.7537 -0.2130
14724TIP3    H165587   4.802   4.854   1.897  2.2371  0.5704  1.3329
14724TIP3    H265588   4.764   4.708   1.912 -1.0908  1.0225 -1.4739
14725TIP3   OH265589   3.267   3.048   4.133  0.1328  0.5372  0.6819
14725TIP3    H165590   3.304   2.971   4.174 -0.6361 -0.1462  0.1281
14725TIP3    H265591   3.331   3.074   4.067  1.0718  1.2599  1.8275
14726TIP3   OH265592   7.115   0.721  12.983  0.6112 -0.8149  0.1752
14726TIP3    H165593   7.203   0.699  13.015  0.4841 -0.0236  1.1109
14726TIP3    H265594   7.056   0.683  13.048  0.1721 -2.3888 -1.0624
14727TIP3   OH265595   0.507   0.210   2.747 -0.3546 -0.0368 -0.4456
14727TIP3    H165596   0.578   0.145   2.745 -0.0550  0.1968  1.3267
14727TIP3    H265597   0.551   0.293   2.730 -0.3116  0.0209 -0.0571
14728TIP3   OH265598   1.558   5.170  12.732 -0.2867  0.3226 -0.0883
14728TIP3    H165599   1.537   5.077  12.745  0.6550  0.0697 -0.2594
14728TIP3    H265600   1.485   5.217  12.773 -0.0217 -0.4855  1.4163
14729TIP3   OH265601   2.453   5.905   3.056  0.3316 -0.4151 -0.1479
14729TIP3    H165602   2.526   5.867   3.008  0.8845  0.8918 -0.3849
14729TIP3    H265603   2.453   5.859   3.140  0.3336 -1.6298 -0.7989
14730TIP3   OH265604   1.088   2.705   2.487  0.2142 -0.0672 -0.4321
14730TIP3    H165605   1.129   2.747   2.412  0.2027 -0.5063 -0.6880
14730TIP3    H265606   1.161   2.682   2.544  0.4393 -1.7644 -1.3525
14731TIP3   OH265607   7.082   5.037  12.495 -0.6755 -0.1864 -0.1310
14731TIP3    H165608   7.157   5.061  12.441 -0.9626 -0.1197 -0.5044
14731TIP3    H265609   7.006   5.072  12.448 -0.8889  0.3308  0.5845
14732TIP3   OH265610   6.569   6.389  10.812  0.5906 -0.3376 -0.1666
14732TIP3    H165611   6.596   6.299  10.794  0.4403 -0.2771 -0.7066
14732TIP3    H265612   6.515   6.382  10.891 -0.4592 -0.8952 -0.9150
14733TIP3   OH265613   6.287   6.589  14.402 -0.1827  0.3056 -0.4855
14733TIP3    H165614   6.291   6.656  14.333 -2.8738  0.1927 -0.8855
14733TIP3    H265615   6.239   6.516  14.361 -1.6897  0.1614  1.3923
14734TIP3   OH265616   6.222   2.087  10.786 -0.2609  0.4788 -0.8247
14734TIP3    H165617   6.154   2.063  10.849 -0.5361  0.7170 -1.0275
14734TIP3    H265618   6.300   2.104  10.839 -0.0524 -0.8388 -0.6576
14735TIP3   OH265619   2.318   0.016   1.912  0.2626  0.0882 -0.5674
14735TIP3    H165620   2.294   0.108   1.925  0.2176  0.2700 -1.7571
14735TIP3    H265621   2.384  -0.001   1.978  1.7103  1.5657 -1.5504
14736TIP3   OH265622   3.624   4.369   2.644 -0.2364 -0.2796  0.5120
14736TIP3    H165623   3.704   4.385   2.694  2.0450  0.9214 -3.1395
14736TIP3    H265624   3.626   4.275   2.626  1.4553 -0.0148 -1.0200
14737TIP3   OH265625   5.049   4.333   6.023 -0.6856 -0.2702 -0.4071
14737TIP3    H165626   4.965   4.313   6.064 -0.8623 -1.3804 -1.2504
14737TIP3    H265627   5.025   4.374   5.939 -0.3858 -0.4754 -0.5938
14738TIP3   OH265628   3.486   6.258   5.913  0.0547  0.4513 -0.1319
14738TIP3    H165629   3.580   6.255   5.897  0.1764  0.2695  0.5465
14738TIP3    H265630   3.459   6.346   5.886  0.3081  0.3077 -0.8701
14739TIP3   OH265631   1.201   3.752   2.971 -0.5253  0.2455  0.2043
14739TIP3    H165632   1.128   3.777   3.028 -1.2156 -1.5508  0.1836
14739TIP3    H265633   1.206   3.657   2.980 -0.2978 -0.0367 -2.2930
14740TIP3   OH265634   4.146   1.329   3.205 -0.0231  0.0090  0.0237
14740TIP3    H165635   4.217   1.288   3.254 -0.2388  1.4835  1.6725
14740TIP3    H265636   4.165   1.423   3.211 -2.1813  0.4488  0.6415
14741TIP3   OH265637   5.484   5.902   3.314  0.4671  0.0585 -0.0890
14741TIP3    H165638   5.431   5.881   3.238 -0.6070  0.7755  0.4453
14741TIP3    H265639   5.493   5.819   3.361 -0.6294  0.0268  0.0862
14742TIP3   OH265640   2.258   5.772   0.248 -0.1456  0.6547 -0.3868
14742TIP3    H165641   2.183   5.831   0.251  1.4805  2.8916 -0.7166
14742TIP3    H265642   2.282   5.760   0.340  0.3013  1.6378 -0.3616
14743TIP3   OH265643   5.321   3.167   0.998  0.5785 -0.2493 -1.1220
14743TIP3    H165644   5.323   3.255   1.035  0.1159 -1.2853  1.6377
14743TIP3    H265645   5.248   3.169   0.935 -2.1162  0.4140  1.7449
14744TIP3   OH265646   3.722   3.397   2.618  0.5455 -0.4744  0.0532
14744TIP3    H165647   3.723   3.301   2.620  1.9753 -0.6644 -3.1276
14744TIP3    H265648   3.808   3.422   2.653  0.1638 -0.3315  0.9025
14745TIP3   OH265649   5.595   0.156   5.078 -0.3512 -0.4903  0.1024
14745TIP3    H165650   5.667   0.112   5.032  0.6644 -0.3335  1.4662
14745TIP3    H265651   5.568   0.093   5.145  0.1239  0.3441  1.1183
14746TIP3   OH265652   6.504   1.244   2.898  0.2288  0.3325  0.0143
14746TIP3    H165653   6.434   1.285   2.848  0.3418  1.5259  0.7827
14746TIP3    H265654   6.567   1.214   2.833 -0.9492 -0.7081 -0.6840
14747TIP3   OH265655   1.909   2.744   4.677  0.0020  0.9167 -0.7017
14747TIP3    H165656   1.878   2.658   4.707 -2.1866  2.0004  0.3823
14747TIP3    H265657   1.833   2.783   4.633  0.7605  2.5027 -0.6737
14748TIP3   OH265658   6.912   2.126   0.551  0.3180 -0.3454  0.4319
14748TIP3    H165659   6.908   2.164   0.639  1.8080 -1.5542  1.0831
14748TIP3    H265660   6.927   2.033   0.567 -0.6614 -0.8034 -1.1195
14749TIP3   OH265661   4.246   4.771   3.898 -0.3329 -0.0221 -0.0426
14749TIP3    H165662   4.286   4.766   3.812 -2.5179  1.8741 -1.2790
14749TIP3    H265663   4.207   4.684   3.912 -1.2816  0.0987 -1.7064
14750TIP3   OH265664   6.233   5.930  14.132  0.4763  0.1113  0.6334
14750TIP3    H165665   6.260   5.924  14.223  0.1849  0.4528  0.7418
14750TIP3    H265666   6.284   6.003  14.097 -1.1776  1.5505  1.1513
14751TIP3   OH265667   2.563   1.891   1.442 -0.8770 -0.5477  0.4525
14751TIP3    H165668   2.531   1.969   1.397 -0.9276 -0.5963  0.4052
14751TIP3    H265669   2.561   1.915   1.535 -0.2429 -0.2463  0.3964
14752TIP3   OH265670   6.402   1.771   0.441  0.3874 -0.0230 -0.4307
14752TIP3    H165671   6.386   1.681   0.469 -0.9693  0.5855  0.8433
14752TIP3    H265672   6.482   1.796   0.487  1.0699 -0.7167 -1.1947
14753TIP3   OH265673   5.528   4.475  11.394 -0.2076 -0.7364 -0.6535
14753TIP3    H165674   5.559   4.538  11.459  1.7046 -1.6746 -0.5868
14753TIP3    H265675   5.498   4.529  11.321 -3.6745  0.4250  1.3740
14754TIP3   OH265676   3.665   3.223  15.133 -0.0074  0.2244  0.2515
14754TIP3    H165677   3.632   3.219  15.043  1.8007 -0.8376 -0.4221
14754TIP3    H265678   3.632   3.143  15.174 -0.1676  0.3088  0.2878
14755TIP3   OH265679   4.659   1.844   2.387 -0.0864  0.5270 -0.0523
14755TIP3    H165680   4.717   1.774   2.359 -1.1950 -0.3372 -0.2714
14755TIP3    H265681   4.695   1.874   2.470  0.9038  0.3073 -0.3975
14756TIP3   OH265682   3.696   2.624   3.485  0.4338 -0.4298  0.1975
14756TIP3    H165683   3.654   2.543   3.514 -0.4493 -0.9178 -2.2326
14756TIP3    H265684   3.631   2.692   3.502 -1.0117 -1.0204 -2.4599
14757TIP3   OH265685   6.299   0.782   1.307 -0.0521  0.3699  0.3003
14757TIP3    H165686   6.340   0.751   1.226 -1.7814  2.0834 -1.3142
14757TIP3    H265687   6.356   0.853   1.337  0.4788 -0.1286  0.4908
14758TIP3   OH265688   5.482   3.012  12.988  0.2745  0.0124  0.0922
14758TIP3    H165689   5.465   3.092  13.038 -0.5419  0.4114 -0.7999
14758TIP3    H265690   5.419   2.949  13.022  0.1394  0.0953 -0.0046
14759TIP3   OH265691   0.305   4.788   2.335 -0.4946 -0.5096  0.1147
14759TIP3    H165692   0.268   4.870   2.368  1.7595  0.7111 -0.1606
14759TIP3    H265693   0.300   4.727   2.408  0.4601  0.8090  1.3220
14760TIP3   OH265694   0.590   1.028   4.278 -0.1775 -0.2941 -0.4086
14760TIP3    H165695   0.643   1.106   4.298  0.2513 -0.4240 -1.0153
14760TIP3    H265696   0.568   0.992   4.364  0.7072 -0.2246 -0.1405
14761TIP3   OH265697   3.767   3.856   1.767  0.4941 -0.2614 -0.2117
14761TIP3    H165698   3.760   3.816   1.680 -3.1128  0.6605 -0.5282
14761TIP3    H265699   3.726   3.793   1.826 -1.5205  1.0753 -0.0639
14762TIP3   OH265700   4.680   7.159   2.967  0.3117  0.3474  0.3940
14762TIP3    H165701   4.641   7.236   2.927  1.7100  1.5887  1.3294
14762TIP3    H265702   4.702   7.186   3.056  2.2241 -0.6487  0.2641
14763TIP3   OH265703   5.781   1.255   3.184 -0.2972  0.0438 -1.0531
14763TIP3    H165704   5.802   1.338   3.141 -0.0984  0.2984 -0.4896
14763TIP3    H265705   5.695   1.270   3.224 -0.6505 -0.3151 -1.6610
14764TIP3   OH265706   3.739   3.417   5.315  0.1390 -0.0756 -0.0646
14764TIP3    H165707   3.789   3.496   5.296 -0.1950  0.1905  0.1599
14764TIP3    H265708   3.760   3.396   5.406  0.1663 -0.1994 -0.0991
14765TIP3   OH265709   3.298   5.926  10.641  0.4723  0.0081  0.6712
14765TIP3    H165710   3.297   6.019  10.663 -0.1004  0.1065  0.2488
14765TIP3    H265711   3.313   5.924  10.546 -1.6366 -0.2358  0.2889
14766TIP3   OH265712   5.844   2.596   4.847 -0.3380  0.1797  0.0059
14766TIP3    H165713   5.831   2.650   4.925 -1.3700  2.3780 -1.6174
14766TIP3    H265714   5.756   2.579   4.814  0.0995 -0.3834 -0.9178
14767TIP3   OH265715   4.735   6.449  14.231  0.2658  0.1291 -0.1203
14767TIP3    H165716   4.675   6.378  14.256 -1.1063  2.0386  2.4166
14767TIP3    H265717   4.694   6.490  14.155  0.5511 -1.0935 -0.9656
14768TIP3   OH265718   6.889   6.935   5.202 -0.0823  0.1142 -0.3751
14768TIP3    H165719   6.957   6.991   5.164  1.6426 -1.6150  0.0167
14768TIP3    H265720   6.863   6.981   5.282  1.3681  0.3627 -0.0056
14769TIP3   OH265721   3.897   2.125   2.610  0.7116  0.3092  0.1706
14769TIP3    H165722   3.803   2.110   2.595  1.0287 -0.4784 -1.1214
14769TIP3    H265723   3.928   2.166   2.529  1.9992 -1.8840 -0.5187
14770TIP3   OH265724   3.324   1.948   3.173 -0.4941 -0.0968 -0.1171
14770TIP3    H165725   3.289   2.037   3.169 -0.9952 -0.3158 -1.0690
14770TIP3    H265726   3.255   1.894   3.133  0.8994 -0.5373 -2.0904
14771TIP3   OH265727   4.006   4.554  14.587  0.0019  0.2437 -0.1154
14771TIP3    H165728   4.069   4.557  14.514 -0.7634  0.5456 -0.7753
14771TIP3    H265729   4.022   4.635  14.635  1.6482 -0.7104  1.0563
14772TIP3   OH265730   2.583   6.562  14.937 -0.3322 -0.2186  0.0746
14772TIP3    H165731   2.561   6.530  15.024 -1.1948  3.3132  1.3157
14772TIP3    H265732   2.678   6.569  14.936 -0.3621  0.5205  1.0974
14773TIP3   OH265733   0.541   2.535  15.124 -0.1582 -0.1239  0.1512
14773TIP3    H165734   0.596   2.528  15.202 -0.9489  2.9032  1.1024
14773TIP3    H265735   0.454   2.558  15.157 -0.5932  0.9122 -1.5637
14774TIP3   OH265736   5.633   4.518   2.463 -0.5881 -0.0903 -0.5684
14774TIP3    H165737   5.667   4.556   2.544 -1.9651 -1.3768  0.6956
14774TIP3    H265738   5.635   4.589   2.399  2.4418  0.4257 -0.0268
14775TIP3   OH265739   0.666   2.093   1.152  0.7344  0.5345  0.0154
14775TIP3    H165740   0.670   2.073   1.245 -0.2486 -0.8999 -0.2192
14775TIP3    H265741   0.757   2.085   1.122  1.0801  1.1857  0.8689
14776TIP3   OH265742   3.577   3.284  11.530 -0.0050 -0.4149 -0.5920
14776TIP3    H165743   3.588   3.340  11.453  0.9609 -0.7954 -0.7456
14776TIP3    H265744   3.574   3.345  11.604  0.4928 -0.1147 -0.8096
14777TIP3   OH265745   5.526   1.393   0.372  0.5544  0.0385  0.7917
14777TIP3    H165746   5.487   1.474   0.407  1.2675 -0.4840  2.9649
14777TIP3    H265747   5.456   1.353   0.320  0.4849  2.4750 -1.1823
14778TIP3   OH265748   5.219   0.358   3.431  0.6233  0.1405  0.1766
14778TIP3    H165749   5.142   0.374   3.376  1.5377  3.2309 -0.4250
14778TIP3    H265750   5.282   0.316   3.372  1.2086  2.4529 -0.9769
14779TIP3   OH265751   2.257   2.325   4.488 -0.1083  0.4180 -0.2641
14779TIP3    H165752   2.164   2.317   4.510  0.0872  1.8058  1.3129
14779TIP3    H265753   2.300   2.262   4.546 -0.0921 -0.9395 -1.6800
14780TIP3   OH265754   1.576   2.728   3.678  0.4005  0.5886 -0.4098
14780TIP3    H165755   1.526   2.807   3.699  1.0175  1.3127 -1.5358
14780TIP3    H265756   1.519   2.656   3.706 -0.8267  1.3943 -0.7160
14781TIP3   OH265757   4.277   3.542   5.993 -0.0651 -0.0322  0.5668
14781TIP3    H165758   4.345   3.570   5.932 -0.0739 -0.2646  0.4502
14781TIP3    H265759   4.301   3.453   6.017 -1.7776 -1.1538 -1.5827
14782TIP3   OH265760   1.004   4.052  14.274 -0.2321  0.0479 -0.0525
14782TIP3    H165761   0.961   3.971  14.248  1.4995 -0.6825 -0.7348
14782TIP3    H265762   0.980   4.063  14.366 -3.4022  0.7169 -0.8286
14783TIP3   OH265763   4.725   5.751   5.122  0.3180 -0.5108 -0.4983
14783TIP3    H165764   4.738   5.838   5.158 -0.0783  0.8241 -3.2817
14783TIP3    H265765   4.813   5.713   5.119  0.3242 -0.8358  2.0189
14784TIP3   OH265766   3.133   1.968   2.817 -0.3917  0.2837 -0.1612
14784TIP3    H165767   3.140   1.901   2.885  0.5958  0.6612  0.1231
14784TIP3    H265768   3.040   1.992   2.817 -0.8080 -1.2395 -0.4438
14785TIP3   OH265769   7.140   4.026   2.427 -0.0884 -0.4185 -0.0976
14785TIP3    H165770   7.214   4.001   2.371  0.3046 -0.2506  0.3410
14785TIP3    H265771   7.071   4.051   2.366 -0.7699 -3.2451 -0.6071
14786TIP3   OH265772   0.337   4.649   1.543  0.5436  0.0903 -0.5310
14786TIP3    H165773   0.377   4.726   1.583  0.7603  0.0235 -0.6185
14786TIP3    H265774   0.326   4.672   1.451 -0.9931  0.6707 -0.2315
14787TIP3   OH265775   4.552   0.499  12.170 -0.0216 -0.0109 -0.0444
14787TIP3    H165776   4.601   0.508  12.089 -0.2523 -0.1344 -0.1987
14787TIP3    H265777   4.613   0.455  12.230  0.2949  0.4624 -0.0135
14788TIP3   OH265778   2.093   1.174  10.123  0.2574 -0.4679 -0.0416
14788TIP3    H165779   2.158   1.241  10.101 -0.6625  0.8496  1.1114
14788TIP3    H265780   2.070   1.134  10.039  0.4861  0.9679 -0.8169
14789TIP3   OH265781   5.104   1.970  13.275 -0.2839 -0.1573 -0.2158
14789TIP3    H165782   5.019   1.951  13.316  0.6762  0.6366  2.3853
14789TIP3    H265783   5.096   2.060  13.244 -0.2779  0.0586  0.3947
14790TIP3   OH265784   2.140   2.769  14.861 -0.5327  0.5256 -0.0212
14790TIP3    H165785   2.235   2.760  14.851 -0.4327  2.2733 -1.2196
14790TIP3    H265786   2.123   2.745  14.952  1.0216 -0.0124  0.1685
14791TIP3   OH265787   0.090   4.553   0.657  0.3000  0.0864 -0.1118
14791TIP3    H165788   0.136   4.539   0.740 -0.0270 -0.4995 -0.0230
14791TIP3    H265789   0.119   4.639   0.628  3.0293 -1.0533 -1.0613
14792TIP3   OH265790   2.075   0.644  14.054  0.7743 -0.0481  0.2145
14792TIP3    H165791   2.004   0.587  14.085  1.4130 -0.7603  0.4081
14792TIP3    H265792   2.152   0.615  14.103  1.1414  0.9176  0.2268
14793TIP3   OH265793   2.179   4.321  13.843 -0.2319 -0.3540  0.7585
14793TIP3    H165794   2.207   4.278  13.924 -0.5255  0.4945  1.3209
14793TIP3    H265795   2.156   4.410  13.869  1.6904  0.6230 -0.5903
14794TIP3   OH265796   0.948   3.699   2.403 -0.0181  0.2835 -0.5274
14794TIP3    H165797   0.876   3.682   2.463  1.5252  1.5966  1.8446
14794TIP3    H265798   0.919   3.662   2.320 -2.0157 -2.1854  1.1259
14795TIP3   OH265799   7.042   1.072  14.262 -0.2356 -0.2782  0.3870
14795TIP3    H165800   7.120   1.073  14.318  0.0319 -1.1052  0.0486
14795TIP3    H265801   7.075   1.098  14.176 -0.5746  0.6085  0.5093
14796TIP3   OH265802   4.376   1.730   2.025 -0.3705 -0.1794 -0.3128
14796TIP3    H165803   4.444   1.766   1.969  0.5296 -0.0905  0.8035
14796TIP3    H265804   4.295   1.772   1.995  0.2394  0.6333 -0.8611
14797TIP3   OH265805   1.706   5.337  15.158  0.6066  0.4224  0.5986
14797TIP3    H165806   1.712   5.249  15.120 -2.7325  0.0922  0.4898
14797TIP3    H265807   1.694   5.395  15.082 -0.5769  0.4657  0.7868
14798TIP3   OH265808   3.952   3.263   5.016 -0.7677 -0.2806 -0.0423
14798TIP3    H165809   3.895   3.301   5.082 -0.5739  0.1716 -0.1354
14798TIP3    H265810   3.926   3.306   4.934 -0.0208  0.2299 -0.0202
14799TIP3   OH265811   2.496   3.761   1.083 -0.3335  0.8768  0.0321
14799TIP3    H165812   2.443   3.688   1.115  0.4934  0.1823 -0.1651
14799TIP3    H265813   2.578   3.721   1.054  0.7842  2.0703  1.3834
14800TIP3   OH265814   5.389   2.882   1.879  0.1438 -0.5519 -0.6387
14800TIP3    H165815   5.318   2.944   1.861  0.0191 -0.7481 -0.8246
14800TIP3    H265816   5.468   2.936   1.884 -0.0274 -0.3233 -0.3621
14801TIP3   OH265817   0.144   3.048   0.335  0.7461  0.1847  0.1523
14801TIP3    H165818   0.205   3.029   0.406  0.6036 -0.3757  0.1356
14801TIP3    H265819   0.080   2.976   0.339  2.5620 -1.8126 -2.6123
14802TIP3   OH265820   5.110   5.856  15.352  0.5496  0.7150 -0.1487
14802TIP3    H165821   5.185   5.892  15.399  1.0384 -1.0692  0.5118
14802TIP3    H265822   5.118   5.761  15.363 -1.6404  0.4614 -0.3086
14803TIP3   OH265823   3.177   6.636   2.558  0.5708  0.3431 -0.4976
14803TIP3    H165824   3.155   6.593   2.641  0.5948 -1.5420 -1.4182
14803TIP3    H265825   3.255   6.688   2.578  0.6620 -0.1886  0.6216
14804TIP3   OH265826   3.155   6.331   1.221 -0.5467 -0.6476 -0.1374
14804TIP3    H165827   3.172   6.244   1.185  0.0415 -0.3364 -0.6376
14804TIP3    H265828   3.136   6.316   1.314 -1.8217 -1.4421 -0.4978
14805TIP3   OH265829   7.068   4.295   3.322 -0.1350 -0.2756  0.0642
14805TIP3    H165830   6.998   4.235   3.294 -0.4309  0.4703 -0.8518
14805TIP3    H265831   7.148   4.256   3.288 -0.2910 -0.3247 -0.2567
14806TIP3   OH265832   4.214   0.320  14.953  0.2863 -0.2132 -0.5681
14806TIP3    H165833   4.190   0.411  14.971 -0.3772 -0.3128 -0.9148
14806TIP3    H265834   4.230   0.282  15.039 -0.7823 -0.1250 -0.3114
14807TIP3   OH265835   1.440   5.800   0.266  0.3867  0.2817  0.7584
14807TIP3    H165836   1.475   5.727   0.215  0.4315  0.7731  0.0582
14807TIP3    H265837   1.359   5.767   0.303  0.5385 -0.2051  0.6626
14808TIP3   OH265838   6.654   6.524  12.740 -0.4200 -0.5620 -0.1184
14808TIP3    H165839   6.711   6.518  12.663  0.4101  3.0832  0.0293
14808TIP3    H265840   6.573   6.563  12.707 -0.1702  0.7485  0.7329
14809TIP3   OH265841   2.873   0.192   0.204  0.1251  0.1194  0.0480
14809TIP3    H165842   2.871   0.113   0.150 -1.3198  0.2762 -0.1484
14809TIP3    H265843   2.883   0.264   0.142  2.5114  0.0792  0.2877
14810TIP3   OH265844   4.958   6.380   2.944 -0.9003  0.0293 -0.0042
14810TIP3    H165845   5.031   6.348   2.890 -0.9202 -0.6804  0.3724
14810TIP3    H265846   4.901   6.426   2.883 -0.4640  0.0178 -0.4230
14811TIP3   OH265847   0.926   3.464  14.657 -0.1840  0.0932 -0.3082
14811TIP3    H165848   0.849   3.493  14.608 -0.3371 -1.1825 -0.8546
14811TIP3    H265849   0.928   3.521  14.734 -0.9710  0.9390 -0.8959
14812TIP3   OH265850   4.439   6.340   0.816  0.0218 -0.1747  0.4966
14812TIP3    H165851   4.380   6.281   0.862 -0.9100 -0.8609 -1.4417
14812TIP3    H265852   4.522   6.293   0.812  0.4825  0.4005  2.4333
14813TIP3   OH265853   5.755   0.324   5.581  0.2335 -0.3988  0.0635
14813TIP3    H165854   5.696   0.327   5.506  0.1932  2.2336  0.1097
14813TIP3    H265855   5.698   0.328   5.658  0.3251 -2.0551  0.2480
14814TIP3   OH265856   6.658   5.081  14.571  0.6594 -0.1312 -0.4020
14814TIP3    H165857   6.564   5.061  14.571  1.0043 -2.0940 -2.1966
14814TIP3    H265858   6.675   5.116  14.484  1.8820 -1.4573 -0.7278
14815TIP3   OH265859   1.314   2.073  14.193  0.3824 -0.7990  0.1066
14815TIP3    H165860   1.319   2.087  14.099  2.8530 -1.3190  0.1072
14815TIP3    H265861   1.326   1.979  14.204  0.3013 -0.7157  0.9531
14816TIP3   OH265862   2.627   6.840   5.593  0.5909  0.0713  0.2802
14816TIP3    H165863   2.601   6.930   5.611 -2.0744 -0.8335  1.4113
14816TIP3    H265864   2.613   6.794   5.676  0.9789 -1.5807 -0.5280
14817TIP3   OH265865   3.583   5.443   2.823  0.8617  0.8098 -0.0965
14817TIP3    H165866   3.581   5.399   2.737 -0.6771  0.2439  0.1902
14817TIP3    H265867   3.579   5.536   2.802  0.6721  0.6815 -0.6531
14818TIP3   OH265868   0.118   4.772   2.072 -0.0062  0.0194 -0.1843
14818TIP3    H165869   0.140   4.688   2.030  1.3501  1.0158 -1.5745
14818TIP3    H265870   0.200   4.798   2.114 -0.0705  1.1857 -0.7577
14819TIP3   OH265871   5.317   6.546  14.822 -0.6944  0.8779 -0.3363
14819TIP3    H165872   5.302   6.615  14.887  3.7293  1.5547  0.2417
14819TIP3    H265873   5.262   6.473  14.853 -1.1809  2.2199  2.3286
14820TIP3   OH265874   5.006   2.069  14.901 -0.3974  0.4800  0.1384
14820TIP3    H165875   5.027   2.082  14.994  0.1781 -1.2574  0.2958
14820TIP3    H265876   4.963   2.150  14.875  0.9839  1.7257  1.4584
14821TIP3   OH265877   1.658   6.001   0.969  0.1294 -0.5538 -0.4322
14821TIP3    H165878   1.635   6.088   1.002  2.0461 -0.9805  2.3751
14821TIP3    H265879   1.622   5.940   1.034  2.5926 -1.5504  0.1076
14822TIP3   OH265880   6.094   2.113  14.786  0.0183  0.7304 -0.5370
14822TIP3    H165881   6.042   2.047  14.830  0.8313  1.5133  1.7099
14822TIP3    H265882   6.156   2.063  14.732  1.3860 -0.4536  1.9862
14823TIP3   OH265883   6.056   1.765   2.235  0.1193 -0.4214 -0.5870
14823TIP3    H165884   6.127   1.705   2.210  0.1169 -0.5247 -0.3496
14823TIP3    H265885   6.068   1.779   2.329  0.0342 -0.1601 -0.6142
14824TIP3   OH265886   3.843   3.763  12.661 -0.1502  0.4414 -0.2515
14824TIP3    H165887   3.892   3.829  12.709  0.9624  0.1286 -0.9072
14824TIP3    H265888   3.754   3.797  12.656 -0.1578  0.7746  1.4439
14825TIP3   OH265889   1.382   2.985   4.659  0.7965 -0.1037  0.0282
14825TIP3    H165890   1.385   2.891   4.645 -0.9478 -0.3405  1.0084
14825TIP3    H265891   1.289   3.006   4.666  1.1228  1.7624 -0.5692
14826TIP3   OH265892   6.900   4.111  13.676 -1.0354  0.5803  0.4030
14826TIP3    H165893   6.921   4.025  13.638 -1.8302  1.1870 -1.5138
14826TIP3    H265894   6.805   4.108  13.689 -0.7549  0.2426  2.8608
14827TIP3   OH265895   5.607   5.256  11.898 -0.5654 -0.4788 -0.5669
14827TIP3    H165896   5.656   5.191  11.848  1.0516 -0.2247  0.6008
14827TIP3    H265897   5.577   5.319  11.833  1.0539 -0.4137 -1.2860
14828TIP3   OH265898   1.440   6.827   0.070  0.2580  0.2847  0.0420
14828TIP3    H165899   1.385   6.858  -0.002  0.0196  0.0550  0.1209
14828TIP3    H265900   1.485   6.905   0.102 -0.4619  0.5852  0.3530
14829TIP3   OH265901   2.764   5.632  15.349  0.3413  0.0880 -0.1617
14829TIP3    H165902   2.688   5.590  15.389 -1.4663  4.4475  1.5905
14829TIP3    H265903   2.835   5.619  15.412  0.2569 -1.3271 -0.3175
14830TIP3   OH265904   1.772   5.231   4.638  0.5016  0.2542 -0.2556
14830TIP3    H165905   1.685   5.265   4.660  0.2069 -0.5431 -0.1690
14830TIP3    H265906   1.776   5.238   4.543  1.0367  1.9225 -0.1465
14831TIP3   OH265907   0.154   5.008   4.532 -0.4388 -0.2221  0.0659
14831TIP3    H165908   0.194   5.089   4.561 -0.5676 -0.4107  0.7726
14831TIP3    H265909   0.183   4.942   4.595 -0.7151 -0.6383 -0.2312
14832TIP3   OH265910   6.917   2.009  14.539 -0.2318  0.0370 -0.1853
14832TIP3    H165911   6.856   2.025  14.467 -0.6820  1.2699  0.4539
14832TIP3    H265912   6.978   2.083  14.537  0.6666 -0.6700 -0.1944
14833TIP3   OH265913   4.260   6.623   0.890  0.1305  0.5798 -0.1411
14833TIP3    H165914   4.169   6.644   0.870  0.2667 -0.6405 -2.3014
14833TIP3    H265915   4.285   6.559   0.824  1.5550 -1.7586  2.4708
14834TIP3   OH265916   1.831   2.321   4.267  0.1108  0.3687  0.2651
14834TIP3    H165917   1.765   2.266   4.309  0.7280  0.1591  0.9978
14834TIP3    H265918   1.795   2.342   4.181  0.3380 -2.1308 -0.5195
14835TIP3   OH265919   4.042   5.554  11.412  0.2754  0.3578  0.1631
14835TIP3    H165920   4.122   5.579  11.458  0.2277 -0.7687  0.8841
14835TIP3    H265921   4.061   5.572  11.320  0.8886  1.2864  0.4592
14836TIP3   OH265922   6.620   1.576   1.171  0.2083 -0.1593  0.4464
14836TIP3    H165923   6.672   1.597   1.093  0.0260  0.4324  0.4752
14836TIP3    H265924   6.580   1.660   1.196 -0.1147 -0.4427  0.8956
14837TIP3   OH265925   7.014   0.830  11.072  0.2039 -0.0083 -0.5742
14837TIP3    H165926   6.972   0.896  11.017  1.3499 -0.7320 -2.4148
14837TIP3    H265927   6.999   0.748  11.027  1.1472 -0.6502  0.2305
14838TIP3   OH265928   5.962   4.726  13.935  0.6435  0.1985  0.1997
14838TIP3    H165929   6.006   4.802  13.975 -0.9430  0.7357  1.0081
14838TIP3    H265930   5.931   4.759  13.850  0.0759  0.4301  0.4914
14839TIP3   OH265931   3.311   5.879   0.107  0.7314 -1.0026 -0.0917
14839TIP3    H165932   3.256   5.839   0.174 -1.3886  0.3066 -0.9545
14839TIP3    H265933   3.322   5.970   0.137 -0.3516 -0.3654 -1.4996
14840TIP3   OH265934   5.795   6.489  15.047  0.0229  0.3442 -0.1702
14840TIP3    H165935   5.805   6.485  15.142  0.6932  0.5768 -0.2209
14840TIP3    H265936   5.730   6.557  15.032  1.6345  1.9865  0.0487
14841TIP3   OH265937   2.950   4.350  13.935 -0.3270  1.1495  0.4095
14841TIP3    H165938   2.856   4.334  13.943 -0.0039 -1.1496  0.4824
14841TIP3    H265939   2.983   4.338  14.024  0.1294  1.0380  0.2268
14842TIP3   OH265940   3.879   3.369  12.273 -0.0595 -0.2994  0.1125
14842TIP3    H165941   3.825   3.439  12.308 -0.2521 -0.2457 -0.2901
14842TIP3    H265942   3.920   3.329  12.350  0.8629  0.9088  0.2745
14843TIP3   OH265943   3.780   0.040  14.408 -0.5033  0.6915 -0.1779
14843TIP3    H165944   3.726   0.082  14.341 -1.0817  0.8502  0.3768
14843TIP3    H265945   3.870   0.060  14.381 -0.7513  2.1154 -0.0619
14844TIP3   OH265946   1.382   1.532   4.060 -0.6709 -0.8081  0.6877
14844TIP3    H165947   1.424   1.618   4.064 -0.5804 -0.8604  0.9037
14844TIP3    H265948   1.410   1.489   4.141  0.0279 -1.3955  0.1409
14845TIP3   OH265949   2.181   1.873   3.455 -0.6124  0.0565  0.0880
14845TIP3    H165950   2.164   1.938   3.523 -1.4520  0.4373 -0.4663
14845TIP3    H265951   2.237   1.918   3.392 -0.1296 -0.1805  0.3432
14846TIP3   OH265952   1.350   6.087   3.050  0.7877 -0.0786 -0.3796
14846TIP3    H165953   1.285   6.018   3.067 -0.1972  0.8866 -0.1065
14846TIP3    H265954   1.423   6.067   3.109 -0.3488  0.2396  1.1969
14847TIP3   OH265955   3.069   4.026  14.044 -0.0138  0.2022 -0.4525
14847TIP3    H165956   3.117   4.050  14.124  3.5227 -1.2403 -1.9342
14847TIP3    H265957   3.113   4.075  13.974 -1.2588 -0.6124 -1.8681
14848TIP3   OH265958   1.729   4.429  15.157 -1.0131 -0.2759 -0.4383
14848TIP3    H165959   1.709   4.509  15.206  0.8938  1.2465 -1.9680
14848TIP3    H265960   1.823   4.431  15.144 -0.8726 -2.9147 -0.4089
14849TIP3   OH265961   5.545   5.988  14.528  0.6879  0.1271 -0.0187
14849TIP3    H165962   5.636   5.990  14.499  1.0945 -1.1538  1.0459
14849TIP3    H265963   5.542   6.050  14.602  0.5683  0.5224 -0.3501
14850TIP3   OH265964   3.112   0.419   1.157 -0.3810  0.3842  0.0914
14850TIP3    H165965   3.129   0.498   1.105 -3.5189  1.4934  0.5272
14850TIP3    H265966   3.103   0.349   1.092 -0.9153  1.0799 -0.6016
14851TIP3   OH265967   4.133   3.682   2.136  0.2973  0.3725  0.0398
14851TIP3    H165968   4.140   3.588   2.154  0.1548  0.5546  1.0797
14851TIP3    H265969   4.221   3.716   2.155 -0.4044  0.9155  2.5887
14852TIP3   OH265970   5.514   0.090   5.626  0.3892 -0.0661  0.1239
14852TIP3    H165971   5.477   0.034   5.558  0.0652 -0.0493  0.2829
14852TIP3    H265972   5.542   0.030   5.695 -0.7315  0.0049  0.6676
14853TIP3   OH265973   6.786   5.387  14.508 -0.4011 -0.0732  0.5002
14853TIP3    H165974   6.737   5.434  14.576 -1.3276 -0.3811  0.0671
14853TIP3    H265975   6.842   5.326  14.556 -0.7876 -0.0389  1.0051
14854TIP3   OH265976   0.968   4.349   1.661 -0.4931 -0.1120 -0.1015
14854TIP3    H165977   0.916   4.411   1.711 -0.1944 -0.1034  0.2029
14854TIP3    H265978   1.055   4.389   1.657 -0.2690 -0.5670  0.1960
14855TIP3   OH265979   4.019   2.995   4.446 -0.4641 -0.2743 -0.1133
14855TIP3    H165980   3.989   2.920   4.498 -0.3720  1.0803  1.9882
14855TIP3    H265981   3.972   3.070   4.482  0.1626  0.8515 -1.5321
14856TIP3   OH265982   0.839   5.541  13.959  0.6549  0.1181 -0.1905
14856TIP3    H165983   0.919   5.568  13.914  0.8938 -0.3381 -0.0464
14856TIP3    H265984   0.868   5.476  14.023  0.2449  0.3578  0.2496
14857TIP3   OH265985   5.366   4.472   1.012 -0.0707  0.0735 -0.5602
14857TIP3    H165986   5.372   4.474   0.916 -1.6998 -0.6897 -0.7144
14857TIP3    H265987   5.456   4.484   1.042  0.6110 -0.5953 -2.2090
14858TIP3   OH265988   0.600   2.956   4.054 -0.0284  1.0088  0.0113
14858TIP3    H165989   0.606   3.052   4.047 -2.5790  1.1941 -0.7427
14858TIP3    H265990   0.581   2.927   3.965 -0.7458 -0.0278  0.4839
14859TIP3   OH265991   5.850   3.531   4.606 -0.4070  0.7029  0.0148
14859TIP3    H165992   5.838   3.616   4.562 -0.5204  0.3051 -0.7363
14859TIP3    H265993   5.763   3.508   4.638 -0.1163  1.5708  1.5762
14860TIP3   OH265994   6.927   4.403   3.578 -0.7271  0.3630 -0.4809
14860TIP3    H165995   7.005   4.425   3.628 -0.7689  0.0039 -0.2512
14860TIP3    H265996   6.959   4.385   3.490 -0.6666  1.1039 -0.6141
14861TIP3   OH265997   6.033   5.342   2.542  0.4840  0.1496  0.2276
14861TIP3    H165998   5.945   5.336   2.505  1.0107  0.5436 -1.1456
14861TIP3    H265999   6.089   5.362   2.468  1.6288  0.7573  1.2223
14862TIP3   OH266000   4.714   6.208  12.976  0.4578 -0.0144  0.0092
14862TIP3    H166001   4.620   6.198  12.965 -0.1117  2.2069  2.2097
14862TIP3    H266002   4.740   6.273  12.911  0.4376 -0.3532 -0.3434
14863TIP3   OH266003   3.743   4.545  12.412 -0.4744 -0.0509 -0.1005
14863TIP3    H166004   3.678   4.515  12.476  0.6286 -1.1701  0.5321
14863TIP3    H266005   3.825   4.547  12.461  0.0340  1.1214 -0.9504
14864TIP3   OH266006   6.021   3.109   2.087  0.1546  0.1069 -0.2680
14864TIP3    H166007   5.998   3.186   2.034  0.8297  0.8937  0.5566
14864TIP3    H266008   6.091   3.139   2.144 -0.7111 -0.6364  1.2630
14865TIP3   OH266009   5.038   0.764  15.336 -0.5212 -0.5113 -0.1765
14865TIP3    H166010   4.971   0.831  15.349 -0.5440 -0.8429  1.7951
14865TIP3    H266011   5.114   0.796  15.385 -1.0612 -2.5994  2.2130
14866TIP3   OH266012   3.772   4.331  13.576  0.1199  0.2020 -0.0471
14866TIP3    H166013   3.680   4.317  13.556  0.3145 -1.0297 -0.1831
14866TIP3    H266014   3.794   4.415  13.537 -0.9625  0.5450  0.0642
14867TIP3   OH266015   6.998   4.497   0.707  0.3275  0.1354 -0.0818
14867TIP3    H166016   7.093   4.481   0.705  0.2988 -0.0077 -1.2139
14867TIP3    H266017   6.960   4.420   0.664 -0.3172  0.1009  0.5466
14868TIP3   OH266018   1.310   3.639   3.994  0.8329  0.1392 -0.0445
14868TIP3    H166019   1.276   3.594   4.071 -1.6851  0.8307 -0.6489
14868TIP3    H266020   1.326   3.570   3.930  1.3000 -0.2690  0.5008
14869TIP3   OH266021   1.644   4.572   2.453  0.2336  0.5239 -0.2118
14869TIP3    H166022   1.709   4.504   2.439 -0.2093  0.2358 -0.9000
14869TIP3    H266023   1.569   4.545   2.401  0.8690  2.7004 -2.4871
14870TIP3   OH266024   4.837   6.584   2.180 -0.2615 -0.2838 -0.5023
14870TIP3    H166025   4.812   6.512   2.238 -1.0732 -1.0739 -1.7841
14870TIP3    H266026   4.886   6.644   2.236  0.5929 -1.9086  0.5755
14871TIP3   OH266027   2.942   6.069   0.055  0.1140  0.0573 -0.6405
14871TIP3    H166028   2.967   6.156   0.024  1.4467  0.3708  1.1348
14871TIP3    H266029   2.920   6.020  -0.024  3.5490  0.6798 -2.1662
14872TIP3   OH266030   5.487   3.576  14.860  0.5775 -0.0761 -0.6937
14872TIP3    H166031   5.538   3.529  14.794 -0.2959 -1.7743 -0.2222
14872TIP3    H266032   5.421   3.624  14.811  0.5731 -0.5098 -1.1135
14873TIP3   OH266033   1.254   5.411  15.287  0.7333 -0.2237 -0.5350
14873TIP3    H166034   1.259   5.414  15.191  0.3257 -2.6434 -0.7060
14873TIP3    H266035   1.329   5.358  15.313  0.3295 -0.3484  0.4019
14874TIP3   OH266036   7.145   0.127   0.988  0.2349  0.2773 -0.0122
14874TIP3    H166037   7.117   0.180   1.062 -1.0532  1.4934 -1.2890
14874TIP3    H266038   7.103   0.042   1.001  2.7676 -0.7356  2.3492
14875TIP3   OH266039   0.425   5.881  11.344 -0.6937  0.0993 -0.2994
14875TIP3    H166040   0.346   5.844  11.305 -0.5264 -1.0374  0.4023
14875TIP3    H266041   0.393   5.938  11.414 -0.8917 -1.4578  0.9272
14876TIP3   OH266042   2.915   2.600   3.492  0.0157  0.1560  0.5461
14876TIP3    H166043   2.941   2.516   3.456 -1.4049 -0.2034  0.2773
14876TIP3    H266044   2.942   2.664   3.427 -0.6109 -0.2874 -0.1674
14877TIP3   OH266045   0.207   5.465  10.212 -0.4397 -0.0219 -0.1982
14877TIP3    H166046   0.261   5.480  10.135  2.0933  0.8384  1.6019
14877TIP3    H266047   0.248   5.390  10.256 -1.9499 -0.6245  0.2528
14878TIP3   OH266048   3.990   5.803   2.075  0.3943  0.0343  0.8189
14878TIP3    H166049   3.916   5.864   2.069 -0.2901 -0.9047 -1.3586
14878TIP3    H266050   4.067   5.858   2.064 -0.2465  0.5179 -1.9505
14879TIP3   OH266051   0.857   1.483   4.624 -0.1531  0.0781 -0.4650
14879TIP3    H166052   0.788   1.550   4.629 -0.5525 -0.4322  2.2870
14879TIP3    H266053   0.924   1.513   4.686 -1.1870 -2.8776  2.3160
14880TIP3   OH266054   2.615   7.115   1.537 -0.2913  0.0674  0.0648
14880TIP3    H166055   2.688   7.077   1.488 -0.6473 -1.3369  0.5623
14880TIP3    H266056   2.654   7.145   1.619  0.2125  1.9611 -0.8030
14881TIP3   OH266057   2.449   5.304   0.118  0.0132 -0.8444 -0.7606
14881TIP3    H166058   2.387   5.308   0.191  0.1308  1.1681 -0.7163
14881TIP3    H266059   2.535   5.316   0.158  0.3735 -2.4995 -0.9551
14882TIP3   OH266060   1.647   4.516  13.428  0.4432  0.4886 -0.0337
14882TIP3    H166061   1.584   4.448  13.400 -0.9211  0.9049  1.8637
14882TIP3    H266062   1.732   4.474  13.419 -0.2333 -0.8275 -0.6840
14883TIP3   OH266063   1.593   4.238   0.115  0.7679 -0.1080 -0.2007
14883TIP3    H166064   1.660   4.279   0.170  0.9798  1.7994 -1.7741
14883TIP3    H266065   1.638   4.165   0.074  0.9338 -0.8286  1.1799
14884TIP3   OH266066   4.294   6.131  14.231  0.0104  0.3239  0.1331
14884TIP3    H166067   4.224   6.162  14.173 -0.4116 -0.5584  0.1516
14884TIP3    H266068   4.274   6.170  14.316  0.2758  1.1117 -0.1582
14885TIP3   OH266069   2.975   4.291  14.200  0.4330 -0.1175 -0.6794
14885TIP3    H166070   2.936   4.322  14.282  0.2854 -2.5805  0.2652
14885TIP3    H266071   3.061   4.259  14.225  0.4649 -0.7321 -1.5320
14886TIP3   OH266072   1.188   4.539   0.968 -0.2434 -0.3069  0.0513
14886TIP3    H166073   1.177   4.628   1.000 -0.0408  1.0444 -3.3030
14886TIP3    H266074   1.221   4.490   1.044 -2.7294  1.8026  2.6843
14887TIP3   OH266075   3.890   0.663   5.059  0.2784  0.0750  0.3923
14887TIP3    H166076   3.938   0.722   5.117 -0.5937 -0.5404  1.7994
14887TIP3    H266077   3.956   0.602   5.026  0.9990  1.1872 -0.2463
14888TIP3   OH266078   6.528   5.989   3.314 -0.3666  0.0958  0.0977
14888TIP3    H166079   6.580   5.909   3.324 -0.5539 -0.0955 -0.4218
14888TIP3    H266080   6.567   6.032   3.238  0.2765  0.9252  0.8800
14889TIP3   OH266081   3.399   1.658   0.890 -0.1296 -0.1930 -0.2487
14889TIP3    H166082   3.336   1.650   0.961  0.6870  1.7171  0.7832
14889TIP3    H266083   3.349   1.640   0.811 -1.2037 -1.7732  0.7307
14890TIP3   OH266084   5.138   5.850   2.204  0.2410 -0.2606 -0.2479
14890TIP3    H166085   5.049   5.885   2.209  1.3223  2.6521  1.0645
14890TIP3    H266086   5.129   5.758   2.228 -2.2016  0.4119  1.9651
14891TIP3   OH266087   4.397   3.784   2.233  0.4384  0.7393  0.3617
14891TIP3    H166088   4.461   3.825   2.175 -0.0785  0.5466 -0.3548
14891TIP3    H266089   4.396   3.692   2.207 -0.5044  0.8349  0.0067
14892TIP3   OH266090   2.783   6.260   5.057  0.2302  0.1276 -0.0643
14892TIP3    H166091   2.761   6.352   5.041  0.2215 -0.0768 -1.3963
14892TIP3    H266092   2.770   6.218   4.972  1.4399 -0.8613  0.2150
14893TIP3   OH266093   2.055   4.950   2.896 -0.0292  1.0494 -0.7323
14893TIP3    H166094   2.004   5.030   2.910 -2.1528 -0.5576  1.6067
14893TIP3    H266095   2.057   4.907   2.982 -1.0104 -2.5040 -2.2834
14894TIP3   OH266096   4.183   1.848   0.160 -0.2501 -0.0601  0.0295
14894TIP3    H166097   4.252   1.783   0.150 -1.0352 -1.2132  1.6756
14894TIP3    H266098   4.118   1.825   0.094  0.3465  0.2783 -0.6975
14895TIP3   OH266099   2.232   0.973  13.703  0.5912 -0.1081  0.3350
14895TIP3    H166100   2.252   0.901  13.763  0.9683 -0.0044  0.3405
14895TIP3    H266101   2.241   1.052  13.757  1.0817 -0.0057  0.1092
14896TIP3   OH266102   6.627   0.460  12.785 -0.2215 -0.1129 -0.1465
14896TIP3    H166103   6.680   0.454  12.865 -1.1660 -0.3244  0.4831
14896TIP3    H266104   6.624   0.554  12.766 -2.2101  0.2912  1.6621
14897TIP3   OH266105   3.415   6.108   3.423  0.3208 -0.4577 -0.6056
14897TIP3    H166106   3.404   6.067   3.337 -0.4838 -1.4109 -0.0709
14897TIP3    H266107   3.510   6.123   3.430  0.4049 -0.4561 -1.6161
14898TIP3   OH266108   2.132   1.237   5.179 -0.0436 -0.3242 -0.2978
14898TIP3    H166109   2.109   1.294   5.252  1.6327  0.4346 -0.3144
14898TIP3    H266110   2.116   1.148   5.213 -1.9133  0.0824 -0.0040
14899TIP3   OH266111   5.855   4.090   5.020 -0.2877 -0.2491  0.2283
14899TIP3    H166112   5.764   4.085   4.989 -0.0408  0.4370 -0.6625
14899TIP3    H266113   5.908   4.072   4.943  0.3532  1.8590  0.0972
14900TIP3   OH266114   4.413   6.439   3.630  0.0748 -0.1883  0.3643
14900TIP3    H166115   4.455   6.400   3.554  1.0966 -0.4625  1.0542
14900TIP3    H266116   4.321   6.413   3.622  0.2217 -0.4269 -0.6309
14901TIP3   OH266117   0.662   4.463   4.053 -0.3838 -0.3058 -0.0646
14901TIP3    H166118   0.695   4.546   4.089 -0.7323  0.2382 -0.9600
14901TIP3    H266119   0.624   4.487   3.969 -3.2558 -0.8578  0.9492
14902TIP3   OH266120   5.085   4.248  13.860  0.1752 -0.1655  0.2318
14902TIP3    H166121   5.025   4.211  13.924  1.1062 -1.7009  0.2621
14902TIP3    H266122   5.147   4.178  13.842  0.9584  0.8157 -1.0616
14903TIP3   OH266123   2.832   6.161   5.698  0.0511 -0.4532  0.1109
14903TIP3    H166124   2.792   6.204   5.621  0.2669 -0.5661 -0.0660
14903TIP3    H266125   2.861   6.234   5.753 -1.4937 -0.3436  0.8414
14904TIP3   OH266126   2.412   3.993   1.977  0.0460  0.4366  0.4096
14904TIP3    H166127   2.400   4.064   1.914  1.7048 -0.2285 -0.7413
14904TIP3    H266128   2.507   3.979   1.979 -0.2649 -2.3098 -0.0730
14905TIP3   OH266129   1.478   6.345   0.277  0.0950 -0.6431  0.0593
14905TIP3    H166130   1.570   6.369   0.290 -0.4177  1.8570 -0.4716
14905TIP3    H266131   1.432   6.429   0.269 -2.3345 -1.8188  0.8581
14906TIP3   OH266132   4.967   5.066  13.440  0.1404 -0.6514 -0.3963
14906TIP3    H166133   5.003   5.099  13.357  1.7320 -0.1908  0.4346
14906TIP3    H266134   4.922   5.142  13.477  0.6504 -0.4461 -0.1888
14907TIP3   OH266135   2.540   3.380   0.336  0.2991  0.0773  0.9580
14907TIP3    H166136   2.549   3.422   0.250  0.2682  1.3270  1.5443
14907TIP3    H266137   2.460   3.327   0.329 -0.1387  0.7906  0.4605
14908TIP3   OH266138   5.167   2.288   3.818 -0.1189  0.7410 -0.0581
14908TIP3    H166139   5.244   2.232   3.805  0.3169  1.2455  0.3084
14908TIP3    H266140   5.175   2.354   3.748 -0.9770 -0.0166 -0.8943
14909TIP3   OH266141   1.822   3.150   4.654 -0.0816  0.0763  0.2921
14909TIP3    H166142   1.770   3.227   4.679 -0.8698  0.6402 -2.7018
14909TIP3    H266143   1.900   3.186   4.612  0.1606 -0.7402  0.0159
14910TIP3   OH266144   4.789   4.957  13.908  0.2834 -0.1496 -0.7639
14910TIP3    H166145   4.819   4.902  13.835  4.3595 -1.0067  1.2305
14910TIP3    H266146   4.795   5.046  13.875  0.4182 -0.5908 -1.9958
14911TIP3   OH266147   5.755   1.313  13.687  0.5016 -0.2885  0.2915
14911TIP3    H166148   5.728   1.227  13.718  0.1228 -1.1173 -2.0828
14911TIP3    H266149   5.848   1.319  13.709  1.2153 -2.4827 -1.7428
14912TIP3   OH266150   2.610   5.972   5.742  0.2061  0.2886 -0.0786
14912TIP3    H166151   2.695   6.012   5.760 -0.1366  1.7261 -1.4306
14912TIP3    H266152   2.568   6.032   5.681 -1.0784 -1.2956 -0.8233
14913TIP3   OH266153   7.077   4.307  14.362  0.1898  0.2155 -0.1412
14913TIP3    H166154   7.000   4.271  14.407  0.4589  0.0610  0.1941
14913TIP3    H266155   7.046   4.390  14.325 -0.5643 -0.5344 -1.2778
14914TIP3   OH266156   5.152   0.009  13.892 -0.0608 -0.3436  0.1759
14914TIP3    H166157   5.229   0.064  13.880 -1.5994  2.2733  1.3921
14914TIP3    H266158   5.078   0.065  13.869 -1.6460 -3.3648 -3.0168
14915TIP3   OH266159   6.336   1.887   5.094 -0.1643  0.2049  0.0691
14915TIP3    H166160   6.260   1.830   5.096  0.0147 -0.0864 -0.8713
14915TIP3    H266161   6.378   1.869   5.009  1.6748 -0.5709  1.0856
14916TIP3   OH266162   4.574   6.093  11.164  0.2991  0.1070 -0.1578
14916TIP3    H166163   4.659   6.077  11.121  0.8015 -3.1835  1.7717
14916TIP3    H266164   4.526   6.011  11.154 -1.7031  1.0804  0.9344
14917TIP3   OH266165   2.721   2.686   5.924  0.0864 -0.0515 -0.6218
14917TIP3    H166166   2.786   2.749   5.895 -1.1540  1.9264  0.6584
14917TIP3    H266167   2.637   2.729   5.908 -0.8065 -1.2654  0.5266
14918TIP3   OH266168   5.580   6.837  12.001  0.5980 -0.3268 -0.3264
14918TIP3    H166169   5.593   6.932  12.007 -0.2638 -0.2465  0.4235
14918TIP3    H266170   5.668   6.800  12.008  0.9098  0.3999 -0.2996
14919TIP3   OH266171   3.370   0.468   2.797  0.2548 -0.6293 -0.2266
14919TIP3    H166172   3.391   0.531   2.866 -1.6119  0.7939 -0.8613
14919TIP3    H266173   3.300   0.510   2.747 -0.1651 -2.6818 -1.4857
14920TIP3   OH266174   1.199   0.985   3.128 -0.4550 -0.1644  0.5834
14920TIP3    H166175   1.189   1.066   3.078 -1.9731 -0.1632  0.8348
14920TIP3    H266176   1.146   0.999   3.206  0.3386 -0.9061  1.2769
14921TIP3   OH266177   5.059   0.588   4.881  0.2277  0.0920 -0.5838
14921TIP3    H166178   4.967   0.611   4.869 -0.3075 -1.5495  0.0506
14921TIP3    H266179   5.097   0.663   4.927 -0.6349  1.0423 -1.3894
14922TIP3   OH266180   4.540   2.474  12.041 -1.1130  0.0084 -0.2491
14922TIP3    H166181   4.508   2.563  12.029 -2.2247 -0.1497  1.3263
14922TIP3    H266182   4.570   2.470  12.132 -1.3363 -1.3060 -0.2040
14923TIP3   OH266183   2.122   1.686   1.637  0.3755 -0.3319  0.0277
14923TIP3    H166184   2.163   1.599   1.638  1.5001  0.1743 -0.3294
14923TIP3    H266185   2.050   1.678   1.575  0.9071 -0.8396 -0.5415
14924TIP3   OH266186   6.123   1.218   4.179 -0.1188 -0.0699  0.1261
14924TIP3    H166187   6.079   1.227   4.263  0.4673 -0.1758  0.4557
14924TIP3    H266188   6.209   1.181   4.201 -0.2092 -0.7390 -0.5846
14925TIP3   OH266189   0.611   1.701   1.702  0.0427  0.0213  0.2190
14925TIP3    H166190   0.586   1.623   1.751 -0.5068 -0.1418 -0.3054
14925TIP3    H266191   0.692   1.675   1.657  0.4326  0.1046  0.8683
14926TIP3   OH266192   5.764   2.282   1.718  0.0819 -0.3102  0.0796
14926TIP3    H166193   5.806   2.220   1.778 -0.4575 -1.2353 -0.4879
14926TIP3    H266194   5.837   2.322   1.670  0.4764 -0.0198  0.8816
14927TIP3   OH266195   4.068   2.113  14.360  0.2524  0.0611 -0.2371
14927TIP3    H166196   4.023   2.051  14.417  0.6519  0.9792  1.1138
14927TIP3    H266197   4.110   2.058  14.294 -1.3790 -0.9264 -0.5117
14928TIP3   OH266198   6.669   2.530  12.398 -0.1973  0.1345 -0.3410
14928TIP3    H166199   6.660   2.612  12.446  0.4765  0.0971 -0.1415
14928TIP3    H266200   6.652   2.462  12.464 -0.1429  0.1013 -0.3606
14929TIP3   OH266201   6.411   1.771   1.023 -0.1220  0.1765 -0.0325
14929TIP3    H166202   6.458   1.848   1.055 -0.1558  0.2845 -0.2412
14929TIP3    H266203   6.352   1.747   1.094  2.6863 -2.1030  1.7739
14930TIP3   OH266204   1.117   6.687  11.279  0.7735  0.5056 -0.2688
14930TIP3    H166205   1.042   6.681  11.338  0.0234 -0.8293 -1.3143
14930TIP3    H266206   1.187   6.640  11.323  0.4523  0.1921 -0.0958
14931TIP3   OH266207   3.606   0.998   2.796  0.3546  0.7758  0.1844
14931TIP3    H166208   3.585   1.024   2.886 -2.0279  0.6852 -0.2962
14931TIP3    H266209   3.605   1.079   2.746  0.0071  0.6156 -0.0663
14932TIP3   OH266210   0.047   4.912   5.198 -0.1547 -0.0426 -0.2149
14932TIP3    H166211   0.078   4.931   5.110 -1.5083 -2.9931 -1.4557
14932TIP3    H266212   0.126   4.883   5.245  0.1081 -1.4780 -1.4493
14933TIP3   OH266213   6.742   7.145  14.289  0.2360 -0.4209  0.4103
14933TIP3    H166214   6.760   7.239  14.294 -0.6551 -0.2413  0.3024
14933TIP3    H266215   6.729   7.118  14.379 -0.9147 -0.1546  0.3326
14934TIP3   OH266216   7.037   1.839  15.196 -0.4210  0.2850  0.7437
14934TIP3    H166217   7.024   1.748  15.224  0.9883 -0.1313  0.0943
14934TIP3    H266218   7.056   1.833  15.102 -0.5630  1.2754  0.6448
14935TIP3   OH266219   1.701   1.461  15.105  0.3223  0.5405  0.7787
14935TIP3    H166220   1.692   1.366  15.110 -2.1304  0.5127 -1.7113
14935TIP3    H266221   1.645   1.494  15.175 -0.0659  0.1503  0.6553
14936TIP3   OH266222   1.446   2.022  13.247  0.3320 -0.1861  0.2936
14936TIP3    H166223   1.401   1.939  13.262 -0.8408  0.2760 -0.6105
14936TIP3    H266224   1.443   2.035  13.153 -0.6244  1.4892  0.5159
14937TIP3   OH266225   3.841   2.147   5.162 -0.0668 -0.0745 -0.1945
14937TIP3    H166226   3.903   2.187   5.101 -0.4494 -0.5289 -0.8881
14937TIP3    H266227   3.893   2.083   5.211 -0.0943 -0.8391 -1.1479
14938TIP3   OH266228   5.463   5.764  10.148 -0.0127  0.6926  0.4289
14938TIP3    H166229   5.475   5.804  10.062  0.3104 -0.0894  0.1105
14938TIP3    H266230   5.549   5.770  10.189  0.7657 -2.0017 -0.6236
14939TIP3   OH266231   5.966   6.171   1.918 -0.2412  0.6420 -0.4095
14939TIP3    H166232   5.914   6.097   1.887 -0.3402  0.6396 -0.2341
14939TIP3    H266233   6.056   6.148   1.895 -0.1306 -0.0577  0.6987
14940TIP3   OH266234   6.406   0.666  12.150  0.1435  1.0527 -0.4183
14940TIP3    H166235   6.473   0.647  12.217  0.1218  1.8273 -0.1547
14940TIP3    H266236   6.452   0.721  12.086 -0.7982  3.7056  1.0225
14941TIP3   OH266237   2.073   3.768  11.400 -0.5525  0.0039 -0.0644
14941TIP3    H166238   2.045   3.681  11.371 -2.0650  0.2070  0.7362
14941TIP3    H266239   2.072   3.763  11.496 -1.9388  1.2720  0.0195
14942TIP3   OH266240   0.669   3.462   0.891  0.2560 -0.0584  0.3053
14942TIP3    H166241   0.745   3.467   0.950  0.6554  1.9106 -0.2835
14942TIP3    H266242   0.707   3.466   0.803 -0.4253 -1.4679 -0.0743
14943TIP3   OH266243   0.386   2.554  11.850 -0.5442  0.0000 -0.1903
14943TIP3    H166244   0.409   2.639  11.814 -2.5156  0.8155  0.3927
14943TIP3    H266245   0.442   2.492  11.802  1.3504  1.6240 -0.2128
14944TIP3   OH266246   1.020   0.358   9.173 -0.1342 -0.1981 -0.3341
14944TIP3    H166247   1.051   0.425   9.112 -0.0311  0.8622  0.8492
14944TIP3    H266248   1.043   0.392   9.259 -2.9903 -0.1711  0.5189
14945TIP3   OH266249   3.420   3.586   2.336  0.3446 -0.2249 -0.4633
14945TIP3    H166250   3.363   3.662   2.330  1.3820  0.6009 -0.2870
14945TIP3    H266251   3.403   3.549   2.423 -2.7432 -2.3748 -1.8316
14946TIP3   OH266252   3.344   3.003  14.518 -0.2884  0.6753  0.5668
14946TIP3    H166253   3.353   2.982  14.425  0.1785  2.0418  0.2793
14946TIP3    H266254   3.254   3.036  14.527  0.0826  1.8151  0.3057
14947TIP3   OH266255   5.791   2.155   3.296 -0.3207 -0.3766 -0.2612
14947TIP3    H166256   5.789   2.075   3.242  1.8319  0.4939 -1.7796
14947TIP3    H266257   5.873   2.149   3.344 -1.4875 -0.3705  1.8248
14948TIP3   OH266258   5.195   4.793   2.898 -0.6036  0.7159 -0.2091
14948TIP3    H166259   5.216   4.880   2.863 -0.5575  0.9241  0.3300
14948TIP3    H266260   5.277   4.744   2.894 -0.9208  0.2487 -1.7669
14949TIP3   OH266261   3.953   4.446  11.291  0.2154  0.5507  0.5313
14949TIP3    H166262   4.045   4.457  11.312  0.8014 -0.6488 -1.1635
14949TIP3    H266263   3.936   4.352  11.304 -0.6855  0.7079  0.5605
14950TIP3   OH266264   1.596   0.527   5.746 -0.4793  0.0537  0.1419
14950TIP3    H166265   1.571   0.618   5.731 -1.4881 -0.1448  0.5243
14950TIP3    H266266   1.549   0.502   5.826 -0.2856 -0.8272 -0.0063
14951TIP3   OH266267   4.085   0.967  14.790  0.1423  0.1987 -0.4415
14951TIP3    H166268   4.072   0.879  14.754 -0.6386  0.2909 -0.4078
14951TIP3    H266269   3.999   1.008  14.785  0.9987  1.9426 -3.0182
14952TIP3   OH266270   5.799   0.300   4.477  0.2187  0.0809 -0.8306
14952TIP3    H166271   5.778   0.274   4.566  1.0491 -0.7835 -0.8689
14952TIP3    H266272   5.714   0.306   4.433 -0.2875  1.5854  0.2746
14953TIP3   OH266273   0.643   5.578   4.450  0.2210  0.1999 -0.6145
14953TIP3    H166274   0.606   5.522   4.382  0.2967 -1.8900  0.9752
14953TIP3    H266275   0.689   5.647   4.402  1.6644 -2.0804 -2.7438
14954TIP3   OH266276   5.888   0.441  14.958  0.5006 -0.1675  0.1010
14954TIP3    H166277   5.951   0.427  14.888  2.7776  1.4208  1.7017
14954TIP3    H266278   5.927   0.397  15.034 -1.7953 -1.6633  0.5156
14955TIP3   OH266279   0.308   3.511   0.525  0.4072 -0.4437  0.0905
14955TIP3    H166280   0.250   3.435   0.531 -1.2885  0.8531  0.9176
14955TIP3    H266281   0.391   3.475   0.494 -0.6332 -2.4769 -0.5301
14956TIP3   OH266282   3.882   2.307   3.568 -0.2759 -0.1325  0.2191
14956TIP3    H166283   3.934   2.351   3.501 -0.6410  0.8137  0.5449
14956TIP3    H266284   3.876   2.216   3.538  0.6082  0.0023 -0.3885
14957TIP3   OH266285   5.196   5.480  14.804  1.2915  0.3131 -0.4102
14957TIP3    H166286   5.111   5.454  14.769  0.9184 -0.9887  1.3352
14957TIP3    H266287   5.258   5.417  14.767  1.7568  1.9318 -2.5816
14958TIP3   OH266288   3.233   3.295   0.998  0.2724  0.2644  0.5516
14958TIP3    H166289   3.210   3.263   0.911  1.6012 -1.2464  0.7053
14958TIP3    H266290   3.150   3.298   1.045 -0.0396 -2.8857  0.4332
14959TIP3   OH266291   3.273   1.441   4.178 -0.2670  0.1108  0.2021
14959TIP3    H166292   3.319   1.490   4.110 -1.1931 -0.0565 -0.5543
14959TIP3    H266293   3.343   1.407   4.234  0.6775 -1.6412 -1.9044
14960TIP3   OH266294   4.433   4.533   1.169 -0.2609 -0.1509 -0.2439
14960TIP3    H166295   4.425   4.441   1.195 -1.0200 -0.0418 -0.0733
14960TIP3    H266296   4.345   4.568   1.177 -0.2744  0.2220 -1.7404
14961TIP3   OH266297   6.996   2.705  14.363 -0.0391 -0.4701  0.3241
14961TIP3    H166298   6.985   2.613  14.386 -1.1053 -1.4308 -3.2991
14961TIP3    H266299   7.072   2.706  14.305 -2.0027  0.1937 -2.4484
14962TIP3   OH266300   4.963   2.429   0.309 -0.4678 -0.0910 -0.2744
14962TIP3    H166301   5.040   2.482   0.330 -1.2045  0.2103  1.8736
14962TIP3    H266302   4.924   2.472   0.233  0.2128  1.0950  0.0213
14963TIP3   OH266303   4.989   0.990   1.326  0.3595  0.4737  0.1101
14963TIP3    H166304   4.977   1.020   1.236  1.4035 -0.8677 -0.5035
14963TIP3    H266305   5.082   1.002   1.343  0.1531  0.8211  1.0695
14964TIP3   OH266306   2.830   1.229  14.911 -0.2363  0.4343 -0.9579
14964TIP3    H166307   2.793   1.201  14.827  1.0572 -0.1343 -1.3651
14964TIP3    H266308   2.776   1.184  14.977 -2.4987  2.3812 -1.3579
14965TIP3   OH266309   5.355   0.840  10.466 -0.2903 -0.5791  0.1565
14965TIP3    H166310   5.262   0.845  10.443 -0.2418 -0.0261  0.0669
14965TIP3    H266311   5.383   0.756  10.432 -0.0615  0.4434 -2.4441
14966TIP3   OH266312   2.421   3.026   2.510  0.1185  0.3905  0.1717
14966TIP3    H166313   2.401   2.948   2.561  1.1642 -1.1032 -1.5940
14966TIP3    H266314   2.423   2.996   2.419 -0.0139  2.6032 -0.6382
14967TIP3   OH266315   3.061   6.281   4.793 -0.4703 -0.1099 -0.0930
14967TIP3    H166316   2.984   6.338   4.790 -0.2571  0.1456 -1.3385
14967TIP3    H266317   3.025   6.192   4.797 -0.8252  0.0290 -0.1919
14968TIP3   OH266318   5.252   2.537   2.090 -0.2667  0.8498 -0.1570
14968TIP3    H166319   5.207   2.559   2.172 -0.2578  1.3215 -0.2740
14968TIP3    H266320   5.332   2.590   2.092 -0.5015  1.2363 -0.6944
14969TIP3   OH266321   0.288   4.922   0.855 -0.3700 -0.4639  0.0203
14969TIP3    H166322   0.364   4.969   0.822 -0.9692  0.0695 -0.6286
14969TIP3    H266323   0.262   4.969   0.934  0.6733 -1.3546  0.9228
14970TIP3   OH266324   2.332   2.086   1.708  0.3476  0.9103 -0.1498
14970TIP3    H166325   2.239   2.085   1.688 -0.0301  4.2809  0.8194
14970TIP3    H266326   2.366   2.161   1.659  2.4356  0.1780  0.0677
14971TIP3   OH266327   5.878   5.248   2.899  0.0912  0.0312 -0.4519
14971TIP3    H166328   5.819   5.307   2.854 -0.8138  1.2105  2.1057
14971TIP3    H266329   5.936   5.215   2.830 -2.4527  0.0776 -2.7793
14972TIP3   OH266330   2.000   3.326  12.744  0.1255  0.8100 -0.4368
14972TIP3    H166331   2.093   3.326  12.723 -0.0448  0.6845 -1.2627
14972TIP3    H266332   1.991   3.389  12.815  0.6994  1.5974 -1.0462
14973TIP3   OH266333   2.875   4.054   2.837  0.4636  0.1057 -0.0787
14973TIP3    H166334   2.959   4.090   2.807  2.7612 -3.9861  0.8021
14973TIP3    H266335   2.861   4.093   2.923  2.2103 -0.1632  0.3530
14974TIP3   OH266336   6.158   5.556   4.993 -0.6310 -0.3953  0.3067
14974TIP3    H166337   6.216   5.581   5.065 -1.2200  0.5830  0.4552
14974TIP3    H266338   6.195   5.602   4.917 -0.7529 -0.4045  0.2425
14975TIP3   OH266339   5.228   2.605  13.949  0.0397 -0.1324 -0.0425
14975TIP3    H166340   5.199   2.595  13.859  0.3384 -0.3870 -0.1114
14975TIP3    H266341   5.211   2.520  13.989  0.9318 -0.3667 -0.1535
14976TIP3   OH266342   3.433   1.934   6.015  0.2260 -0.1701 -0.8189
14976TIP3    H166343   3.337   1.937   6.010  0.1117 -1.1000  0.4041
14976TIP3    H266344   3.458   2.017   6.056  0.0679  0.6675 -2.3505
14977TIP3   OH266345   7.030   5.977   3.255 -0.0350 -0.0765  0.6014
14977TIP3    H166346   7.113   6.021   3.236 -0.3552 -0.1033 -1.0293
14977TIP3    H266347   7.022   5.980   3.350  0.9350  1.5906  0.6652
14978TIP3   OH266348   0.571   0.641  11.973 -0.3523  0.2172 -0.2899
14978TIP3    H166349   0.486   0.616  11.937 -1.8546  0.2276  2.9286
14978TIP3    H266350   0.566   0.618  12.065  2.1447  2.6975  0.6052
14979TIP3   OH266351   2.981   4.903   0.510 -0.0042 -0.2306 -0.6081
14979TIP3    H166352   2.919   4.959   0.463 -1.4273 -1.6752 -0.5640
14979TIP3    H266353   2.931   4.823   0.529  1.0917 -0.4617  1.6901
14980TIP3   OH266354   4.726   4.731   0.594  0.2267 -0.1563 -0.7416
14980TIP3    H166355   4.715   4.729   0.499 -0.3251  0.6987 -0.7061
14980TIP3    H266356   4.719   4.824   0.617 -0.5754 -0.4368  0.2422
14981TIP3   OH266357   5.616   3.164  13.727  0.5771  0.1209  0.1619
14981TIP3    H166358   5.702   3.204  13.720  0.5639 -0.1106 -2.3512
14981TIP3    H266359   5.632   3.078  13.767  1.3361  0.5362  0.7606
14982TIP3   OH266360   6.350   5.944  14.384 -0.8914 -0.7700 -0.2650
14982TIP3    H166361   6.422   6.008  14.389 -1.4404 -0.1143 -0.5931
14982TIP3    H266362   6.370   5.881  14.453  0.6361 -1.2707 -1.1109
14983TIP3   OH266363   4.378   1.795   2.306 -0.2614  0.0552 -0.7221
14983TIP3    H166364   4.403   1.782   2.214  0.9121 -1.7145 -0.1871
14983TIP3    H266365   4.460   1.817   2.350 -1.1424  3.3010 -0.4092
14984TIP3   OH266366   1.640   5.523   1.046 -0.0833 -0.1436 -0.4389
14984TIP3    H166367   1.721   5.505   1.094 -0.4755 -0.8703 -0.0277
14984TIP3    H266368   1.647   5.471   0.966  0.0270  0.1092 -0.5963
14985TIP3   OH266369   0.967   1.038   2.653  0.0699 -0.4769 -0.4447
14985TIP3    H166370   0.999   1.121   2.617 -0.7239 -0.3427 -0.8602
14985TIP3    H266371   0.981   0.974   2.583 -0.5577 -0.4146 -0.6350
14986TIP3   OH266372   6.402   3.343   4.054  0.1672 -0.1289 -0.1892
14986TIP3    H166373   6.456   3.404   4.103  1.1967  1.3399 -2.9242
14986TIP3    H266374   6.353   3.398   3.993 -2.3137 -1.6887  0.2476
14987TIP3   OH266375   3.852   5.515   4.353 -0.3187  0.3635  0.8061
14987TIP3    H166376   3.892   5.582   4.410  0.1465  0.2438  0.6260
14987TIP3    H266377   3.817   5.450   4.413  2.0556 -0.8750  0.9805
14988TIP3   OH266378   3.315   4.655   5.086  0.1282  0.6680 -0.6226
14988TIP3    H166379   3.288   4.746   5.076 -0.0355  0.4879 -2.1970
14988TIP3    H266380   3.380   4.656   5.155  0.0431  1.9645 -0.5420
14989TIP3   OH266381   0.712   2.762   0.316  0.5549  0.5657 -0.1077
14989TIP3    H166382   0.693   2.834   0.375 -0.5698  0.4246 -0.2770
14989TIP3    H266383   0.787   2.718   0.356 -0.6131  0.0314  1.6480
14990TIP3   OH266384   4.888   6.361   2.378 -0.2783 -0.3228 -0.6464
14990TIP3    H166385   4.858   6.273   2.399 -1.7536  0.1411 -0.7517
14990TIP3    H266386   4.939   6.350   2.298 -1.7655 -0.8788 -1.5570
14991TIP3   OH266387   6.185   5.534   1.731 -0.4327 -0.1021  0.0457
14991TIP3    H166388   6.141   5.456   1.696  1.4028 -1.0614 -0.2635
14991TIP3    H266389   6.141   5.550   1.815 -0.2514 -2.0663  0.5809
14992TIP3   OH266390   4.588   7.054   1.232 -0.1012  0.2306  0.4613
14992TIP3    H166391   4.681   7.038   1.247  0.2987  2.2533  0.4110
14992TIP3    H266392   4.576   7.043   1.138  0.1804  0.4179  0.4043
14993TIP3   OH266393   3.984   0.965   1.995 -0.5953 -0.0908  0.7555
14993TIP3    H166394   3.908   0.945   1.941 -1.2303 -0.6250  1.8176
14993TIP3    H266395   3.988   1.061   1.998 -0.2060 -0.0383 -0.6748
14994TIP3   OH266396   2.155   0.073  13.083 -0.4447  0.2423 -0.5078
14994TIP3    H166397   2.230   0.133  13.082  0.1489 -0.3278  2.1200
14994TIP3    H266398   2.193  -0.012  13.103 -1.6857 -0.3149 -0.4374
14995TIP3   OH266399   3.634   0.374   9.766 -0.0871 -0.3766  0.1322
14995TIP3    H166400   3.586   0.380   9.683 -2.0186 -0.7229  1.1714
14995TIP3    H266401   3.721   0.345   9.741 -0.0167  1.3919 -1.9642
14996TIP3   OH266402   1.623   0.803  15.215 -0.3121 -0.3591 -0.5189
14996TIP3    H166403   1.595   0.858  15.288  0.0266 -0.5378 -0.2549
14996TIP3    H266404   1.542   0.759  15.187 -0.5431  0.1009 -0.5925
14997TIP3   OH266405   2.147   4.144   1.364 -0.4096  0.5179 -0.2853
14997TIP3    H166406   2.237   4.120   1.340 -0.1748  1.0700  0.0380
14997TIP3    H266407   2.126   4.088   1.439 -0.3524  0.3531 -0.3927
14998TIP3   OH266408   3.547   4.972  10.357  0.0043  0.4038  0.1101
14998TIP3    H166409   3.633   5.005  10.381 -0.8249  2.6655  0.2230
14998TIP3    H266410   3.493   4.987  10.434 -0.9129  0.7350 -0.5776
14999TIP3   OH266411   7.015   3.312   3.195 -0.1862  0.4194 -0.4000
14999TIP3    H166412   6.957   3.315   3.119 -1.6587  0.2504  0.6946
14999TIP3    H266413   6.972   3.367   3.260  0.1347 -0.8654  0.9417
15000TIP3   OH266414   5.947   5.581   5.258  0.5538 -0.3341 -0.3991
15000TIP3    H166415   5.890   5.624   5.194 -0.3043 -1.3321 -0.3357
15000TIP3    H266416   5.986   5.652   5.307 -0.0422  0.4020 -0.9670
15001TIP3   OH266417   2.819   6.633   0.384  0.3100 -0.2970  0.9751
15001TIP3    H166418   2.841   6.546   0.350  1.5424  0.5349 -0.5132
15001TIP3    H266419   2.866   6.639   0.467  1.4794 -0.5070  0.3469
15002TIP3   OH266420   4.189   3.629   5.637 -0.1206  0.4574  0.2402
15002TIP3    H166421   4.259   3.584   5.685 -0.9920  0.0749  1.1987
15002TIP3    H266422   4.111   3.575   5.652 -0.4092  0.2568 -1.7596
15003TIP3   OH266423   2.204   3.513   0.868 -0.2050  0.0890  0.1908
15003TIP3    H166424   2.287   3.523   0.822  0.5517 -1.3134  1.1617
15003TIP3    H266425   2.140   3.557   0.813  0.6263 -1.5600 -2.2707
15004TIP3   OH266426   5.742   6.475   1.172  0.9286  0.3596 -0.0292
15004TIP3    H166427   5.719   6.552   1.121  1.0616  0.2347 -0.2783
15004TIP3    H266428   5.800   6.507   1.240  2.4005  0.2155 -1.1709
15005TIP3   OH266429   1.113   1.039  15.418  0.3778 -0.0925  0.0822
15005TIP3    H166430   1.064   1.072  15.342 -0.0681  0.5688  0.6431
15005TIP3    H266431   1.151   1.117  15.458 -1.5281 -0.0705  2.0236
15006TIP3   OH266432   5.109   5.128   2.021 -0.2788  0.0111 -0.8498
15006TIP3    H166433   5.090   5.034   2.022 -0.1356 -0.0281 -1.3729
15006TIP3    H266434   5.127   5.147   1.929  0.7177  0.3363 -0.6014
15007TIP3   OH266435   2.557   5.739   3.285  0.0033  0.3499  0.0133
15007TIP3    H166436   2.585   5.683   3.212 -1.5889 -0.1639 -0.2473
15007TIP3    H266437   2.573   5.686   3.363 -0.0902  0.1220 -0.1208
15008TIP3   OH266438   2.055   5.857  11.332 -0.1442  0.0751  0.5726
15008TIP3    H166439   2.021   5.851  11.421 -0.0304  1.1836  0.7142
15008TIP3    H266440   2.142   5.895  11.342 -0.0252 -0.0353  0.0077
15009TIP3   OH266441   4.856   6.862   3.590 -0.3580  0.0710 -0.3504
15009TIP3    H166442   4.785   6.882   3.651 -1.2130 -0.7464 -1.0479
15009TIP3    H266443   4.853   6.766   3.581  0.1703  0.1257 -1.1731
15010TIP3   OH266444   1.421   6.336   2.906 -0.0871  0.5508  0.2391
15010TIP3    H166445   1.497   6.311   2.854 -0.0923  0.6449  0.1864
15010TIP3    H266446   1.390   6.254   2.944 -1.3244  0.1270 -1.5637
15011TIP3   OH266447   5.267   0.969   5.936 -0.2782 -0.5092 -0.0629
15011TIP3    H166448   5.356   0.969   5.901  0.5024 -1.2285  1.7888
15011TIP3    H266449   5.230   1.052   5.906  0.8997 -0.3225 -1.1111
15012TIP3   OH266450   5.883   2.888   2.261 -0.1099 -0.4817  0.4594
15012TIP3    H166451   5.917   2.969   2.222 -2.7103  0.2649 -0.4315
15012TIP3    H266452   5.901   2.820   2.196  3.0488 -0.9966  1.6454
15013TIP3   OH266453   6.661   6.721   3.006  0.0334  0.3296  0.0253
15013TIP3    H166454   6.626   6.670   3.079 -0.5046  0.5263 -0.0905
15013TIP3    H266455   6.652   6.663   2.930 -0.3782  0.5208 -0.0689
15014TIP3   OH266456   0.609   2.992   3.545  0.9994  0.0955  0.0039
15014TIP3    H166457   0.649   3.077   3.526 -0.8852  0.7123 -1.5789
15014TIP3    H266458   0.575   3.001   3.634  0.8761  0.9940 -0.1224
15015TIP3   OH266459   0.483   5.041  14.549 -0.1793  0.1833 -0.5923
15015TIP3    H166460   0.437   4.998  14.478  1.0321 -2.4111  0.0834
15015TIP3    H266461   0.575   5.021  14.534  0.2757  1.0966  0.7396
15016TIP3   OH266462   4.800   4.044   1.889 -0.2084  0.3867 -0.6287
15016TIP3    H166463   4.705   4.052   1.891 -0.2864 -0.1501 -1.5760
15016TIP3    H266464   4.832   4.135   1.888 -0.6916  0.5673 -0.0690
15017TIP3   OH266465   5.040   1.784   3.946  0.4135 -0.1401 -0.6090
15017TIP3    H166466   5.078   1.785   4.034  0.9846 -0.5886 -0.8433
15017TIP3    H266467   5.001   1.697   3.938  0.8608 -0.3088 -1.0027
15018TIP3   OH266468   1.746   1.300  10.350  0.6342  0.7365  0.2792
15018TIP3    H166469   1.716   1.222  10.396  0.5147  1.2689  1.1226
15018TIP3    H266470   1.836   1.314  10.380  0.6448  0.9440  0.1590
15019TIP3   OH266471   6.941   2.054   5.358  0.0498  0.1135  0.1022
15019TIP3    H166472   6.885   2.014   5.424  0.1443 -0.7613 -0.3372
15019TIP3    H266473   6.930   2.149   5.371 -2.6897  0.0285 -0.9535
15020TIP3   OH266474   3.783   6.681   2.679 -0.1665  0.1911  0.6139
15020TIP3    H166475   3.797   6.631   2.760  0.9910  1.1052  1.0072
15020TIP3    H266476   3.804   6.771   2.703  1.0649  0.3450 -0.9296
15021TIP3   OH266477   4.080   1.263   0.488 -0.5373 -0.1403 -0.7860
15021TIP3    H166478   4.062   1.290   0.398  1.2827 -0.4439 -1.2657
15021TIP3    H266479   4.062   1.342   0.539 -3.1522 -0.3979 -1.1471
15022TIP3   OH266480   5.010   6.296   3.544 -0.4738  0.1056 -0.0428
15022TIP3    H166481   5.041   6.221   3.595  0.0504  1.2823  1.4546
15022TIP3    H266482   5.089   6.343   3.519 -0.7301 -0.3907 -1.9322
15023TIP3   OH266483   1.145   3.770   0.599 -0.0119 -0.5613  0.1431
15023TIP3    H166484   1.236   3.785   0.626  0.4687 -0.9958 -1.1480
15023TIP3    H266485   1.093   3.795   0.675  1.2094 -0.7022  1.0581
15024TIP3   OH266486   2.600   3.220  10.467 -0.2492  0.3634 -0.4840
15024TIP3    H166487   2.689   3.227  10.433  0.0495 -0.9163 -0.0227
15024TIP3    H266488   2.543   3.247  10.395  0.4033 -1.4231 -1.7051
15025TIP3   OH266489   6.985   6.912   2.656  0.1136 -0.0745 -0.0678
15025TIP3    H166490   6.957   6.921   2.747  2.8453 -0.0073  0.8305
15025TIP3    H266491   7.036   6.831   2.654  1.3041  0.6669 -1.1817
15026TIP3   OH266492   5.102   4.690   4.938 -0.7313  0.1136  0.2664
15026TIP3    H166493   5.114   4.663   5.029  2.0662 -0.0720 -0.0799
15026TIP3    H266494   5.056   4.616   4.897  1.4813 -1.6003  0.7012
15027TIP3   OH266495   0.687   4.018   0.411 -0.2689 -0.2481 -0.8049
15027TIP3    H166496   0.709   3.928   0.386 -2.0896 -0.8967 -0.1938
15027TIP3    H266497   0.752   4.041   0.477  0.3731 -1.0125 -1.1516
15028TIP3   OH266498   4.126   4.766   2.664 -0.2369  0.2289  0.0705
15028TIP3    H166499   4.066   4.840   2.663  1.3247  1.6117  1.8751
15028TIP3    H266500   4.192   4.789   2.729  1.6881 -1.6733 -1.0742
15029TIP3   OH266501   3.162   4.313   3.101 -0.2691  0.5273 -0.7014
15029TIP3    H166502   3.223   4.384   3.079  0.1284  0.3694 -0.1340
15029TIP3    H266503   3.075   4.350   3.083  0.0064  0.5100 -2.1987
15030TIP3   OH266504   3.876   1.485   3.297  0.5082  0.4128  0.5161
15030TIP3    H166505   3.884   1.551   3.366  3.0476  1.3088 -0.4994
15030TIP3    H266506   3.886   1.402   3.342 -1.8718  0.7011  1.7008
15031TIP3   OH266507   0.874   4.646   1.364 -0.5677  0.3346 -0.0446
15031TIP3    H166508   0.809   4.691   1.310  1.1122  1.7597 -0.9836
15031TIP3    H266509   0.907   4.576   1.307 -1.3089 -0.4583  0.4712
15032TIP3   OH266510   3.705   5.402  10.605 -0.4378 -0.1174 -0.1390
15032TIP3    H166511   3.735   5.319  10.568  1.2325 -1.8038  4.2147
15032TIP3    H266512   3.610   5.394  10.609 -0.3783 -1.3973 -0.7254
15033TIP3   OH266513   1.559   5.991  14.723 -0.0987  0.3543  0.5785
15033TIP3    H166514   1.598   5.908  14.695  1.8279  1.0545  1.0732
15033TIP3    H266515   1.587   6.001  14.814 -1.7848  0.7179  1.0852
15034TIP3   OH266516   6.580   6.743   2.247 -0.4352 -0.2222  0.6279
15034TIP3    H166517   6.556   6.669   2.302 -1.8117  0.1705  0.5967
15034TIP3    H266518   6.586   6.707   2.159  0.9836 -0.6921  0.8890
15035TIP3   OH266519   4.357   5.706   3.051  0.0537 -0.2483  0.0498
15035TIP3    H166520   4.286   5.698   2.988  0.2421  0.5236 -0.2790
15035TIP3    H266521   4.336   5.786   3.100  0.4392 -0.2867  0.2819
15036TIP3   OH266522   5.804   2.894   0.070  0.3314 -0.4563  0.0964
15036TIP3    H166523   5.838   2.812   0.104 -0.6393 -0.3164  1.4972
15036TIP3    H266524   5.709   2.881   0.065  0.3127  0.0195 -1.2729
15037TIP3   OH266525   2.068   2.761  10.922  0.3595  0.2375 -0.1933
15037TIP3    H166526   2.121   2.743  10.845 -1.0228  1.4197 -1.4985
15037TIP3    H266527   1.980   2.776  10.887 -0.7465 -1.0725  1.8128
15038TIP3   OH266528   1.810   4.171   2.604  0.0448 -0.1863  0.0763
15038TIP3    H166529   1.838   4.260   2.626  0.3380  0.1258 -1.4585
15038TIP3    H266530   1.813   4.124   2.687 -0.1542  1.2363  0.9300
15039TIP3   OH266531   3.270   0.441   1.484 -0.0775 -0.1402  0.7869
15039TIP3    H166532   3.340   0.440   1.549 -1.1063  1.1775  1.9811
15039TIP3    H266533   3.227   0.525   1.497  0.5585  0.9083 -2.5922
15040TIP3   OH266534   6.861   6.726  15.370  0.1879 -0.3345 -0.6733
15040TIP3    H166535   6.931   6.663  15.384  1.0188  0.7584  0.3656
15040TIP3    H266536   6.790   6.696  15.428  1.2372  0.6093  1.1939
15041TIP3   OH266537   4.096   6.852   5.065  0.0283  0.3353  0.1141
15041TIP3    H166538   4.073   6.889   5.150  0.3654 -0.6112  0.6338
15041TIP3    H266539   4.131   6.926   5.015  1.3364  0.5933  1.3679
15042TIP3   OH266540   4.758   4.347   4.176 -0.2073  0.2575 -0.7718
15042TIP3    H166541   4.771   4.259   4.142  0.9128 -0.0382  0.3755
15042TIP3    H266542   4.691   4.385   4.119 -0.5466 -1.2481 -1.4124
15043TIP3   OH266543   0.871   1.232   4.518  0.3917 -0.2122 -0.6866
15043TIP3    H166544   0.820   1.256   4.440 -2.9286 -0.9368  1.0919
15043TIP3    H266545   0.874   1.311   4.571  0.6661 -0.3339 -0.5138
15044TIP3   OH266546   1.123   2.348  14.035  0.1425  0.6668 -0.8208
15044TIP3    H166547   1.098   2.404  13.961 -1.5314 -0.2049 -0.9565
15044TIP3    H266548   1.150   2.410  14.103  1.3480  1.4969 -2.0062
15045TIP3   OH266549   3.626   6.581   4.060 -0.0047  0.0246  0.4724
15045TIP3    H166550   3.722   6.580   4.055 -0.0357 -1.1690 -0.1426
15045TIP3    H266551   3.607   6.586   4.154  0.6751 -1.5272  0.7155
15046TIP3   OH266552   3.571   5.744   4.559  0.1246 -0.1891 -0.0784
15046TIP3    H166553   3.605   5.722   4.646 -0.4193  1.6782  0.6510
15046TIP3    H266554   3.478   5.725   4.564 -0.0528  0.6867  0.0271
15047TIP3   OH266555   1.787   2.603   2.846 -0.2856  0.1923  0.1545
15047TIP3    H166556   1.711   2.653   2.877 -0.0530  0.7788 -0.1956
15047TIP3    H266557   1.753   2.516   2.826 -0.3406 -0.4032  2.5881
15048TIP3   OH266558   0.063   2.222   0.206  0.2438 -0.5673 -0.1838
15048TIP3    H166559   0.111   2.293   0.163  0.2241  0.9929  2.1476
15048TIP3    H266560  -0.024   2.223   0.165  1.3438 -1.8134 -2.7553
15049TIP3   OH266561   4.839   0.240   1.901  0.3503 -0.4708  1.2106
15049TIP3    H166562   4.830   0.217   1.808  3.7797 -1.3756  0.9861
15049TIP3    H266563   4.762   0.295   1.919  0.5418  1.4559 -2.6847
15050TIP3   OH266564   5.104   6.743   1.338 -0.2008 -0.1037 -0.1119
15050TIP3    H166565   5.179   6.728   1.395  0.4569 -0.4474 -1.0475
15050TIP3    H266566   5.030   6.754   1.398  0.3800 -0.9893  0.7983
15051TIP3   OH266567   6.158   3.478   3.593  0.4224 -0.3350  0.0085
15051TIP3    H166568   6.068   3.491   3.621  0.6301  1.2275  0.0242
15051TIP3    H266569   6.152   3.423   3.515 -0.4706 -1.0190  0.5458
15052TIP3   OH266570   1.799   0.613  14.715  0.5168  0.6070 -0.0011
15052TIP3    H166571   1.846   0.535  14.685 -0.8402 -0.2167 -0.1070
15052TIP3    H266572   1.769   0.654  14.634 -0.6907 -0.0283  0.1004
15053TIP3   OH266573   0.653   5.893   5.134 -0.0244  0.3169  0.5573
15053TIP3    H166574   0.683   5.984   5.132  0.2413  0.2231  0.0000
15053TIP3    H266575   0.724   5.845   5.177 -0.0902  0.3471  0.6993
15054TIP3   OH266576   6.381   2.120   4.812 -0.1232  0.1656 -0.4691
15054TIP3    H166577   6.449   2.179   4.779  0.9429 -0.8722 -0.2063
15054TIP3    H266578   6.371   2.144   4.904  0.0693  0.1643 -0.4477
15055TIP3   OH266579   1.072   5.682  13.805  0.2797  0.3860 -0.2188
15055TIP3    H166580   1.161   5.666  13.775 -0.1412  0.3957 -1.5844
15055TIP3    H266581   1.019   5.676  13.725 -0.9939 -0.0287  0.6144
15056TIP3   OH266582   7.121   4.231  12.091  0.0445 -0.2035  0.0490
15056TIP3    H166583   7.122   4.240  12.186 -3.1457  0.5207  0.1251
15056TIP3    H266584   7.112   4.321  12.058  3.7258 -0.1155 -1.2091
15057TIP3   OH266585   6.703   5.221  14.321 -0.4005  0.3239  0.4033
15057TIP3    H166586   6.732   5.290  14.380 -0.0243  0.5763 -0.0703
15057TIP3    H266587   6.707   5.261  14.234 -1.3659  0.0952  0.2444
15058TIP3   OH266588   4.757   1.052  14.607  0.3372 -0.2787  0.1876
15058TIP3    H166589   4.746   0.969  14.655 -0.0919 -0.7279 -0.6625
15058TIP3    H266590   4.674   1.098  14.620 -0.4881 -1.1800 -1.5435
15059TIP3   OH266591   0.513   3.392   5.823 -0.3862  0.5568  0.5725
15059TIP3    H166592   0.539   3.300   5.818  0.0373  0.7077 -3.6874
15059TIP3    H266593   0.575   3.431   5.886  0.3352 -1.7416  1.4076
15060TIP3   OH266594   3.977   7.016   4.863  0.3819  0.6004 -0.0308
15060TIP3    H166595   3.987   6.951   4.793 -1.0054  2.4795 -2.1111
15060TIP3    H266596   3.896   7.062   4.841  0.3700  1.8581  2.3701
15061TIP3   OH266597   7.035   2.813   3.377 -0.1073 -0.0593  0.6504
15061TIP3    H166598   6.992   2.894   3.352 -0.1732  0.9017  3.5150
15061TIP3    H266599   6.967   2.746   3.370  0.0849 -0.0859 -2.2385
15062TIP3   OH266600   4.703   0.426  11.951 -0.2522  0.2517 -0.2918
15062TIP3    H166601   4.779   0.387  11.907  0.1678  0.5749  0.1282
15062TIP3    H266602   4.630   0.368  11.929  0.0112  0.2145 -1.1200
15063TIP3   OH266603   3.107   6.545   3.035  0.6150 -0.0872 -0.1672
15063TIP3    H166604   3.041   6.494   3.082  1.4859 -0.8604  0.2563
15063TIP3    H266605   3.094   6.522   2.943  0.5614 -0.5664 -0.0437
15064TIP3   OH266606   0.604   1.204   6.047  0.1216 -0.6777  0.1753
15064TIP3    H166607   0.658   1.150   5.989 -2.0198 -3.3399  0.4646
15064TIP3    H266608   0.620   1.170   6.135 -1.4201 -1.0623  0.3452
15065TIP3   OH266609   0.944   6.275   2.481 -0.0452  0.1569  0.4047
15065TIP3    H166610   0.998   6.200   2.453 -0.3044 -1.2862  3.3732
15065TIP3    H266611   1.008   6.339   2.513  0.1022  0.4073 -0.3870
15066TIP3   OH266612   2.261   0.481   1.378  0.5061 -0.5317 -0.4638
15066TIP3    H166613   2.195   0.417   1.349  0.9270  0.0349 -2.9223
15066TIP3    H266614   2.340   0.457   1.329  1.0864  0.9663 -0.3009
15067TIP3   OH266615   3.677   4.389   2.298  0.1479 -0.1154 -0.4459
15067TIP3    H166616   3.679   4.476   2.337 -1.9474  0.1680 -0.8668
15067TIP3    H266617   3.684   4.404   2.204  0.1443 -0.4288 -0.5000
15068TIP3   OH266618   4.964   2.127  10.137  0.0154 -0.2121 -0.1469
15068TIP3    H166619   4.907   2.147  10.062 -0.6554  2.4744  0.9744
15068TIP3    H266620   5.043   2.178  10.121  0.7274 -1.2592 -0.0188
15069TIP3   OH266621   2.785   1.627  11.391  0.4477  0.3422  0.2554
15069TIP3    H166622   2.724   1.695  11.363  0.8550  1.1014  1.1932
15069TIP3    H266623   2.820   1.592  11.309 -1.6144 -0.4784 -0.3278
15070TIP3   OH266624   5.261   3.704   1.380  0.1738 -0.0790  0.3098
15070TIP3    H166625   5.266   3.780   1.322  0.7752 -0.1943  0.1999
15070TIP3    H266626   5.194   3.727   1.444 -1.5475 -0.5512 -1.2609
15071TIP3   OH266627   6.422   6.222  14.223  0.2619  0.5723 -0.4884
15071TIP3    H166628   6.450   6.310  14.250 -2.2660  0.5029  2.9959
15071TIP3    H266629   6.442   6.167  14.298 -3.6349 -0.5485 -0.0752
15072TIP3   OH266630   5.627   3.161  14.303  0.1435  0.4314  0.7602
15072TIP3    H166631   5.567   3.093  14.272 -0.2536  1.8884 -1.9439
15072TIP3    H266632   5.713   3.120  14.298 -0.3768 -1.4436  4.0060
15073TIP3   OH266633   0.032   2.168   1.749 -0.2373  0.0687 -0.2611
15073TIP3    H166634   0.091   2.159   1.675  1.8724 -0.7548  1.4138
15073TIP3    H266635  -0.043   2.114   1.727  1.0030 -1.3404 -1.1854
15074TIP3   OH266636   1.584   5.854   4.849  0.2436  0.0954 -0.1515
15074TIP3    H166637   1.628   5.929   4.889  3.2002 -2.1661  1.2744
15074TIP3    H266638   1.632   5.841   4.767 -0.3522 -0.1439 -0.4622
15075TIP3   OH266639   4.537   1.975   2.773  0.2608 -0.2768  0.2169
15075TIP3    H166640   4.538   2.069   2.791 -0.2830  0.3997 -2.6323
15075TIP3    H266641   4.618   1.959   2.724  0.0854 -1.1677  0.2019
15076TIP3   OH266642   0.292   5.839   0.192  0.5191  0.3794 -0.3861
15076TIP3    H166643   0.267   5.774   0.127 -0.7506  0.0048  0.4368
15076TIP3    H266644   0.321   5.788   0.267  0.9186  0.7942 -0.2529
15077TIP3   OH266645   1.672   6.690   5.205 -0.0996 -0.3787 -0.4146
15077TIP3    H166646   1.741   6.662   5.266  0.4490 -1.2375 -1.3965
15077TIP3    H266647   1.605   6.729   5.261  1.9508  2.1780  0.4401
15078TIP3   OH266648   1.320   4.001  12.286  0.7737  0.1969  0.6695
15078TIP3    H166649   1.272   4.076  12.321 -0.6742 -0.6890  0.6721
15078TIP3    H266650   1.306   3.932  12.350 -1.5771 -1.3441 -1.3396
15079TIP3   OH266651   2.793   6.624  14.421  0.5297  0.0394 -0.5807
15079TIP3    H166652   2.880   6.663  14.419  0.3845  0.7349  2.2698
15079TIP3    H266653   2.778   6.602  14.513 -1.7745 -1.3409 -1.1855
15080TIP3   OH266654   2.072   5.075   3.822 -0.0926  0.4269 -0.1334
15080TIP3    H166655   2.147   5.114   3.776 -1.3434  0.6798 -2.1083
15080TIP3    H266656   2.033   5.148   3.869  0.9972  0.2429  1.1244
15081TIP3   OH266657   2.520   6.434   4.070 -0.6286 -0.1033 -0.4528
15081TIP3    H166658   2.512   6.493   3.996  0.0483 -1.9889 -2.1226
15081TIP3    H266659   2.449   6.371   4.058  0.1736 -1.0874 -0.1460
15082TIP3   OH266660   3.290   4.412  13.867 -0.7875 -0.7081 -0.3802
15082TIP3    H166661   3.295   4.343  13.933 -2.5172 -0.1446  0.4194
15082TIP3    H266662   3.259   4.368  13.788 -0.1349 -1.1378 -0.4006
15083TIP3   OH266663   0.558   5.108   4.941  0.3535 -0.3522  0.7823
15083TIP3    H166664   0.542   5.201   4.955  1.2784  0.1455 -1.1393
15083TIP3    H266665   0.543   5.095   4.847  2.2741 -1.6646  0.6001
15084TIP3   OH266666   3.148   5.283   1.584  0.5456 -0.1117  0.0467
15084TIP3    H166667   3.152   5.198   1.540 -0.7097 -0.0917 -0.1312
15084TIP3    H266668   3.156   5.262   1.677 -0.0540 -0.4471  0.0222
15085TIP3   OH266669   1.401   3.841   0.623 -0.2954  0.0445  0.0601
15085TIP3    H166670   1.471   3.894   0.661 -0.5762 -0.3045  1.0840
15085TIP3    H266671   1.446   3.771   0.576  0.0686  0.8997 -0.8901
15086TIP3   OH266672   5.355   2.557   4.529 -0.1797 -0.4570 -0.6787
15086TIP3    H166673   5.415   2.611   4.478 -0.5797 -0.7846 -1.5057
15086TIP3    H266674   5.270   2.599   4.519  0.0586  0.7190  1.4884
15087TIP3   OH266675   6.986   4.954   2.604  0.5784 -0.4770  0.5000
15087TIP3    H166676   7.027   5.040   2.593 -0.1046 -0.2420 -0.3067
15087TIP3    H266677   6.914   4.970   2.664 -0.0126 -0.3210 -0.2369
15088TIP3   OH266678   2.971   3.852  10.210 -0.5828  0.8778  0.1857
15088TIP3    H166679   2.895   3.814  10.167 -0.5319  1.1182 -0.1245
15088TIP3    H266680   3.013   3.905  10.142  1.8401 -1.9496 -0.7525
15089TIP3   OH266681   2.464   6.300  14.301 -0.4147  0.5377  0.3340
15089TIP3    H166682   2.451   6.267  14.212 -0.0775 -1.6709  1.0362
15089TIP3    H266683   2.526   6.371  14.292  0.9908 -0.7891 -1.0361
15090TIP3   OH266684   3.654   0.261  12.486 -0.1255  0.5527  0.2675
15090TIP3    H166685   3.636   0.201  12.413 -1.2928 -1.6072  2.1780
15090TIP3    H266686   3.592   0.333  12.474 -0.5667  0.0383 -0.6416
15091TIP3   OH266687   3.949   6.041   3.974  0.0454 -0.1539 -0.2847
15091TIP3    H166688   4.035   6.081   3.963  0.3257 -0.6540  0.0016
15091TIP3    H266689   3.943   6.023   4.068 -1.0127  1.2498 -0.0485
15092TIP3   OH266690   5.429   2.786   4.344  0.2169  0.1514  0.0436
15092TIP3    H166691   5.520   2.810   4.329  0.3104 -0.6966 -0.9027
15092TIP3    H266692   5.411   2.718   4.278 -0.7431 -0.5559  0.9902
15093TIP3   OH266693   3.382   6.341   4.020 -0.3785  0.1938 -0.5400
15093TIP3    H166694   3.475   6.347   3.999 -0.6972  0.0136 -2.0871
15093TIP3    H266695   3.343   6.294   3.947 -1.3830 -1.6362  1.0588
15094TIP3   OH266696   0.156   1.071   0.410  0.0512 -0.3962  0.1438
15094TIP3    H166697   0.186   1.159   0.432 -0.9825  0.2222 -0.8231
15094TIP3    H266698   0.235   1.025   0.381  0.6512  0.1076  0.9576
15095TIP3   OH266699   6.370   2.213   1.293 -0.5128  0.5459  0.5262
15095TIP3    H166700   6.306   2.175   1.233  1.1736  0.7184 -1.5029
15095TIP3    H266701   6.342   2.304   1.304  0.1749  1.0840 -1.6453
15096TIP3   OH266702   0.567   0.267   1.645 -0.1590  0.5257  0.0888
15096TIP3    H166703   0.612   0.191   1.608  0.4791  1.4598 -1.1606
15096TIP3    H266704   0.623   0.341   1.621 -0.7543  1.4036  1.2775
15097TIP3   OH266705   6.828   3.579   2.480  0.3785  0.3224  0.0878
15097TIP3    H166706   6.880   3.529   2.543 -0.9560  0.0549  1.0346
15097TIP3    H266707   6.757   3.616   2.533 -0.0579  1.1713 -1.0495
15098TIP3   OH266708   2.149   3.496   2.702 -0.0588  0.3842 -0.4338
15098TIP3    H166709   2.223   3.435   2.703  0.0625  0.5183  0.9366
15098TIP3    H266710   2.090   3.463   2.770 -0.5525  1.1071 -0.5037
15099TIP3   OH266711   0.387   1.661   0.289  0.0917  0.2480 -0.0450
15099TIP3    H166712   0.458   1.630   0.233  0.1313 -0.9408  0.6299
15099TIP3    H266713   0.326   1.703   0.230  0.5420 -0.2267 -0.8616
15100TIP3   OH266714   2.732   7.039   4.778  0.3463  0.2168  0.2705
15100TIP3    H166715   2.763   7.125   4.806 -0.0421 -0.1664  1.9889
15100TIP3    H266716   2.808   6.981   4.788  0.1960  0.0676  0.5375
15101TIP3   OH266717   4.555   6.991  14.508 -0.2632  0.4275 -0.0954
15101TIP3    H166718   4.568   7.044  14.586  0.9983 -0.6144  0.4394
15101TIP3    H266719   4.516   7.051  14.444 -0.7750  1.4405  1.1246
15102TIP3   OH266720   1.044   6.071   0.173  0.2111  0.1472 -0.1227
15102TIP3    H166721   0.993   6.093   0.251  0.2028  0.4351 -0.2082
15102TIP3    H266722   1.096   6.149   0.155  0.1073  0.1363 -0.4876
15103TIP3   OH266723   0.084   1.400   4.659  0.0462  0.6065 -0.0305
15103TIP3    H166724   0.124   1.427   4.576  1.5140 -1.5270 -0.1131
15103TIP3    H266725   0.106   1.307   4.666 -2.6051  0.0027  1.3447
15104TIP3   OH266726   1.354   6.291   0.003  0.3338  0.5454  0.2921
15104TIP3    H166727   1.425   6.292   0.067  0.1228  0.9483  0.5236
15104TIP3    H266728   1.274   6.302   0.055  0.0780 -0.1055  0.0573
15105TIP3   OH266729   3.915   6.235   2.132  0.0181 -0.0776  0.1327
15105TIP3    H166730   3.958   6.315   2.101  1.2392 -1.4737 -1.9351
15105TIP3    H266731   3.983   6.187   2.177  0.0969 -1.2782 -1.2047
15106TIP3   OH266732   4.794   5.665   3.705  0.5581 -0.4751 -0.0809
15106TIP3    H166733   4.843   5.592   3.667  3.8214  1.2973  0.3026
15106TIP3    H266734   4.748   5.704   3.631  0.7227 -1.5138 -0.7421
15107TIP3   OH266735   2.466   1.585  14.822 -0.0113  0.3908  0.4771
15107TIP3    H166736   2.473   1.504  14.872 -0.3583  1.8014  2.9553
15107TIP3    H266737   2.376   1.585  14.788 -0.3000  0.1481  1.2304
15108TIP3   OH266738   6.813   5.397   2.421 -0.4193  0.2528 -0.2561
15108TIP3    H166739   6.779   5.322   2.468 -1.8335  0.4674 -0.8808
15108TIP3    H266740   6.862   5.447   2.486  0.1376 -0.9509  0.2676
15109TIP3   OH266741   0.877   3.214  14.143  0.5820  0.5100  0.3640
15109TIP3    H166742   0.829   3.159  14.082 -1.4033  2.3381  0.1534
15109TIP3    H266743   0.907   3.154  14.211 -0.6919 -0.9577 -0.3023
15110TIP3   OH266744   0.359   3.562   3.873  0.2438 -0.6828  0.3160
15110TIP3    H166745   0.301   3.633   3.846 -0.1624 -1.6637 -1.6001
15110TIP3    H266746   0.416   3.547   3.797  0.3850 -2.3313  0.6996
15111TIP3   OH266747   7.138   3.090   3.024  0.1892 -0.6647 -0.3029
15111TIP3    H166748   7.105   3.150   3.090  2.8863  0.9234 -0.2799
15111TIP3    H266749   7.151   3.007   3.071  2.8533  0.6561  1.5053
15112TIP3   OH266750   4.782   4.814   2.263  0.0137 -0.2306  0.2943
15112TIP3    H166751   4.833   4.894   2.248 -0.2764 -0.1839 -0.5160
15112TIP3    H266752   4.843   4.753   2.304  0.1823  0.4733  1.1058
15113TIP3   OH266753   2.177   6.583   3.827  0.0479 -0.0122  0.4748
15113TIP3    H166754   2.170   6.497   3.788 -1.5024  0.1847  0.2541
15113TIP3    H266755   2.097   6.593   3.879  0.0019  1.4291  0.1924
15114TIP3   OH266756   0.382   4.108   3.678  0.0469  0.4823 -0.4071
15114TIP3    H166757   0.412   4.156   3.755 -0.9187 -0.5552  0.6515
15114TIP3    H266758   0.463   4.082   3.634  0.6204  1.0307  0.2869
15115TIP3   OH266759   3.482   4.355   3.347  0.3543  0.2862 -0.0290
15115TIP3    H166760   3.578   4.355   3.353  0.6819  0.9306 -3.3873
15115TIP3    H266761   3.460   4.262   3.338  0.7823  0.2275 -0.5154
15116TIP3   OH266762   2.932   2.990  13.227  0.1827 -0.1973 -0.0606
15116TIP3    H166763   2.891   2.916  13.184  0.5176 -1.1009  1.1217
15116TIP3    H266764   2.983   3.033  13.159  0.5814 -1.4872 -0.5930
15117TIP3   OH266765   2.466   5.511   0.994 -0.4412 -0.1026  0.6573
15117TIP3    H166766   2.403   5.447   0.962  0.8051 -1.7198  1.2682
15117TIP3    H266767   2.550   5.464   0.992  0.3749  1.2146  2.0009
15118TIP3   OH266768   4.792   4.952   3.912 -0.0632 -0.0196  0.1998
15118TIP3    H166769   4.818   5.039   3.941  0.2367 -0.1308  0.2710
15118TIP3    H266770   4.820   4.948   3.820 -0.8372  0.2619 -0.0590
15119TIP3   OH266771   2.378   0.346   5.622 -0.8467  0.0999 -0.0117
15119TIP3    H166772   2.460   0.356   5.670 -0.2835  2.0441 -1.2467
15119TIP3    H266773   2.316   0.314   5.686  0.4792  0.2004  1.3777
15120TIP3   OH266774   4.888   4.150   5.022  0.5114  0.8787 -0.4770
15120TIP3    H166775   4.809   4.180   5.067  2.2985  3.2662  1.3841
15120TIP3    H266776   4.892   4.056   5.040 -0.9962  1.0240  0.8847
15121TIP3   OH266777   0.447   3.844   4.801  0.2338 -0.0277  0.2558
15121TIP3    H166778   0.472   3.878   4.715  0.9650 -0.1468  0.4182
15121TIP3    H266779   0.435   3.923   4.855  0.4917  0.0209  0.2422
15122TIP3   OH266780   6.284   3.127   4.158  0.2290 -0.5318  0.3332
15122TIP3    H166781   6.284   3.218   4.128  1.2915 -1.4223 -2.8076
15122TIP3    H266782   6.376   3.109   4.179  0.2114 -1.1657 -0.1049
15123TIP3   OH266783   2.097   1.598  13.468 -0.0204  0.5478  0.5360
15123TIP3    H166784   2.137   1.651  13.399  0.5697  0.0198  0.4615
15123TIP3    H266785   2.004   1.596  13.446  0.1275  0.5871 -0.1050
15124TIP3   OH266786   4.851   7.042   5.089  0.2093 -0.1405 -0.1255
15124TIP3    H166787   4.810   7.082   5.013 -2.0985 -1.0134  0.5598
15124TIP3    H266788   4.875   7.115   5.145 -0.6874  0.4283 -0.4562
15125TIP3   OH266789   5.766   3.799   2.468  0.4599  0.0618  0.2502
15125TIP3    H166790   5.779   3.816   2.375  0.4076 -0.6547  0.1078
15125TIP3    H266791   5.679   3.833   2.487  1.1640  1.8763  0.4653
15126TIP3   OH266792   3.771   3.126   1.541 -0.1604 -0.1404  0.3985
15126TIP3    H166793   3.696   3.069   1.560  1.2444 -2.0348  0.5606
15126TIP3    H266794   3.832   3.110   1.613  0.9013  0.4427 -0.3487
15127TIP3   OH266795   3.462   2.363   2.096  0.1291  0.2103 -0.4281
15127TIP3    H166796   3.534   2.398   2.043 -1.3740  3.3584 -0.6177
15127TIP3    H266797   3.505   2.317   2.168  2.2297 -1.5112 -2.6049
15128TIP3   OH266798   3.513   4.902   0.667  0.4777 -0.0858 -0.0728
15128TIP3    H166799   3.463   4.980   0.644  0.7278  0.4347  1.0874
15128TIP3    H266800   3.555   4.875   0.585 -2.4735 -1.1527 -1.3800
15129TIP3   OH266801   1.303   5.122   2.675 -0.0293  0.7921 -0.0128
15129TIP3    H166802   1.327   5.094   2.587 -1.1545 -0.8608  0.1604
15129TIP3    H266803   1.315   5.217   2.674  2.9324  0.5056 -0.9855
15130TIP3   OH266804   1.788   4.078   3.516  0.6297 -0.1256  0.4818
15130TIP3    H166805   1.834   3.997   3.539  0.6554 -0.1277  0.4231
15130TIP3    H266806   1.717   4.048   3.458  0.0606 -0.2240  1.2117
15131TIP3   OH266807   0.840   5.409  10.727  0.8320 -0.2068  0.2050
15131TIP3    H166808   0.820   5.376  10.814 -1.3181 -0.2376 -0.2295
15131TIP3    H266809   0.847   5.331  10.672 -0.8177 -0.1358 -0.1689
15132TIP3   OH266810   6.177   4.387   1.116  0.4024  0.3202 -0.4392
15132TIP3    H166811   6.200   4.447   1.045  0.4231 -0.1310 -0.8137
15132TIP3    H266812   6.122   4.320   1.076  0.9794 -0.3240 -0.1866
15133TIP3   OH266813   4.626   7.120  11.693  0.0818 -0.1702  0.0404
15133TIP3    H166814   4.683   7.180  11.740  0.0506  0.4975 -0.7597
15133TIP3    H266815   4.629   7.039  11.745 -0.3639  0.6908  1.4751
15134TIP3   OH266816   2.376   1.323   4.066 -0.5401 -0.4049  0.6970
15134TIP3    H166817   2.361   1.249   4.124 -0.5479 -0.6034  0.4422
15134TIP3    H266818   2.301   1.381   4.080  1.1236  1.3014  3.5215
15135TIP3   OH266819   3.387   0.212   0.365  0.0868  0.4682 -0.1072
15135TIP3    H166820   3.473   0.205   0.405 -0.3740  0.8680  0.9985
15135TIP3    H266821   3.401   0.269   0.289  0.8869  0.0823 -0.2617
15136TIP3   OH266822   1.421   1.546   1.668  0.4210  0.2904 -0.4837
15136TIP3    H166823   1.368   1.614   1.711  3.5957  3.1396 -0.6812
15136TIP3    H266824   1.454   1.493   1.740 -0.4333  0.2093 -0.1303
15137TIP3   OH266825   4.828   5.811   0.498  0.1128  0.4574 -0.6006
15137TIP3    H166826   4.885   5.797   0.574 -0.3868  1.3007 -0.0467
15137TIP3    H266827   4.823   5.726   0.456 -1.2619 -0.5711  1.4728
15138TIP3   OH266828   6.272   3.200   3.699 -0.1106  0.2024 -0.1999
15138TIP3    H166829   6.243   3.208   3.609  1.1339  1.1678 -0.5371
15138TIP3    H266830   6.282   3.106   3.713 -0.7505  0.0227 -0.9191
15139TIP3   OH266831   2.203   6.141   0.260 -0.0651 -0.0794  0.1730
15139TIP3    H166832   2.254   6.197   0.201  0.9381 -0.3763  0.7455
15139TIP3    H266833   2.146   6.092   0.201 -0.3975  0.9587 -0.4018
15140TIP3   OH266834   6.414   3.128   2.465  0.5236  0.1381 -0.2986
15140TIP3    H166835   6.389   3.202   2.521 -0.6744 -0.5198  0.0813
15140TIP3    H266836   6.509   3.123   2.473  0.3435 -2.4679  5.2198
15141TIP3   OH266837   4.921   3.206   4.908 -0.3489 -0.0421 -0.2401
15141TIP3    H166838   4.997   3.261   4.891  0.8862 -1.3598  0.8045
15141TIP3    H266839   4.879   3.246   4.985 -0.0387  0.0114 -0.0985
15142TIP3   OH266840   2.875   6.966   2.495  0.1462 -0.5210 -0.0991
15142TIP3    H166841   2.956   6.917   2.501  0.1935 -0.4372 -0.0548
15142TIP3    H266842   2.887   7.023   2.419 -0.2271 -1.1626 -0.6607
15143TIP3   OH266843   3.875   4.877   5.222 -0.9440  0.0375 -0.3366
15143TIP3    H166844   3.857   4.865   5.129  0.0384  1.5218 -0.7495
15143TIP3    H266845   3.939   4.809   5.244 -2.8710 -1.8430 -0.1184
15144TIP3   OH266846   0.455   2.339   3.337  0.1777  0.3115 -0.3466
15144TIP3    H166847   0.436   2.246   3.324 -0.6715  0.4478 -0.1718
15144TIP3    H266848   0.528   2.357   3.279  0.4290 -0.4958 -0.2940
15145TIP3   OH266849   5.351   0.284   5.710 -0.8024 -0.0984 -0.4700
15145TIP3    H166850   5.410   0.246   5.645 -0.4556  0.9054 -0.7721
15145TIP3    H266851   5.267   0.291   5.665 -1.1813 -1.5476 -0.0334
15146TIP3   OH266852   0.815   5.318   5.692  0.1362  0.5461 -0.3858
15146TIP3    H166853   0.776   5.406   5.695  0.5280  0.8286 -2.1714
15146TIP3    H266854   0.892   5.328   5.635  0.6397 -0.7950  0.0224
15147TIP3   OH266855   4.388   4.217   0.156 -0.0717  0.1927  0.5340
15147TIP3    H166856   4.371   4.311   0.151  1.2525  0.5186  1.5289
15147TIP3    H266857   4.466   4.210   0.211 -0.8856 -1.5729  1.5596
15148TIP3   OH266858   3.437   0.726  15.237  0.1385 -0.3778 -0.8843
15148TIP3    H166859   3.417   0.641  15.276  0.1372  0.4460  0.9803
15148TIP3    H266860   3.351   0.765  15.220  0.0706  0.7175  1.6520
15149TIP3   OH266861   4.122   2.246  14.054 -0.0684  0.2544 -0.9345
15149TIP3    H166862   4.198   2.302  14.037 -1.8161  2.6190 -1.4819
15149TIP3    H266863   4.106   2.255  14.147 -0.1614  0.4113 -0.9650
15150TIP3   OH266864   0.792   6.856   3.928  0.1558  0.6519 -0.2395
15150TIP3    H166865   0.854   6.789   3.956 -1.9917 -1.2042  0.3688
15150TIP3    H266866   0.785   6.844   3.833 -0.2086 -0.0173 -0.1365
15151TIP3   OH266867   5.664   1.133   3.568  0.0760 -0.1711 -0.4753
15151TIP3    H166868   5.692   1.045   3.595 -1.5762 -0.2746  1.1618
15151TIP3    H266869   5.705   1.192   3.631  0.8904  0.2072 -1.3511
15152TIP3   OH266870   2.790   0.634  11.313  0.8470 -0.1264  0.4367
15152TIP3    H166871   2.815   0.722  11.342  0.3296 -0.2976  1.4322
15152TIP3    H266872   2.722   0.649  11.248  0.1727  0.2026  1.1947
15153TIP3   OH266873   6.509   3.942  13.634  0.0878  0.2881 -0.3190
15153TIP3    H166874   6.576   3.882  13.600 -0.9738 -0.8220 -0.5543
15153TIP3    H266875   6.450   3.885  13.683  0.2980  1.5177  1.4463
15154TIP3   OH266876   2.172   5.793   5.517 -0.7979 -0.0438 -0.3025
15154TIP3    H166877   2.077   5.790   5.504 -1.0693  0.4388  1.4195
15154TIP3    H266878   2.203   5.854   5.450 -1.5841 -0.7817 -1.3746
15155TIP3   OH266879   4.752   5.483   1.365 -0.0838  0.1475  0.7477
15155TIP3    H166880   4.808   5.420   1.319  0.7225  0.8509  0.7505
15155TIP3    H266881   4.732   5.440   1.448  0.0303 -0.3140  0.5455
15156TIP3   OH266882   0.425   3.380   5.348 -0.6634  0.3507  0.6343
15156TIP3    H166883   0.501   3.396   5.404 -1.9169  2.1263  1.9285
15156TIP3    H266884   0.377   3.310   5.393 -0.4059  0.0458  0.4394
15157TIP3   OH266885   5.703   5.246   3.797  0.3214 -0.2337 -0.3441
15157TIP3    H166886   5.785   5.249   3.747 -0.6585 -2.9550 -2.3483
15157TIP3    H266887   5.636   5.226   3.732 -1.4851 -1.0432  1.6530
15158TIP3   OH266888   6.500   2.762   4.144  0.8711  0.3422 -0.2172
15158TIP3    H166889   6.512   2.701   4.217 -0.9855 -0.2937 -0.3855
15158TIP3    H266890   6.481   2.846   4.185  2.3948  0.6082  0.0101
15159TIP3   OH266891   1.155   6.733   3.120 -0.3658 -0.1928  0.2237
15159TIP3    H166892   1.062   6.738   3.142  0.2033  2.1137  2.7273
15159TIP3    H266893   1.172   6.812   3.068  0.5176  0.5704  1.5936
15160TIP3   OH266894   6.839   0.123   2.592  1.0119  0.2491 -0.0091
15160TIP3    H166895   6.889   0.204   2.590  0.9956  0.3006  1.3027
15160TIP3    H266896   6.748   0.151   2.605  1.0771  0.0106  1.0312
15161TIP3   OH266897   2.982   2.797  13.428  0.1498 -0.3065 -0.4269
15161TIP3    H166898   2.947   2.873  13.381 -0.1603 -0.1371  0.0824
15161TIP3    H266899   2.909   2.736  13.435  0.5009 -0.8398 -1.1993
15162TIP3   OH266900   3.131   6.891   2.429  0.4293 -0.2040 -0.1591
15162TIP3    H166901   3.168   6.915   2.344  2.0868 -0.5519  0.4275
15162TIP3    H266902   3.138   6.795   2.432 -0.7794 -0.3108 -0.1212
15163TIP3   OH266903   2.202   4.608  11.950  0.1323 -0.3607  0.1911
15163TIP3    H166904   2.110   4.610  11.977  0.2055 -1.5464  0.6052
15163TIP3    H266905   2.250   4.627  12.030  0.2535  0.1346  0.0009
15164TIP3   OH266906   6.956   1.874   3.515 -0.9558 -0.6878 -0.3444
15164TIP3    H166907   6.945   1.891   3.608  0.5678  0.3297 -0.3175
15164TIP3    H266908   6.990   1.956   3.479 -1.0701 -1.2087 -1.7152
15165TIP3   OH266909   6.742   2.950   1.294  0.4974 -0.0568 -0.0710
15165TIP3    H166910   6.732   3.044   1.279  0.8337  0.2059  1.2374
15165TIP3    H266911   6.661   2.911   1.261 -0.3600  0.8785  0.8597
15166TIP3   OH266912   4.412   0.934   5.143  0.1587  0.3808  0.4509
15166TIP3    H166913   4.332   0.920   5.194 -0.2123  0.8482  0.0073
15166TIP3    H266914   4.456   1.007   5.188 -0.0445  0.6280  0.2507
15167TIP3   OH266915   6.015   3.338  12.028 -0.2243  0.4358 -0.5651
15167TIP3    H166916   6.018   3.306  11.938 -0.2557 -1.3055  0.0033
15167TIP3    H266917   5.937   3.393  12.031 -2.9769 -3.0726 -0.5932
15168TIP3   OH266918   6.214   2.898   2.232  0.1341 -0.2269  0.2817
15168TIP3    H166919   6.237   2.990   2.216 -0.3728 -0.1861 -0.2804
15168TIP3    H266920   6.216   2.858   2.145  0.5679 -0.8023  0.5508
15169TIP3   OH266921   6.457   2.968  14.539 -0.8886  0.3553  0.5034
15169TIP3    H166922   6.368   2.999  14.555 -0.7841  0.8764  0.1104
15169TIP3    H266923   6.510   3.015  14.603 -0.6233  1.6088 -0.5948
15170TIP3   OH266924   5.867   2.263   2.517  0.0722 -0.4366 -0.1043
15170TIP3    H166925   5.874   2.358   2.530  0.8160 -0.6278  1.0071
15170TIP3    H266926   5.773   2.248   2.507 -0.0446  0.4307 -0.4558
15171TIP3   OH266927   2.582   1.907   5.413  0.1256  0.0197  0.2242
15171TIP3    H166928   2.633   1.858   5.478 -1.1552 -1.3374  0.2616
15171TIP3    H266929   2.497   1.920   5.454 -1.0225 -1.6764 -1.4632
15172TIP3   OH266930   6.303   3.785   5.393  0.6546 -0.0297 -0.0137
15172TIP3    H166931   6.285   3.876   5.370 -1.2721  0.0915  1.6812
15172TIP3    H266932   6.379   3.790   5.450 -1.7599  1.1646  3.4749
15173TIP3   OH266933   4.280   4.473  11.022 -0.4024  0.5446 -0.3275
15173TIP3    H166934   4.315   4.395  11.065  2.0838  2.2051  0.9181
15173TIP3    H266935   4.355   4.511  10.977 -1.4218  2.4428 -0.5237
15174TIP3   OH266936   1.888   3.719   3.881  0.2355  0.1290  0.2697
15174TIP3    H166937   1.934   3.758   3.807 -2.0284  2.0410 -0.2738
15174TIP3    H266938   1.868   3.794   3.938 -0.4034 -0.9152  1.4735
15175TIP3   OH266939   3.171   6.376   9.781 -0.0243 -0.3174  0.2133
15175TIP3    H166940   3.223   6.350   9.857 -0.0534 -1.7000 -0.2141
15175TIP3    H266941   3.202   6.320   9.710 -0.0357  0.9043 -0.8074
15176TIP3   OH266942   0.755   2.817   3.795 -0.0176 -0.5805  0.2628
15176TIP3    H166943   0.782   2.818   3.703  0.1491 -0.9412  0.3040
15176TIP3    H266944   0.664   2.787   3.793 -0.2177  0.0190  0.1709
15177TIP3   OH266945   4.063   0.033  10.291  0.0918 -0.5014 -0.4254
15177TIP3    H166946   4.098   0.122  10.287 -2.4786  0.6730  1.0399
15177TIP3    H266947   4.102  -0.004  10.371  2.4609 -1.3979 -1.8858
15178TIP3   OH266948   6.962   0.366  13.732  0.2357  0.7853  0.2247
15178TIP3    H166949   6.937   0.411  13.651  0.5802 -0.1716 -0.4323
15178TIP3    H266950   6.889   0.309  13.752  1.3639 -1.2542 -1.1361
15179TIP3   OH266951   4.974   5.584  10.486  0.8002  0.8107  0.5975
15179TIP3    H166952   4.892   5.570  10.440  0.2068  0.6209  1.6642
15179TIP3    H266953   5.018   5.654  10.438  0.8888 -0.3567 -1.0903
15180TIP3   OH266954   5.477   5.028   4.379 -0.3780 -0.4718 -0.2955
15180TIP3    H166955   5.467   5.122   4.394  1.1254 -0.5473  1.5542
15180TIP3    H266956   5.570   5.017   4.360 -0.6230 -1.5447 -0.9574
15181TIP3   OH266957   3.837   3.888   3.621 -0.4589  0.5040  0.2576
15181TIP3    H166958   3.865   3.849   3.704 -0.2482  0.4651  0.1686
15181TIP3    H266959   3.854   3.820   3.556 -0.7801  0.4726  0.2048
15182TIP3   OH266960   1.933   3.018  13.712  0.2100  0.1158  0.3233
15182TIP3    H166961   2.002   3.054  13.769  0.3469 -0.8738  0.8052
15182TIP3    H266962   1.970   3.023  13.624  0.6398  0.1996  0.5034
15183TIP3   OH266963   6.855   4.540   4.253 -0.3282  0.1068  0.7222
15183TIP3    H166964   6.793   4.603   4.289 -0.2904 -0.8199  2.5108
15183TIP3    H266965   6.831   4.532   4.161 -3.4538 -0.8597  1.5106
15184TIP3   OH266966   5.144   2.116   3.093  0.2603  0.0041 -0.2047
15184TIP3    H166967   5.189   2.099   3.175 -1.1047 -0.9517  0.3856
15184TIP3    H266968   5.067   2.168   3.117 -0.3657 -0.6073 -0.7952
15185TIP3   OH266969   3.866   6.031  15.136 -0.1359  0.2307  0.0660
15185TIP3    H166970   3.901   6.109  15.179 -0.6940  0.6985 -0.3038
15185TIP3    H266971   3.939   5.970  15.133  0.8323  1.3747 -1.1733
15186TIP3   OH266972   5.363   1.773   2.848  0.1244 -0.9326 -0.1800
15186TIP3    H166973   5.277   1.801   2.817  0.6528  1.9417  0.7222
15186TIP3    H266974   5.424   1.795   2.778  0.4139 -0.9968  0.0456
15187TIP3   OH266975   0.514   5.308   6.291  0.4072  0.1840 -0.7990
15187TIP3    H166976   0.574   5.346   6.354  0.9190  0.0696 -1.2062
15187TIP3    H266977   0.450   5.376   6.273  1.2777  0.8433 -1.4765
15188TIP3   OH266978   0.445   4.943   0.437  0.2641  0.0431 -0.0105
15188TIP3    H166979   0.438   5.007   0.507  0.3806  1.3320 -1.1317
15188TIP3    H266980   0.409   4.987   0.360  1.6591 -0.7109 -1.1465
15189TIP3   OH266981   1.796   1.824   5.341 -0.6222  0.1479 -0.7584
15189TIP3    H166982   1.866   1.765   5.368 -1.1135  0.7471  2.0909
15189TIP3    H266983   1.799   1.821   5.245  2.1753 -1.1198 -0.7492
15190TIP3   OH266984   1.119   5.289  13.944 -0.0419  0.1149  0.2579
15190TIP3    H166985   1.052   5.225  13.969 -0.0747  0.2110  0.4224
15190TIP3    H266986   1.120   5.288  13.849  0.0089 -0.1833  0.2614
15191TIP3   OH266987   1.249   2.503  12.647  0.0356  0.2981 -0.2119
15191TIP3    H166988   1.198   2.554  12.710 -0.3040 -0.7943  0.4333
15191TIP3    H266989   1.287   2.568  12.588 -2.4118  1.1406 -0.9590
15192TIP3   OH266990   2.008   5.896   2.871 -0.0660 -0.8718 -0.4641
15192TIP3    H166991   1.937   5.917   2.932 -0.8663  0.1963 -1.7071
15192TIP3    H266992   2.086   5.889   2.926 -0.7213  0.3320  0.6693
15193TIP3   OH266993   2.122   2.390   4.216 -0.5845 -0.0895 -0.0323
15193TIP3    H166994   2.144   2.411   4.307 -0.6839 -0.1621  0.0085
15193TIP3    H266995   2.031   2.417   4.207 -0.2285  1.0336 -0.4494
15194TIP3   OH266996   5.353   1.080   5.688 -0.3076  0.1534 -0.3889
15194TIP3    H166997   5.425   1.083   5.626  0.1504 -0.3834  0.1087
15194TIP3    H266998   5.381   1.136   5.760  0.5751 -1.7130  0.7934
15195TIP3   OH266999   4.046   5.681   0.760 -0.5995  0.4409  0.2318
15195TIP3    H167000   3.989   5.677   0.683 -1.0658  0.2858  0.5779
15195TIP3    H267001   4.127   5.722   0.729 -0.5570 -0.1560 -0.4800
15196TIP3   OH267002   6.685   5.072   3.343  0.0933 -0.0332 -0.2936
15196TIP3    H167003   6.645   5.097   3.426 -1.6464  0.1256 -1.1434
15196TIP3    H267004   6.664   4.979   3.333  0.9548 -0.2452 -0.2133
15197TIP3   OH267005   0.192   4.153   2.598 -0.2304 -0.2672  0.0188
15197TIP3    H167006   0.199   4.198   2.682 -0.4941  0.5784 -0.3970
15197TIP3    H267007   0.101   4.169   2.570 -0.1912 -0.6726 -0.3525
15198TIP3   OH267008   4.090   1.600   1.843  0.2404  0.4266  0.8600
15198TIP3    H167009   4.032   1.649   1.785  0.7591 -0.1063 -0.1349
15198TIP3    H267010   4.171   1.651   1.846  0.8551 -0.4068 -0.3380
15199TIP3   OH267011   4.919   3.903   0.483  0.4187 -0.4405 -0.1488
15199TIP3    H167012   4.980   3.860   0.543  1.6129  0.0938 -0.9504
15199TIP3    H267013   4.941   3.996   0.490 -0.0336 -0.2843 -0.7617
15200TIP3   OH267014   2.908   1.819   1.963  0.2623 -0.0921  0.0982
15200TIP3    H167015   2.867   1.802   1.878  0.2257  1.8330 -0.3114
15200TIP3    H267016   2.837   1.853   2.018  0.7064  0.6355  0.2412
15201TIP3   OH267017   2.406   4.732   2.464 -0.1427  0.3683 -0.3455
15201TIP3    H167018   2.474   4.730   2.530 -0.3141  0.4348 -0.1659
15201TIP3    H267019   2.423   4.655   2.409 -1.1615 -0.8376  0.9432
15202TIP3   OH267020   1.147   5.778  11.754 -0.1242  0.6071  0.2880
15202TIP3    H167021   1.200   5.857  11.768 -1.0167  1.3054 -0.1308
15202TIP3    H267022   1.067   5.794  11.804 -0.0105 -0.3635  0.7868
15203TIP3   OH267023   2.899   3.116   1.869 -0.5469 -0.1599 -0.0072
15203TIP3    H167024   2.815   3.085   1.902 -1.0639  1.7766  0.6308
15203TIP3    H267025   2.880   3.147   1.780 -0.7335  1.0924  0.4522
15204TIP3   OH267026   0.258   3.342  10.357 -0.1977  0.3067  0.0795
15204TIP3    H167027   0.182   3.394  10.381  0.0151  0.4247  0.4964
15204TIP3    H267028   0.273   3.364  10.265 -1.8792 -1.2276 -0.6274
15205TIP3   OH267029   4.645   3.840   0.530 -0.0220 -0.3890 -0.8529
15205TIP3    H167030   4.740   3.835   0.522  0.4640 -0.3106  2.9712
15205TIP3    H267031   4.630   3.884   0.614 -3.4422 -0.6952 -1.1520
15206TIP3   OH267032   0.390   0.410   4.938 -0.0548 -0.6786 -0.3051
15206TIP3    H167033   0.325   0.395   5.007  1.0265 -0.6960  0.7529
15206TIP3    H267034   0.472   0.419   4.985  0.3989  1.6589 -1.4182
15207TIP3   OH267035   3.471   3.738   1.568  0.1582  0.0186  0.1482
15207TIP3    H167036   3.482   3.802   1.638  0.1643  0.6518 -0.4220
15207TIP3    H267037   3.440   3.659   1.613  2.3219 -0.3118  1.1563
15208TIP3   OH267038   4.729   1.964  13.695  0.1758 -0.7072  0.5989
15208TIP3    H167039   4.678   2.012  13.630 -0.6354  0.1610  1.8266
15208TIP3    H267040   4.667   1.948  13.767  0.9674 -1.8805  1.0497
15209TIP3   OH267041   3.510   4.713   4.262  0.6549  0.1408 -0.1202
15209TIP3    H167042   3.583   4.733   4.320 -0.0464 -1.8667  1.5740
15209TIP3    H267043   3.495   4.619   4.272 -1.5756  0.3068 -1.0997
15210TIP3   OH267044   2.721   2.269  11.618  0.3680 -0.6026 -0.5166
15210TIP3    H167045   2.802   2.295  11.662 -0.1537 -0.9376  0.7074
15210TIP3    H267046   2.687   2.349  11.580  0.6017 -0.1968  0.1114
15211TIP3   OH267047   5.250   6.823   3.177  0.1259  0.1435 -0.9540
15211TIP3    H167048   5.260   6.901   3.121 -1.6644 -0.0060 -1.5339
15211TIP3    H267049   5.306   6.841   3.253 -0.0281  1.8801 -1.2109
15212TIP3   OH267050   2.123   3.667  10.974  0.3746 -0.1477  0.6309
15212TIP3    H167051   2.043   3.678  11.026 -0.3744 -0.0118 -0.5131
15212TIP3    H267052   2.141   3.573  10.977  1.2200  0.0306  2.3678
15213TIP3   OH267053   0.638   2.222  15.364  0.3406  0.3192 -0.0860
15213TIP3    H167054   0.655   2.146  15.308 -0.5936 -0.2234  0.3298
15213TIP3    H267055   0.564   2.194  15.419  0.3444  1.3378  0.4523
15214TIP3   OH267056   0.221   2.379   2.952 -0.4340  0.2564  0.9168
15214TIP3    H167057   0.249   2.298   2.995 -1.7942  0.1042  1.5659
15214TIP3    H267058   0.301   2.432   2.948  0.3034 -0.7822  1.2234
15215TIP3   OH267059   6.462   6.716   5.255 -0.5056  0.2210 -0.6708
15215TIP3    H167060   6.558   6.724   5.261 -0.3517 -0.2434 -2.1549
15215TIP3    H267061   6.448   6.628   5.219 -1.3921  0.9729 -2.2790
15216TIP3   OH267062   5.726   4.357   2.133  0.1505  0.2362 -0.0001
15216TIP3    H167063   5.721   4.268   2.098 -2.3829  0.6962 -1.0501
15216TIP3    H267064   5.819   4.378   2.133  0.5742 -1.2113 -2.9108
15217TIP3   OH267065   5.463   2.122   3.139  0.2287 -0.1639 -0.1105
15217TIP3    H167066   5.426   2.035   3.122 -1.3161  0.4410 -0.0021
15217TIP3    H267067   5.452   2.135   3.234  0.3868  0.1724 -0.1355
15218TIP3   OH267068   4.242   5.453   4.907  0.0867  0.2544  0.3752
15218TIP3    H167069   4.281   5.453   4.820 -0.2903 -0.7462  0.1909
15218TIP3    H267070   4.286   5.380   4.952 -3.0201 -2.4507 -0.5695
15219TIP3   OH267071   4.706   1.219   3.791  0.3989 -0.1222  0.1469
15219TIP3    H167072   4.719   1.201   3.884  2.4074 -0.7406 -0.2079
15219TIP3    H267073   4.791   1.252   3.760 -0.5494  1.1610 -1.2408
15220TIP3   OH267074   5.160   5.013  12.551 -0.2565 -0.4730 -0.2814
15220TIP3    H167075   5.182   4.945  12.614  0.5862  0.8924  0.9477
15220TIP3    H267076   5.174   4.972  12.465  3.5708 -0.8882  0.3772
15221TIP3   OH267077   5.436   5.205   2.485 -0.1378  0.4188 -0.2772
15221TIP3    H167078   5.497   5.168   2.548  2.7886  1.7588 -2.1251
15221TIP3    H267079   5.457   5.299   2.483 -2.0157  0.8696 -1.2778
15222TIP3   OH267080   2.812   1.822   0.384 -0.3066  0.1701  0.2455
15222TIP3    H167081   2.790   1.738   0.424 -0.4356  0.0246 -0.1203
15222TIP3    H267082   2.804   1.886   0.455 -0.8338 -0.0367  0.3741
15223TIP3   OH267083   5.493   0.943  15.455 -0.1910  0.1396 -0.1041
15223TIP3    H167084   5.573   0.968  15.502 -0.2298  1.9166 -0.9073
15223TIP3    H267085   5.502   0.849  15.441  1.7800  0.3057 -0.2093
15224TIP3   OH267086   2.966   1.919   3.956 -0.2020 -0.3735  0.0342
15224TIP3    H167087   2.935   2.008   3.974  1.8032  0.5505 -0.7625
15224TIP3    H267088   2.963   1.912   3.861  1.6207 -0.3399 -0.0607
15225TIP3   OH267089   5.011   4.834   1.540  0.4277 -0.5171 -0.1789
15225TIP3    H167090   4.916   4.845   1.536  0.3073 -1.5807 -0.3875
15225TIP3    H267091   5.043   4.871   1.457  0.2808  0.5552  0.2303
15226TIP3   OH267092   2.424   6.815   4.627  0.1385 -0.2054 -0.2497
15226TIP3    H167093   2.438   6.725   4.657  0.5832  0.3427  1.3094
15226TIP3    H267094   2.345   6.810   4.573  0.9075 -1.7333 -1.3144
15227TIP3   OH267095   6.973   0.600  15.424  0.2715  0.0089 -0.0487
15227TIP3    H167096   6.965   0.609  15.519  1.1966 -1.7908  0.2447
15227TIP3    H267097   6.900   0.544  15.399  2.4881 -3.3657  0.3653
15228TIP3   OH267098   7.103   4.480   4.379  0.0264 -0.1033 -0.0150
15228TIP3    H167099   7.016   4.521   4.371 -0.9704 -1.7538  1.5744
15228TIP3    H267100   7.111   4.426   4.301 -0.3867  0.0556 -0.1729
15229TIP3   OH267101   3.538   0.499  11.907 -0.0414 -0.0312 -0.0071
15229TIP3    H167102   3.479   0.570  11.935  0.3382  1.1268 -1.9062
15229TIP3    H267103   3.626   0.537  11.912  0.0352  0.5030 -3.0478
15230TIP3   OH267104   5.722   6.920   4.430 -0.2935  0.5690 -0.1169
15230TIP3    H167105   5.631   6.944   4.450  0.0619  2.4360 -0.6214
15230TIP3    H267106   5.724   6.915   4.334 -0.1058 -0.6280 -0.0758
15231TIP3   OH267107   5.694   0.147   2.161 -0.5806 -0.1443 -0.1895
15231TIP3    H167108   5.687   0.053   2.173  0.5503 -0.0480  1.6645
15231TIP3    H267109   5.679   0.184   2.248 -0.2324  1.3349 -0.7197
15232TIP3   OH267110   2.226   7.073  14.864  0.3860 -0.0783 -0.4382
15232TIP3    H167111   2.213   7.032  14.778  0.6647  1.7174 -1.3849
15232TIP3    H267112   2.250   7.163  14.844 -2.2672  1.2086  1.5680
15233TIP3   OH267113   3.215   5.310  13.724  0.3252 -0.4689 -0.4166
15233TIP3    H167114   3.160   5.234  13.741 -1.5489  0.6098 -1.3139
15233TIP3    H267115   3.159   5.369  13.674  1.7182  1.5041  0.2408
15234TIP3   OH267116   1.420   4.884   3.778 -0.7921  0.0092 -0.1989
15234TIP3    H167117   1.501   4.837   3.756 -0.0590  1.1841 -0.1507
15234TIP3    H267118   1.451   4.965   3.819 -2.0172  0.3459  0.0964
15235TIP3   OH267119   2.275   5.522   4.337  0.3226  0.8233 -0.6234
15235TIP3    H167120   2.254   5.429   4.343  0.3315  0.8643  0.1368
15235TIP3    H267121   2.242   5.560   4.419  1.6420  1.2233 -0.2498
15236TIP3   OH267122   3.952   6.807   1.888 -0.3867 -0.1061  0.2444
15236TIP3    H167123   3.915   6.739   1.832  2.5546 -0.2524 -1.7840
15236TIP3    H267124   3.980   6.875   1.827  0.5999  0.9665  1.8200
15237TIP3   OH267125   4.663   2.346   5.699  0.5655  0.3946 -0.0451
15237TIP3    H167126   4.739   2.403   5.709 -0.9892  2.3573  1.0205
15237TIP3    H267127   4.589   2.405   5.689 -1.4426 -1.3103  3.2168
15238TIP3   OH267128   3.403   0.252   5.055 -0.1074 -0.1331  0.0164
15238TIP3    H167129   3.439   0.332   5.016  0.4461 -0.2717  0.2283
15238TIP3    H267130   3.471   0.222   5.115 -1.9244  1.4948  3.1559
15239TIP3   OH267131   5.587   7.111   9.395  0.3326  0.3589  0.8646
15239TIP3    H167132   5.562   7.134   9.305 -1.2650 -0.4394  1.0631
15239TIP3    H267133   5.681   7.093   9.390  0.1818 -0.1332 -0.7679
15240TIP3   OH267134   6.601   4.156   4.647  0.3325  0.0363  0.6320
15240TIP3    H167135   6.582   4.070   4.610  2.8631  0.0898 -1.0132
15240TIP3    H267136   6.671   4.191   4.592 -0.4139  3.0492  1.4244
15241TIP3   OH267137   5.272   6.162   4.150  0.4607  0.0451  0.5327
15241TIP3    H167138   5.274   6.108   4.229 -0.9815  0.7379  1.0634
15241TIP3    H267139   5.264   6.252   4.182 -0.0520  0.3444 -0.3996
15242TIP3   OH267140   3.259   4.902  15.184 -0.6631  0.0749 -0.2107
15242TIP3    H167141   3.246   4.949  15.102  0.5289  0.9987  0.0980
15242TIP3    H267142   3.190   4.934  15.242  0.2730  1.6504  0.0699
15243TIP3   OH267143   2.148   3.458   5.023 -0.4847  0.1663  0.1835
15243TIP3    H167144   2.084   3.486   5.089 -0.5814  2.4978 -0.7972
15243TIP3    H267145   2.207   3.400   5.071 -0.7451  1.5081  2.2671
15244TIP3   OH267146   2.777   4.613   5.681  0.4140 -0.1928 -0.5737
15244TIP3    H167147   2.850   4.614   5.620  1.2841  1.4238  0.4259
15244TIP3    H267148   2.770   4.703   5.713  0.7788 -1.1229  2.5267
15245TIP3   OH267149   4.477   3.368   2.752  0.4539  0.0691  0.2828
15245TIP3    H167150   4.569   3.341   2.754  0.6488  0.7289  0.1110
15245TIP3    H267151   4.448   3.360   2.843  1.5391  2.7906  0.9570
15246TIP3   OH267152   1.949   0.016   4.387  0.0048  0.1074 -0.4768
15246TIP3    H167153   1.908  -0.043   4.324  1.0598 -1.3279  0.1357
15246TIP3    H267154   2.029  -0.029   4.414  0.5097  1.5305  0.5122
15247TIP3   OH267155   2.344   2.294   5.048  0.2238  0.1422 -0.4480
15247TIP3    H167156   2.333   2.215   4.995 -0.4691  0.2587 -0.4891
15247TIP3    H267157   2.272   2.351   5.022  0.0922  0.3508  0.3501
15248TIP3   OH267158   0.289   2.211  12.452 -0.3858  0.2600  0.5485
15248TIP3    H167159   0.205   2.248  12.423 -1.0056 -1.8196 -0.5296
15248TIP3    H267160   0.347   2.224  12.377 -0.2015  0.2602  0.6926
15249TIP3   OH267161   5.590   6.743   3.008  0.7860 -0.2610 -0.9903
15249TIP3    H167162   5.683   6.767   3.012  0.3781  1.2582  0.5425
15249TIP3    H267163   5.566   6.726   3.099 -0.3193 -1.2029 -1.4351
15250TIP3   OH267164   2.173   4.841   2.587 -0.0329 -0.1994  0.0599
15250TIP3    H167165   2.250   4.802   2.546 -0.3132 -1.3736  0.6188
15250TIP3    H267166   2.133   4.894   2.517  1.5015  0.8100 -0.1154
15251TIP3   OH267167   6.832   3.615   0.287  0.2565 -0.1606  0.1957
15251TIP3    H167168   6.798   3.525   0.282 -0.3942  0.1416 -1.1350
15251TIP3    H267169   6.850   3.639   0.197 -1.1042  1.6080  0.3418
15252TIP3   OH267170   6.730   6.590   5.157 -0.0952 -0.2971  0.4454
15252TIP3    H167171   6.750   6.617   5.247  0.7992  0.5725  0.0059
15252TIP3    H267172   6.725   6.673   5.108  1.5217 -0.8433 -0.7114
15253TIP3   OH267173   5.220   0.938  15.472 -0.5923  0.2191 -0.2987
15253TIP3    H167174   5.208   0.969  15.562  0.1251 -1.5475  0.4570
15253TIP3    H267175   5.309   0.963  15.449 -0.3901 -0.2914 -0.0900
15254TIP3   OH267176   6.659   5.432  11.307  0.1382 -0.6013  0.5062
15254TIP3    H167177   6.714   5.365  11.346  0.4408 -0.2606  0.6668
15254TIP3    H267178   6.670   5.421  11.213  1.8070  0.5375  0.5311
15255TIP3   OH267179   3.984   1.324   5.765 -0.8448  0.6405 -0.2277
15255TIP3    H167180   3.964   1.386   5.696 -2.3444  0.2740 -0.1539
15255TIP3    H267181   4.058   1.362   5.812  0.7039  0.5336 -2.4659
15256TIP3   OH267182   1.235   2.460  13.382 -0.1167  0.1955  0.1847
15256TIP3    H167183   1.263   2.373  13.410  1.2053  0.6982  0.4820
15256TIP3    H267184   1.156   2.444  13.330 -0.9553 -1.0138  1.7366
15257TIP3   OH267185   5.016   4.279   3.690 -0.0144  0.1693  0.6785
15257TIP3    H167186   5.034   4.345   3.623  1.2508 -2.3655 -1.6661
15257TIP3    H267187   5.102   4.257   3.726 -0.0363 -1.8370 -0.3344
15258TIP3   OH267188   0.607   3.438   2.898  0.0248 -0.1478  0.5983
15258TIP3    H167189   0.589   3.435   2.804  0.8623 -1.5337  0.4564
15258TIP3    H267190   0.554   3.367   2.934 -0.8736  0.8523  1.3032
15259TIP3   OH267191   1.197   3.256  14.304  0.8526  0.0512  0.5452
15259TIP3    H167192   1.231   3.297  14.225  2.0729 -0.5122  0.7528
15259TIP3    H267193   1.163   3.329  14.356  0.7534  0.5104 -0.1412
15260TIP3   OH267194   3.478   2.196  14.408 -0.8124  0.3231 -0.5741
15260TIP3    H167195   3.452   2.131  14.473  1.6573 -0.8058 -0.6086
15260TIP3    H267196   3.426   2.273  14.428 -2.4450 -1.0375  0.6778
15261TIP3   OH267197   2.881   5.326   5.081 -0.2287  0.0846 -0.3216
15261TIP3    H167198   2.956   5.282   5.121  0.1445  1.9578  1.1698
15261TIP3    H267199   2.918   5.400   5.034 -1.1622  1.8357  1.5489
15262TIP3   OH267200   1.119   0.335   4.677 -0.8107 -0.1670 -0.4763
15262TIP3    H167201   1.031   0.305   4.652 -0.7651 -1.0499  0.3825
15262TIP3    H267202   1.104   0.392   4.752 -0.6953  0.1640 -0.7036
15263TIP3   OH267203   4.022   0.003   5.075  0.0841 -0.2273 -0.0328
15263TIP3    H167204   4.030   0.087   5.030 -1.3556  0.7090  1.3560
15263TIP3    H267205   4.013  -0.061   5.005  1.7646  0.6812 -1.1407
15264TIP3   OH267206   5.394   6.957  14.286  0.5165 -0.1298 -0.2965
15264TIP3    H167207   5.353   6.994  14.208  0.0166  1.7805  0.8023
15264TIP3    H267208   5.323   6.911  14.331  0.8562 -1.4293 -1.0413
15265TIP3   OH267209   1.386   5.713   0.582 -0.6369 -0.2661  0.4717
15265TIP3    H167210   1.325   5.761   0.638 -4.7532 -2.0530 -1.9891
15265TIP3    H267211   1.355   5.622   0.586  3.2698 -1.7845  0.5581
15266TIP3   OH267212   4.092   6.999  11.644 -0.8294  0.3925  0.3308
15266TIP3    H167213   4.018   7.023  11.588 -1.3849 -0.3659  0.7196
15266TIP3    H267214   4.157   6.963  11.583 -0.4210  1.8313 -0.1162
15267TIP3   OH267215   4.947   2.109   2.818  0.5274  0.4850  0.7683
15267TIP3    H167216   4.911   2.118   2.906  0.8429 -0.8301  1.0538
15267TIP3    H267217   5.026   2.163   2.818  0.2009  0.9729  1.0847
15268TIP3   OH267218   4.904   5.860  14.797 -0.4134  0.0547  0.4541
15268TIP3    H167219   4.832   5.853  14.734  0.9337 -0.2097 -1.1091
15268TIP3    H267220   4.975   5.900  14.748  0.6320  0.0134  1.8763
15269TIP3   OH267221   2.065   2.226  12.403  0.2791  0.1666 -0.2370
15269TIP3    H167222   2.075   2.159  12.470  3.3184 -1.0194 -1.6535
15269TIP3    H267223   2.048   2.177  12.322 -1.5817  1.4390 -0.6756
15270TIP3   OH267224   0.154   2.070  15.471  0.4263  0.8544  0.4589
15270TIP3    H167225   0.076   2.031  15.510 -1.0287  1.0889 -1.9810
15270TIP3    H267226   0.130   2.085  15.379  2.8430  2.3324 -0.0329
15271TIP3   OH267227   1.969   2.625  10.542  0.2319  0.3473 -0.2633
15271TIP3    H167228   1.991   2.650  10.632 -0.4596  1.1866 -0.3106
15271TIP3    H267229   1.875   2.643  10.535  0.7418  2.8745 -1.9415
15272TIP3   OH267230   2.268   4.244   2.066  0.0952  0.1866 -0.1036
15272TIP3    H167231   2.337   4.205   2.120 -2.0375 -0.5260  2.3339
15272TIP3    H267232   2.187   4.200   2.095 -1.1980 -0.6427 -4.3670
15273TIP3   OH267233   6.456   3.396   2.559 -0.4795  0.9055  0.4803
15273TIP3    H167234   6.504   3.462   2.609  0.8120  0.6586 -0.3880
15273TIP3    H267235   6.480   3.413   2.468  0.8986 -1.5107  0.3123
15274TIP3   OH267236   3.584   4.129   2.313 -0.2133  0.4728 -0.0545
15274TIP3    H167237   3.497   4.154   2.282 -0.6087  0.9786  1.3804
15274TIP3    H267238   3.628   4.212   2.330  0.2624  0.2144 -0.0209
15275TIP3   OH267239   3.791   3.495  10.342  0.4042  0.0977 -0.4291
15275TIP3    H167240   3.882   3.494  10.372  1.0976  0.2263 -2.3970
15275TIP3    H267241   3.791   3.441  10.263 -0.7417  1.8367 -1.6994
15276TIP3   OH267242   5.777   3.091   3.086 -0.6307 -0.4598 -0.0022
15276TIP3    H167243   5.726   3.069   3.164 -1.4171 -3.2418 -1.1829
15276TIP3    H267244   5.712   3.109   3.019 -0.0576 -1.3830 -0.8376
15277TIP3   OH267245   6.589   0.552   3.704 -0.5310  0.0558  0.3198
15277TIP3    H167246   6.522   0.516   3.645 -0.4709 -0.9920  0.8813
15277TIP3    H267247   6.595   0.644   3.678 -3.4800  0.6656  1.4330
15278TIP3   OH267248   2.420   7.157   4.248 -1.0937  0.4025 -0.2527
15278TIP3    H167249   2.370   7.147   4.167 -0.5426  0.6997 -0.6413
15278TIP3    H267250   2.503   7.195   4.219 -1.0594  0.9187  0.5124
15279TIP3   OH267251   2.806   1.134  11.493  0.4306  0.0025 -0.3354
15279TIP3    H167252   2.879   1.185  11.527  1.8958 -0.9676 -1.8402
15279TIP3    H267253   2.770   1.089  11.569  1.6275  0.2378  0.3964
15280TIP3   OH267254   6.254   5.466   5.346 -0.2241 -0.2511 -0.1113
15280TIP3    H167255   6.188   5.415   5.299 -1.0412 -0.4528  1.1802
15280TIP3    H267256   6.294   5.403   5.407  0.8196 -0.0103 -0.5226
15281TIP3   OH267257   7.030   5.044   3.859  0.1598 -0.0553 -0.1170
15281TIP3    H167258   7.067   5.107   3.797 -0.3287  0.0101 -0.3386
15281TIP3    H267259   6.937   5.066   3.864  0.2809  0.2783  1.0405
15282TIP3   OH267260   5.824   5.159   1.365 -0.6639  0.4718  0.3797
15282TIP3    H167261   5.811   5.118   1.280 -0.9070  0.2643  0.5165
15282TIP3    H267262   5.916   5.186   1.365 -0.9212  1.3972 -0.3443
15283TIP3   OH267263   4.161   1.403   4.493  0.0811 -0.6300  0.5365
15283TIP3    H167264   4.179   1.312   4.469  2.6580 -0.0209 -0.1078
15283TIP3    H267265   4.125   1.398   4.582 -1.5069 -2.3387 -0.1301
15284TIP3   OH267266   7.061   1.816   1.497  0.0997  0.1658 -0.0306
15284TIP3    H167267   6.978   1.819   1.448 -0.2524  2.1058  0.6132
15284TIP3    H267268   7.128   1.834   1.431 -0.1141  0.0655 -0.2783
15285TIP3   OH267269   0.318   6.113   2.382  0.4302 -0.3046  0.4858
15285TIP3    H167270   0.344   6.199   2.413 -2.5537  0.9943 -0.2497
15285TIP3    H267271   0.293   6.066   2.462  0.7353 -0.0008  0.7655
15286TIP3   OH267272   0.491   0.017   3.412 -0.8096  0.4355  0.0632
15286TIP3    H167273   0.447  -0.012   3.492 -1.2450 -0.2400 -0.4053
15286TIP3    H267274   0.584   0.021   3.435 -1.0178  1.0519  0.8307
15287TIP3   OH267275   6.989   0.704   1.265 -0.7774 -0.0255 -0.4513
15287TIP3    H167276   7.037   0.641   1.319 -1.7911 -0.2507  0.2316
15287TIP3    H267277   7.027   0.695   1.178 -0.5711 -1.2519 -0.2619
15288TIP3   OH267278   0.522   0.453   0.899 -0.1048  0.3025 -0.1774
15288TIP3    H167279   0.444   0.458   0.842 -0.3377 -3.8191 -0.5014
15288TIP3    H267280   0.486   0.442   0.987  0.1794  0.9658  0.0246
15289TIP3   OH267281   2.596   3.202   5.244 -0.4492 -0.4387 -0.2589
15289TIP3    H167282   2.571   3.291   5.266 -0.3620 -0.1526 -1.2676
15289TIP3    H267283   2.574   3.150   5.322  4.1155  1.1713  2.5214
15290TIP3   OH267284   4.094   2.683   2.836 -0.2989 -0.0393 -0.3469
15290TIP3    H167285   4.053   2.681   2.750 -0.5248 -1.3805 -0.2216
15290TIP3    H267286   4.182   2.649   2.822  0.0625  0.8271 -0.2375
15291TIP3   OH267287   6.434   5.853  12.428 -0.0958 -1.2861 -0.6497
15291TIP3    H167288   6.463   5.938  12.458 -0.3035 -0.6819 -2.0569
15291TIP3    H267289   6.444   5.795  12.503 -2.3350  0.4838  1.1301
15292TIP3   OH267290   3.504   1.767  14.240 -0.0356 -0.0086  0.7198
15292TIP3    H167291   3.456   1.847  14.223 -2.2659 -1.2641  0.7874
15292TIP3    H267292   3.463   1.701  14.184  1.5704 -1.1743  0.8442
15293TIP3   OH267293   2.035   3.527  14.589  0.0133  0.3955  0.0803
15293TIP3    H167294   1.993   3.505  14.672  0.3413 -1.6088 -0.2210
15293TIP3    H267295   1.982   3.598  14.553 -0.7165  0.6273  1.5311
15294TIP3   OH267296   4.597   6.107   3.384 -0.1432 -0.0735  0.3604
15294TIP3    H167297   4.630   6.148   3.303 -2.6884 -1.1144 -1.3218
15294TIP3    H267298   4.657   6.034   3.399  0.2960  0.0445 -0.6617
15295TIP3   OH267299   2.594   5.546   3.504 -0.4048 -0.2168  0.0472
15295TIP3    H167300   2.580   5.582   3.591 -1.8407  1.7518 -0.9349
15295TIP3    H267301   2.658   5.475   3.517 -0.3724  0.2101  2.6167
15296TIP3   OH267302   6.766   4.996   6.050 -0.5796 -0.2834  0.1107
15296TIP3    H167303   6.812   5.057   5.992 -0.3137 -0.5688  0.0180
15296TIP3    H267304   6.817   4.915   6.044 -1.4517 -0.8071 -0.4771
15297TIP3   OH267305   0.760   1.553   2.559 -0.5790  0.7129  0.3815
15297TIP3    H167306   0.691   1.492   2.537  0.6274 -0.2009 -1.0987
15297TIP3    H267307   0.750   1.624   2.495  0.3427  0.1384 -0.4397
15298TIP3   OH267308   6.307   3.733   4.118  0.3201 -0.1003  0.3008
15298TIP3    H167309   6.385   3.681   4.101  0.6560  0.5875 -0.2510
15298TIP3    H267310   6.338   3.823   4.127 -0.5416  0.3677 -1.1428
15299TIP3   OH267311   1.609   5.363   3.320 -0.0239  0.2680 -0.0213
15299TIP3    H167312   1.616   5.385   3.227  2.5126  2.7150  0.6041
15299TIP3    H267313   1.696   5.331   3.343 -1.0444 -1.7581  1.2505
15300TIP3   OH267314   2.493   1.647   0.816  0.5078 -0.6637 -0.2540
15300TIP3    H167315   2.459   1.675   0.901 -2.9384 -0.9174 -1.3588
15300TIP3    H267316   2.520   1.729   0.774  2.2283 -0.5361  1.0097
15301TIP3   OH267317   1.321   2.710   3.139  0.6822  0.8346  0.3393
15301TIP3    H167318   1.383   2.671   3.200  1.0519  1.3702  0.3155
15301TIP3    H267319   1.309   2.644   3.070 -0.3793 -0.1242  1.3860
15302TIP3   OH267320   4.411   6.086  12.288  0.6531  0.1885 -0.2599
15302TIP3    H167321   4.371   6.140  12.219 -2.8609 -0.1097  1.2878
15302TIP3    H267322   4.405   5.997  12.255 -1.8072 -0.0512  0.5711
15303TIP3   OH267323   4.679   5.134  14.657  0.0650  0.2914  0.6929
15303TIP3    H167324   4.634   5.170  14.580 -0.6777 -2.9871 -0.5611
15303TIP3    H267325   4.762   5.101  14.623  0.2685 -0.1119  1.5510
15304TIP3   OH267326   1.922   6.084  10.259 -0.4944 -0.1211  0.2242
15304TIP3    H167327   1.932   6.010  10.200 -0.0965  0.9343 -1.0751
15304TIP3    H267328   1.939   6.161  10.205  0.9770  0.8572  1.9341
15305TIP3   OH267329   3.941   6.809   2.263  0.4580  0.3976 -0.4456
15305TIP3    H167330   3.857   6.782   2.225  0.9023 -2.5009  0.3723
15305TIP3    H267331   3.928   6.802   2.357  1.4263  0.5296 -0.2972
15306TIP3   OH267332   4.014   2.425   2.559  0.4868  0.2331  0.3155
15306TIP3    H167333   3.937   2.383   2.598 -0.0832  0.0801 -0.9192
15306TIP3    H267334   4.047   2.361   2.497  1.2315  0.5629  0.3645
15307TIP3   OH267335   2.048   0.187   5.150 -0.7643  0.4443 -0.8780
15307TIP3    H167336   2.128   0.232   5.123 -1.3351  1.2793 -1.2370
15307TIP3    H267337   2.064   0.095   5.131  0.2257  0.5596 -0.6556
15308TIP3   OH267338   6.155   6.741   3.488  0.0903 -0.3563 -0.1900
15308TIP3    H167339   6.157   6.650   3.518  1.2240  0.5729  2.9498
15308TIP3    H267340   6.245   6.759   3.460  0.0968  0.0626  0.0964
15309TIP3   OH267341   5.093   4.733   9.546  0.1759  0.1059 -0.2049
15309TIP3    H167342   5.143   4.808   9.578  1.0586 -0.5034 -0.1220
15309TIP3    H267343   5.019   4.726   9.607 -0.2126  1.2168 -0.5265
15310TIP3   OH267344   6.929   0.479   1.475  0.2200 -0.2224  0.0736
15310TIP3    H167345   6.924   0.446   1.385  2.9382  0.4652 -0.4218
15310TIP3    H267346   6.998   0.428   1.516  0.0160  0.4575  1.3248
15311TIP3   OH267347   1.032   4.137   0.057  0.1134  0.5074 -0.0310
15311TIP3    H167348   1.030   4.081   0.135 -1.6440 -0.4003 -0.6599
15311TIP3    H267349   1.099   4.099   0.001 -0.3611 -0.3872 -0.0125
15312TIP3   OH267350   5.790   4.979   4.357 -0.7950 -0.5663 -0.9831
15312TIP3    H167351   5.880   4.978   4.388 -0.6711 -0.0382 -1.3143
15312TIP3    H267352   5.797   5.004   4.265 -1.3243  0.0441 -0.8598
15313TIP3   OH267353   2.436   5.335   2.200  0.1522 -0.2224 -0.0172
15313TIP3    H167354   2.530   5.346   2.216  0.2186 -1.7164  0.7878
15313TIP3    H267355   2.431   5.301   2.111  0.2686  1.0381 -0.5287
15314TIP3   OH267356   3.365   2.302   5.439 -0.0056 -0.4796  0.8668
15314TIP3    H167357   3.399   2.228   5.490 -0.3314 -1.4873 -0.3039
15314TIP3    H267358   3.374   2.273   5.348  0.1036  1.0508  0.3612
15315TIP3   OH267359   6.474   2.687   3.709 -0.3742  0.7771  0.1363
15315TIP3    H167360   6.413   2.653   3.774 -0.3910 -0.9937 -0.7266
15315TIP3    H267361   6.557   2.642   3.728  0.0149  1.3429 -0.1783
15316TIP3   OH267362   3.508   1.483  12.479 -0.4167 -0.0344 -0.1729
15316TIP3    H167363   3.572   1.539  12.434 -1.2621 -0.6341 -2.2443
15316TIP3    H267364   3.556   1.445  12.552  0.2747  3.1918  1.2608
15317TIP3   OH267365   5.654   1.720   3.861  0.2232  0.2074 -0.1899
15317TIP3    H167366   5.745   1.708   3.889 -0.3552 -0.1089  1.7180
15317TIP3    H267367   5.627   1.634   3.828  0.0896 -0.2061  0.9574
15318TIP3   OH267368   0.542   4.118   1.078  0.0807  0.4353  0.2252
15318TIP3    H167369   0.555   4.123   0.984  0.2406 -0.7979  0.1694
15318TIP3    H267370   0.550   4.025   1.099 -1.4324  0.5033  1.2480
15319TIP3   OH267371   3.203   1.830  14.848 -0.3760 -0.0243  0.1847
15319TIP3    H167372   3.293   1.845  14.875 -0.4652 -0.9808  1.0660
15319TIP3    H267373   3.152   1.834  14.929 -1.3410  1.8678 -0.4629
15320TIP3   OH267374   4.681   6.041   0.065 -0.1537  0.0960  0.5834
15320TIP3    H167375   4.626   5.978   0.113 -2.3341  1.2604 -0.2575
15320TIP3    H267376   4.701   6.109   0.130  1.0583 -0.7075  1.1088
15321TIP3   OH267377   1.303   5.289  14.843 -0.3105 -0.0143 -0.1216
15321TIP3    H167378   1.349   5.216  14.883  0.7990  0.5601 -0.3016
15321TIP3    H267379   1.327   5.365  14.896 -0.4747  0.4120 -0.6482
15322TIP3   OH267380   3.977   6.212  15.328 -0.4797 -0.5384  0.3091
15322TIP3    H167381   4.002   6.263  15.405  0.3692  0.7972 -0.8045
15322TIP3    H267382   4.060   6.186  15.288 -0.8803 -0.1757 -0.8056
15323TIP3   OH267383   0.382   3.258   9.871 -0.2647  0.0691  0.3454
15323TIP3    H167384   0.453   3.297   9.922 -1.2693  0.5949  1.4144
15323TIP3    H267385   0.354   3.328   9.812 -1.8332  0.9574  2.0187
15324TIP3   OH267386   5.958   0.434   4.285 -0.7819  0.3644 -0.4172
15324TIP3    H167387   5.892   0.377   4.324  0.5590 -1.9335 -1.2477
15324TIP3    H267388   6.033   0.428   4.344 -0.3536  0.6149 -0.9239
15325TIP3   OH267389   3.255   2.428   2.279 -0.4685  0.1407  0.0777
15325TIP3    H167390   3.320   2.397   2.216 -0.2963  0.0079  0.3137
15325TIP3    H267391   3.266   2.370   2.355  0.9378  1.7006  1.1564
15326TIP3   OH267392   4.474   4.610   2.772 -0.0398 -0.0767 -0.5266
15326TIP3    H167393   4.480   4.658   2.690 -0.2774 -0.5331 -0.8197
15326TIP3    H267394   4.488   4.675   2.840 -1.1928  0.5656 -0.8848
15327TIP3   OH267395   5.023   7.108  11.965 -0.5849 -0.4977 -0.5160
15327TIP3    H167396   5.065   7.193  11.979  0.4931 -0.8989 -1.2267
15327TIP3    H267397   5.091   7.052  11.929 -1.4468 -1.4953 -0.6674
15328TIP3   OH267398   1.786   4.670   1.013  0.2320  0.0972  0.3568
15328TIP3    H167399   1.702   4.626   1.005  0.2283  0.1072  0.3403
15328TIP3    H267400   1.820   4.643   1.098 -0.5795  1.4717  1.1621
15329TIP3   OH267401   4.638   1.822   4.189  0.3565 -0.4806  0.1516
15329TIP3    H167402   4.702   1.873   4.140 -0.1520  1.7073  1.6551
15329TIP3    H267403   4.586   1.886   4.236  0.1680 -2.3879  2.7771
15330TIP3   OH267404   3.097   6.985   1.857  0.1190 -1.0337  0.9296
15330TIP3    H167405   3.007   6.970   1.886 -0.5521  3.1933  1.7579
15330TIP3    H267406   3.123   6.904   1.814 -4.6555 -1.9119 -0.8479
15331TIP3   OH267407   1.329   6.229   3.601  0.7978  0.3438  0.5136
15331TIP3    H167408   1.321   6.296   3.533 -2.3522  0.6473  1.0117
15331TIP3    H267409   1.364   6.276   3.676  0.8077  0.8900  0.1766
15332TIP3   OH267410   6.036   1.509   2.857 -0.1356 -0.1916  0.4283
15332TIP3    H167411   6.002   1.523   2.945 -0.8889 -0.4094  0.1847
15332TIP3    H267412   6.121   1.553   2.856  0.4243 -1.2103  1.6144
15333TIP3   OH267413   2.022   1.645   0.879  0.0612  0.2424  0.2128
15333TIP3    H167414   2.048   1.568   0.929 -0.6992 -1.0069 -1.2252
15333TIP3    H267415   1.963   1.693   0.937 -0.8350 -1.1834  0.5172
15334TIP3   OH267416   0.811   6.393  15.268 -0.0236 -0.5265  0.1234
15334TIP3    H167417   0.834   6.306  15.236  1.0651  0.0555 -0.7246
15334TIP3    H267418   0.746   6.376  15.336  1.5206 -2.1263  1.2982
15335TIP3   OH267419   2.864   0.593   2.547  0.8901 -0.7256  0.1351
15335TIP3    H167420   2.862   0.559   2.458  2.1843 -0.0165 -0.1755
15335TIP3    H267421   2.927   0.537   2.593  2.4119  0.6680 -0.1677
15336TIP3   OH267422   7.038   3.072   1.850 -0.0628  0.4633 -0.0176
15336TIP3    H167423   7.104   3.114   1.794  0.1961 -0.1923 -0.2264
15336TIP3    H267424   7.068   2.981   1.856 -0.8752  0.1969  0.0126
15337TIP3   OH267425   5.009   3.093   3.595  0.0249  0.3897  0.0366
15337TIP3    H167426   5.001   3.092   3.690 -1.6558  1.3682 -0.0590
15337TIP3    H267427   5.093   3.135   3.579  1.5179 -1.9597  1.0705
15338TIP3   OH267428   0.987   2.286   3.845 -0.4914 -0.0568  0.1390
15338TIP3    H167429   0.947   2.367   3.876  0.4257  1.3240 -2.0913
15338TIP3    H267430   0.918   2.245   3.792 -0.1755  0.5379 -0.7601
15339TIP3   OH267431   2.452   1.273  11.855  0.1239  0.3431 -0.4811
15339TIP3    H167432   2.455   1.367  11.838  1.2908  0.8283  1.9811
15339TIP3    H267433   2.543   1.248  11.870 -0.3519 -0.7861  0.7559
15340TIP3   OH267434   6.490   5.036   0.217 -0.2821 -0.3621 -0.1536
15340TIP3    H167435   6.499   4.944   0.194 -2.1229 -0.7712  0.5906
15340TIP3    H267436   6.429   5.071   0.152  0.4447  0.3571 -0.4633
15341TIP3   OH267437   1.424   0.225  11.473 -0.0734  0.5534  0.2455
15341TIP3    H167438   1.405   0.290  11.406  1.0375  1.0588  0.3949
15341TIP3    H267439   1.418   0.141  11.428 -0.6079  0.8109 -0.1713
15342TIP3   OH267440   6.232   4.147   0.840 -0.2798 -0.1494  0.3084
15342TIP3    H167441   6.246   4.062   0.798  0.1080 -0.7233  1.5517
15342TIP3    H267442   6.300   4.203   0.803  0.8129 -0.9709  0.9829
15343TIP3   OH267443   7.052   2.404   3.210 -0.1223 -0.4078  0.6256
15343TIP3    H167444   7.127   2.367   3.256 -0.0168 -1.9885 -0.7490
15343TIP3    H267445   7.080   2.409   3.119 -1.0296  0.7926  0.3966
15344TIP3   OH267446   0.069   6.921   2.314 -0.5820  0.4814  0.4284
15344TIP3    H167447   0.029   7.002   2.348  0.0757  1.1364 -0.3110
15344TIP3    H267448   0.112   6.948   2.233  1.9715  0.0093  1.5118
15345TIP3   OH267449   5.002   7.090  15.172 -0.1356  0.2191 -0.0688
15345TIP3    H167450   4.960   7.101  15.258 -0.9842 -1.7798 -0.1719
15345TIP3    H267451   5.096   7.088  15.191 -0.3503 -1.8375  1.0961
15346TIP3   OH267452   2.811   1.944   4.937  0.3787  0.5558  0.0515
15346TIP3    H167453   2.743   2.010   4.952  0.1959  0.2278  0.7143
15346TIP3    H267454   2.797   1.879   5.006 -1.6518 -2.0193 -2.4931
15347TIP3   OH267455   3.474   0.440   3.557 -0.5282 -0.7514 -0.0496
15347TIP3    H167456   3.542   0.394   3.508  0.0140 -0.3742  0.3406
15347TIP3    H267457   3.495   0.424   3.649 -1.2873 -1.0904  0.0689
15348TIP3   OH267458   1.127   6.256   3.127 -0.2865 -0.8160  0.5056
15348TIP3    H167459   1.151   6.336   3.175 -1.3795 -0.9729  1.3455
15348TIP3    H267460   1.211   6.217   3.102  0.2919  1.5328 -1.5876
15349TIP3   OH267461   0.150   3.149   5.218 -0.4327 -0.1336 -0.1886
15349TIP3    H167462   0.240   3.147   5.185  0.7445  0.9595  2.6150
15349TIP3    H267463   0.139   3.066   5.264 -1.3508 -0.7982 -1.5398
15350TIP3   OH267464   6.677   2.309   5.525 -0.0943 -0.1295 -0.0706
15350TIP3    H167465   6.771   2.304   5.507 -0.2096 -1.2130 -0.3777
15350TIP3    H267466   6.657   2.228   5.572 -1.2527 -0.8732 -1.7667
15351TIP3   OH267467   4.563   2.811   2.391 -0.2218 -0.1521  0.2072
15351TIP3    H167468   4.553   2.899   2.355  0.8238  0.3303  1.0336
15351TIP3    H267469   4.591   2.825   2.482 -0.8856 -1.3354  0.6128
15352TIP3   OH267470   4.514   1.129   5.295  0.1665 -0.0955  0.4880
15352TIP3    H167471   4.488   1.190   5.364 -0.9942 -0.5540  0.4680
15352TIP3    H267472   4.580   1.073   5.336 -0.7822 -0.6024  1.3445
15353TIP3   OH267473   4.025   2.876   1.557 -0.2075 -0.1374  0.2588
15353TIP3    H167474   3.932   2.858   1.571 -0.5990  1.8439  0.4350
15353TIP3    H267475   4.035   2.879   1.462 -0.1453 -1.0681  0.2224
15354TIP3   OH267476   5.466   2.940   4.730 -0.1893  0.1941 -0.3384
15354TIP3    H167477   5.448   2.971   4.641 -2.5569 -0.8326 -0.3009
15354TIP3    H267478   5.439   2.848   4.728 -1.9035  0.5717  1.8219
15355TIP3   OH267479   5.654   1.278   2.286 -0.0926 -0.5768  0.0802
15355TIP3    H167480   5.642   1.367   2.253 -0.6798 -0.9863 -0.8342
15355TIP3    H267481   5.651   1.287   2.381 -1.4452  0.2117 -0.0181
15356TIP3   OH267482   3.613   3.982   5.112  0.8919  0.2663 -0.7258
15356TIP3    H167483   3.520   3.991   5.091  0.1483  2.5761  2.8487
15356TIP3    H267484   3.619   3.897   5.156  0.1999  0.7157  0.2460
15357TIP3   OH267485   3.188   1.285  15.101 -0.3205  0.8236 -0.3126
15357TIP3    H167486   3.218   1.291  15.010  1.0824  0.3728  0.0938
15357TIP3    H267487   3.268   1.275  15.152 -1.2106 -2.2667  0.6992
15358TIP3   OH267488   6.210   0.440   4.403 -0.3312 -0.4118  0.0636
15358TIP3    H167489   6.258   0.370   4.448  0.4891 -0.3295 -0.6480
15358TIP3    H267490   6.262   0.457   4.324 -0.0324  1.5583  0.6241
15359TIP3   OH267491   4.476   2.312   3.849 -0.5148 -0.0738  0.5325
15359TIP3    H167492   4.510   2.281   3.765 -2.2028 -1.2943  0.2481
15359TIP3    H267493   4.381   2.311   3.839 -0.7866 -0.7847  2.6325
15360TIP3   OH267494   1.645   3.348   4.744 -0.3031 -0.5065  0.0782
15360TIP3    H167495   1.688   3.365   4.828  1.3140 -0.1864 -0.7676
15360TIP3    H267496   1.566   3.300   4.767 -0.4883  0.5588  1.8677
15361TIP3   OH267497   4.939   0.899   6.041 -0.7399 -0.0652  0.8789
15361TIP3    H167498   4.897   0.842   6.106 -0.2869 -0.1134  1.1377
15361TIP3    H267499   5.015   0.934   6.087  0.2651 -1.0265 -0.0019
15362TIP3   OH267500   0.652   2.473   4.437 -0.2373  0.2643 -0.4580
15362TIP3    H167501   0.637   2.418   4.513 -2.6866  2.8543  1.1134
15362TIP3    H267502   0.726   2.529   4.461 -0.0478  0.0791 -0.6047
15363TIP3   OH267503   6.557   6.149   1.747  0.6630  0.0258  0.1657
15363TIP3    H167504   6.543   6.063   1.787  0.4781 -0.8263 -1.6317
15363TIP3    H267505   6.534   6.137   1.655 -2.6216  2.8409  0.4342
15364TIP3   OH267506   5.150   3.668   5.408  0.6904  0.2150  0.4611
15364TIP3    H167507   5.093   3.732   5.450  1.4361  2.3427 -1.5700
15364TIP3    H267508   5.140   3.589   5.461 -1.2557  1.5997  2.3337
15365TIP3   OH267509   3.585   5.024  14.461  0.0303  0.6544  0.5052
15365TIP3    H167510   3.505   5.076  14.466 -0.4078  0.1144 -0.7503
15365TIP3    H267511   3.556   4.934  14.452  0.6955  0.6498 -2.4753
15366TIP3   OH267512   0.611   5.109   3.728 -0.7873  0.2433  0.1815
15366TIP3    H167513   0.699   5.081   3.751 -0.6922  0.5487  0.1880
15366TIP3    H267514   0.623   5.189   3.678 -0.9741 -0.5103 -1.1238
15367TIP3   OH267515   4.337   2.581   1.010 -0.2801  0.2619  0.6571
15367TIP3    H167516   4.263   2.522   1.021  0.3032 -1.2434 -2.3126
15367TIP3    H267517   4.298   2.662   0.978 -0.7165 -1.0593 -2.5701
15368TIP3   OH267518   0.528   5.137   5.249 -0.1547 -0.0786 -0.2024
15368TIP3    H167519   0.523   5.114   5.342  2.0237 -0.2865 -0.0829
15368TIP3    H267520   0.526   5.233   5.248 -0.7074 -0.0820 -0.0035
15369TIP3   OH267521   3.742   1.742   3.863  0.0661 -0.1786  0.2387
15369TIP3    H167522   3.805   1.699   3.921  2.2015 -0.0560 -1.8205
15369TIP3    H267523   3.740   1.687   3.785 -1.9926  0.1764 -0.0195
15370TIP3   OH267524   3.520   2.169   6.134 -0.5714 -0.3307  0.1978
15370TIP3    H167525   3.489   2.250   6.175  0.4816  0.3328 -0.2678
15370TIP3    H267526   3.615   2.179   6.131 -0.5651 -0.6412 -1.8000
15371TIP3   OH267527   0.972   6.842   4.365 -0.1813  0.0515  0.3318
15371TIP3    H167528   1.040   6.786   4.327  0.3438 -0.3281  1.7629
15371TIP3    H267529   0.973   6.820   4.458 -0.8887  1.4962  0.7001
15372TIP3   OH267530   5.722   2.765  14.280  0.3215 -0.2253 -0.2126
15372TIP3    H167531   5.641   2.727  14.244 -1.0559  2.6670 -0.4909
15372TIP3    H267532   5.728   2.729  14.368 -2.0221  0.3871  0.2813
15373TIP3   OH267533   3.333   1.010   5.503  0.2009  0.5941  0.1039
15373TIP3    H167534   3.403   1.065   5.469 -0.5840  1.4608 -0.1531
15373TIP3    H267535   3.376   0.952   5.566  1.1141  1.1956  0.0496
15374TIP3   OH267536   2.249   2.093   1.069 -0.0873 -0.4481 -0.4148
15374TIP3    H167537   2.252   2.007   1.027 -0.4318 -0.4310 -0.4763
15374TIP3    H267538   2.168   2.093   1.120  0.9438 -0.9577  1.3262
15375TIP3   OH267539   1.793   6.698  14.506 -0.2169  0.2308  0.8048
15375TIP3    H167540   1.747   6.781  14.504  0.7989  0.8190 -1.4560
15375TIP3    H267541   1.758   6.649  14.431  2.6001  0.6754 -0.9720
15376TIP3   OH267542   3.683   4.710  15.306  0.2023 -0.4492 -0.4243
15376TIP3    H167543   3.622   4.783  15.300 -1.5397 -1.8287 -0.3310
15376TIP3    H267544   3.642   4.649  15.368  1.3737 -1.7017 -0.8293
15377TIP3   OH267545   6.909   3.000   1.001 -0.0032 -0.2469  0.5674
15377TIP3    H167546   6.946   3.061   0.937 -0.4040 -1.0146 -0.4303
15377TIP3    H267547   6.866   3.056   1.065  1.0920  0.5744  0.6132
15378TIP3   OH267548   3.681   4.850   3.773 -0.1756 -0.4074  0.2460
15378TIP3    H167549   3.706   4.758   3.771  1.0219 -0.0946  0.0980
15378TIP3    H267550   3.602   4.855   3.720  0.6673 -1.0884 -1.1300
15379TIP3   OH267551   0.369   6.592   1.984  0.2165 -0.1157 -0.0301
15379TIP3    H167552   0.426   6.657   1.942  0.3060 -0.1918 -0.0279
15379TIP3    H267553   0.398   6.508   1.948 -2.6419  0.1079 -3.2974
15380TIP3   OH267554   6.849   1.230   5.280  0.0220 -0.3016  0.2531
15380TIP3    H167555   6.862   1.198   5.369 -0.0311 -0.6553  0.1360
15380TIP3    H267556   6.936   1.259   5.251  0.6951 -2.8921 -0.6219
15381TIP3   OH267557   1.725   1.786   5.081  0.1176 -0.2839  0.1416
15381TIP3    H167558   1.634   1.773   5.055  0.3978 -0.9925 -0.5370
15381TIP3    H267559   1.771   1.801   4.998  0.6570 -0.2406  0.4494
15382TIP3   OH267560   3.939   4.878   5.747 -0.8081  0.3769 -0.4871
15382TIP3    H167561   3.948   4.955   5.802 -0.2979  0.6936 -0.9991
15382TIP3    H267562   3.845   4.866   5.736 -0.9441 -0.0723  0.9627
15383TIP3   OH267563   6.494   1.664   3.237  0.0022 -0.3095  0.5867
15383TIP3    H167564   6.501   1.572   3.212 -0.4438  0.0448 -0.9415
15383TIP3    H267565   6.579   1.685   3.275  0.5455 -1.0377 -0.1872
15384TIP3   OH267566   0.934   4.428   2.786  0.9514  0.6814 -0.0444
15384TIP3    H167567   0.907   4.338   2.773  1.2353  0.5771  0.0732
15384TIP3    H267568   0.862   4.481   2.753  0.2536  0.4048  0.9961
15385TIP3   OH267569   6.828   2.928  14.829 -0.3888 -0.5026  0.2288
15385TIP3    H167570   6.827   2.909  14.735 -0.5054  0.9885 -0.1079
15385TIP3    H267571   6.916   2.901  14.858  0.5449  1.1932 -0.8415
15386TIP3   OH267572   6.229   1.575  13.969  0.3473  0.2002  0.5107
15386TIP3    H167573   6.252   1.523  14.047  1.0545  1.8107  1.4208
15386TIP3    H267574   6.227   1.511  13.898  1.5136 -1.0312  1.5191
15387TIP3   OH267575   2.892   4.379   1.932 -0.3373  0.0500 -0.3277
15387TIP3    H167576   2.930   4.317   1.994  0.5846  0.0240 -0.8946
15387TIP3    H267577   2.800   4.385   1.957 -0.1607 -0.5843  0.5200
15388TIP3   OH267578   6.229   1.954   2.058  0.2691  0.0748 -0.2181
15388TIP3    H167579   6.255   1.913   1.975  0.0115  1.5778 -1.0712
15388TIP3    H267580   6.181   1.885   2.104  0.4043 -0.7876 -1.3255
15389TIP3   OH267581   2.641   2.000  15.161  0.2413 -0.0749  0.5574
15389TIP3    H167582   2.638   1.905  15.170 -1.5989 -0.0232  0.8954
15389TIP3    H267583   2.643   2.016  15.067  0.3582 -0.4472  0.4982
15390TIP3   OH267584   5.238   1.442  14.634 -0.0652  0.2971  0.1583
15390TIP3    H167585   5.292   1.515  14.605 -1.3036  0.6086 -1.4576
15390TIP3    H267586   5.159   1.447  14.581 -0.0641 -2.3868 -0.2521
15391TIP3   OH267587   1.502   3.506  11.936  0.1912 -0.3679 -0.4304
15391TIP3    H167588   1.525   3.446  11.866  1.4818 -0.9625  0.4672
15391TIP3    H267589   1.438   3.459  11.989 -1.0342  0.2051 -1.3488
15392TIP3   OH267590   1.287   6.441   0.675 -0.0604 -0.1364 -0.0086
15392TIP3    H167591   1.193   6.423   0.671 -0.5385  1.7488  1.2243
15392TIP3    H267592   1.299   6.515   0.614  0.7282 -0.6695 -0.5133
15393TIP3   OH267593   5.573   5.491   0.893 -0.2675  0.3090 -0.5681
15393TIP3    H167594   5.544   5.402   0.914 -0.7075  0.2248 -1.4650
15393TIP3    H267595   5.663   5.495   0.925  0.2119 -0.9029 -1.6702
15394TIP3   OH267596   3.973   6.225  12.821 -0.8607  1.0351 -0.0164
15394TIP3    H167597   4.022   6.263  12.894  0.2475  0.2224 -0.3149
15394TIP3    H267598   3.888   6.202  12.859 -0.2040  0.3608  1.1104
15395TIP3   OH267599   3.199   0.976   0.299 -0.2601  0.5408 -0.3123
15395TIP3    H167600   3.198   0.921   0.221  0.1009  1.5693 -1.0634
15395TIP3    H267601   3.241   0.922   0.366 -1.7326 -0.8338 -0.4371
15396TIP3   OH267602   1.791   6.702   1.579  0.4674  0.2659 -0.1407
15396TIP3    H167603   1.839   6.766   1.632  0.3725  2.0524 -2.1075
15396TIP3    H267604   1.740   6.755   1.517 -0.5566 -1.6995 -1.0762
15397TIP3   OH267605   1.398   2.561   3.795 -0.3335  0.3951 -0.5346
15397TIP3    H167606   1.408   2.473   3.759  1.6754  0.6715 -0.7523
15397TIP3    H267607   1.394   2.548   3.890  3.7213  0.2097 -0.2420
15398TIP3   OH267608   1.621   2.290   1.261 -0.8023 -0.3147  0.1877
15398TIP3    H167609   1.606   2.290   1.166 -0.5095 -1.0062  0.1334
15398TIP3    H267610   1.533   2.283   1.299 -0.7953 -2.9223 -0.0989
15399TIP3   OH267611   5.874   2.362   4.269 -0.0927 -0.1613 -0.2563
15399TIP3    H167612   5.810   2.432   4.263  0.1124 -0.0985 -2.7855
15399TIP3    H267613   5.958   2.405   4.257  0.1873 -0.6114  0.0664
15400TIP3   OH267614   0.365   6.637  13.876  0.2889  0.6370 -0.0451
15400TIP3    H167615   0.440   6.595  13.834  0.5808  0.7028  0.4023
15400TIP3    H267616   0.342   6.709  13.817  1.5958  1.6102  0.6008
15401TIP3   OH267617   4.895   3.033   2.967  0.3967 -0.8686  0.5215
15401TIP3    H167618   4.903   2.944   2.932  1.2981 -1.2311  1.5828
15401TIP3    H267619   4.917   3.024   3.060 -3.6617 -0.2875  1.7325
15402TIP3   OH267620   5.617   3.474  13.941  0.3568  0.1191 -0.2355
15402TIP3    H167621   5.600   3.483  13.847 -1.7747  1.9173  0.2392
15402TIP3    H267622   5.712   3.463  13.947  0.7696  1.6386 -2.5320
15403TIP3   OH267623   5.337   0.044   4.510  0.0084  0.1613 -0.3263
15403TIP3    H167624   5.323  -0.013   4.586  1.2804 -1.0531 -0.9656
15403TIP3    H267625   5.268   0.110   4.517  0.9019  0.9223  2.6438
15404TIP3   OH267626   1.755   2.364   2.154  0.1528  0.1978 -0.0760
15404TIP3    H167627   1.786   2.366   2.245  0.9994 -0.3966 -0.3382
15404TIP3    H267628   1.767   2.454   2.123  0.8067  0.1767  0.1019
15405TIP3   OH267629   4.841   6.808  13.077 -0.1188  0.1633  0.5070
15405TIP3    H167630   4.773   6.868  13.109  1.3275  1.1414  1.8869
15405TIP3    H267631   4.923   6.847  13.108  1.0600 -1.0986 -0.9390
15406TIP3   OH267632   4.923   6.451  15.374 -0.4138  0.4981  0.1919
15406TIP3    H167633   4.969   6.369  15.391 -0.2438  0.3460 -0.8962
15406TIP3    H267634   4.879   6.472  15.456  3.2284  1.7532  2.0799
15407TIP3   OH267635   5.327   0.772   2.720 -0.0210  0.2909  0.3821
15407TIP3    H167636   5.289   0.827   2.788  0.0057  0.5031  0.2240
15407TIP3    H267637   5.252   0.732   2.677 -0.0286 -0.0849  0.7355
15408TIP3   OH267638   5.237   3.011   0.743  0.0764  0.6864  0.5636
15408TIP3    H167639   5.197   3.089   0.780  1.1392  0.8079  1.5199
15408TIP3    H267640   5.313   3.044   0.694 -1.9093  0.6623 -2.8249
15409TIP3   OH267641   4.331   0.528   4.483 -0.0154  0.0685  0.3540
15409TIP3    H167642   4.335   0.593   4.413 -1.2184  0.6868  0.8331
15409TIP3    H267643   4.275   0.458   4.449  0.0679 -0.0199  0.3951
15410TIP3   OH267644   2.799   1.584   3.644  0.3021 -0.7437  0.0434
15410TIP3    H167645   2.848   1.649   3.594  0.2131 -2.0442 -1.8335
15410TIP3    H267646   2.865   1.536   3.694  0.7119 -1.0727 -0.7983
15411TIP3   OH267647   4.793   3.376   2.592 -0.0418  0.0422  0.0087
15411TIP3    H167648   4.878   3.357   2.550  0.9391  1.0993  1.4321
15411TIP3    H267649   4.771   3.295   2.638  0.4785 -0.0684  0.0794
15412TIP3   OH267650   1.723   5.533   2.278  0.2983 -0.2244 -0.4177
15412TIP3    H167651   1.769   5.450   2.267 -0.1632 -0.3525 -1.4368
15412TIP3    H267652   1.791   5.595   2.307  0.7415 -0.8224 -0.1571
15413TIP3   OH267653   1.478   4.388  14.231 -0.4162  0.1478  1.2293
15413TIP3    H167654   1.432   4.351  14.156 -0.0553  0.9468  0.5920
15413TIP3    H267655   1.553   4.330  14.245 -0.7786 -0.3061  1.3225
15414TIP3   OH267656   7.007   3.652  14.251 -0.0241  0.1240 -0.0886
15414TIP3    H167657   7.000   3.587  14.320 -1.3660 -1.7483 -1.8739
15414TIP3    H267658   7.085   3.627  14.202 -0.6563 -0.3004 -0.9044
15415TIP3   OH267659   3.161   0.234   4.316 -0.4200 -0.2051  0.1659
15415TIP3    H167660   3.250   0.218   4.287  0.1108 -1.4249  2.2773
15415TIP3    H267661   3.169   0.302   4.383 -1.5067  1.9535 -1.7413
15416TIP3   OH267662   0.317   2.051   5.018  0.1355  0.1857 -0.3833
15416TIP3    H167663   0.356   2.137   5.004 -0.0314  0.3397  0.0770
15416TIP3    H267664   0.280   2.028   4.932  0.4416  0.4351 -0.5872
15417TIP3   OH267665   3.108   4.495   5.073 -1.0984  0.0509 -0.4547
15417TIP3    H167666   3.174   4.564   5.075  0.8444 -1.6540  2.1846
15417TIP3    H267667   3.095   4.476   4.980  3.1121 -0.2908 -1.1789
15418TIP3   OH267668   6.489   1.381  15.140  0.2116  0.3390  0.3040
15418TIP3    H167669   6.429   1.312  15.167  0.7603 -0.5847 -0.7616
15418TIP3    H267670   6.576   1.347  15.159  0.4453  1.3525  1.1162
15419TIP3   OH267671   3.483   1.095   0.253  0.3569  0.2473 -0.1820
15419TIP3    H167672   3.505   1.101   0.160  1.4377 -0.7402 -0.0158
15419TIP3    H267673   3.388   1.078   0.254  0.3048  0.4271 -1.0895
15420TIP3   OH267674   4.388   6.766   0.161 -0.5556 -0.1377  0.0011
15420TIP3    H167675   4.362   6.706   0.230  1.0015 -0.9768 -0.0863
15420TIP3    H267676   4.435   6.711   0.098  0.5168  1.0694 -0.3049
15421TIP3   OH267677   3.609   7.092  10.756 -0.0148  0.0152  0.4594
15421TIP3    H167678   3.523   7.056  10.776 -0.1797  0.2794  0.2220
15421TIP3    H267679   3.609   7.106  10.662 -0.2628  1.4267  0.6524
15422TIP3   OH267680   0.777   2.336   0.680  0.5829 -0.1803 -0.1617
15422TIP3    H167681   0.692   2.377   0.663  0.4028 -0.2899  0.4407
15422TIP3    H267682   0.760   2.242   0.672  0.5081 -0.2316  0.5325
15423TIP3   OH267683   5.325   3.822   3.852 -0.2053  0.0936  0.1479
15423TIP3    H167684   5.256   3.861   3.797 -0.9055 -0.9265  0.2684
15423TIP3    H267685   5.291   3.831   3.942 -0.4580 -0.9163  0.1646
15424TIP3   OH267686   0.918   4.232   3.988 -0.4489  0.2603 -0.3394
15424TIP3    H167687   0.954   4.283   3.916 -3.3242  2.5046 -0.3838
15424TIP3    H267688   0.891   4.297   4.053 -2.2071 -1.3476  0.6412
15425TIP3   OH267689   5.072   4.264  13.497  0.0182  0.7480 -0.0017
15425TIP3    H167690   5.110   4.307  13.574 -0.2555  1.7948 -0.4396
15425TIP3    H267691   5.020   4.193  13.533  0.0779  1.0864  0.7723
15426TIP3   OH267692   3.419   0.705   2.057  0.1765  0.6672  0.1342
15426TIP3    H167693   3.405   0.776   1.995 -1.8669  0.9465  0.8324
15426TIP3    H267694   3.487   0.650   2.017  0.1829  1.7969 -1.4700
15427TIP3   OH267695   1.338   6.006   4.272 -0.0496  0.8865  0.0559
15427TIP3    H167696   1.306   5.931   4.321  1.2715  0.1397 -0.1713
15427TIP3    H267697   1.260   6.043   4.230 -0.7328 -0.2852  0.2538
15428TIP3   OH267698   2.274   6.664   0.709  0.7687  0.6455  0.4715
15428TIP3    H167699   2.239   6.596   0.651  1.3443  0.7513 -0.0123
15428TIP3    H267700   2.236   6.645   0.795  1.3558 -0.6224  0.4711
15429TIP3   OH267701   0.817   3.605   2.630  0.1412 -0.1342 -0.5009
15429TIP3    H167702   0.871   3.532   2.599 -0.1790 -1.3566  1.6354
15429TIP3    H267703   0.729   3.569   2.636  0.0069  0.3449  0.7338
15430TIP3   OH267704   3.202   4.948   2.411 -0.2534  0.1792  0.3998
15430TIP3    H167705   3.243   5.022   2.457 -2.0365  0.6285  1.3771
15430TIP3    H267706   3.241   4.950   2.323  2.1269  0.2381  1.3944
15431TIP3   OH267707   4.647   2.801   5.603 -0.6403 -0.9416 -0.4449
15431TIP3    H167708   4.624   2.708   5.602  0.2701 -1.2889  2.3705
15431TIP3    H267709   4.682   2.816   5.691  3.3936  1.0564 -2.1053
15432TIP3   OH267710   1.183   5.888   2.129 -0.9024  0.4479  0.6320
15432TIP3    H167711   1.097   5.856   2.158 -1.0461  1.3162  1.2169
15432TIP3    H267712   1.223   5.813   2.085 -2.2119  0.2177 -0.2244
15433TIP3   OH267713   4.199   5.947   5.121  0.0040 -0.2829 -0.0953
15433TIP3    H167714   4.291   5.952   5.093  0.1053  0.7041  0.3466
15433TIP3    H267715   4.199   5.990   5.207 -0.8743 -0.2539 -0.1056
15434TIP3   OH267716   5.976   3.997   4.784 -0.1607  0.7157 -0.6505
15434TIP3    H167717   5.921   3.919   4.785 -0.0009  0.5360 -2.5007
15434TIP3    H267718   6.065   3.962   4.790 -0.1120  0.7987 -0.9135
15435TIP3   OH267719   3.734   5.019  12.964  0.3540  0.8920 -0.5317
15435TIP3    H167720   3.689   4.986  13.041  0.6127  0.9197 -0.3655
15435TIP3    H267721   3.699   5.108  12.952 -1.3907  0.0834 -1.8202
15436TIP3   OH267722   4.930   6.081  12.858  0.5366  0.0001 -0.1725
15436TIP3    H167723   5.005   6.070  12.916  0.7991  1.1075 -0.2887
15436TIP3    H267724   4.866   6.130  12.908  0.7084  0.8400 -0.7498
15437TIP3   OH267725   1.123   2.714   3.359  0.0152 -0.2433 -0.1929
15437TIP3    H167726   1.190   2.694   3.293 -0.2260  1.4151 -0.9817
15437TIP3    H267727   1.058   2.644   3.349  0.5553 -0.6517 -0.9280
15438TIP3   OH267728   2.596   4.517   2.091  0.1021 -0.0085 -0.0756
15438TIP3    H167729   2.642   4.595   2.060  1.9110 -0.9083  0.2426
15438TIP3    H267730   2.509   4.523   2.051  0.4750  1.7266 -0.7213
15439TIP3   OH267731   2.564   7.145   3.057  0.6819  0.0203 -0.0971
15439TIP3    H167732   2.563   7.240   3.059  5.9896  0.3691  0.1289
15439TIP3    H267733   2.554   7.119   3.148  1.1994  0.5258  0.1093
15440TIP3   OH267734   3.947   0.930   5.882 -0.1267  0.1531  0.1020
15440TIP3    H167735   3.900   0.993   5.828 -0.7779 -1.5433 -1.3932
15440TIP3    H267736   3.970   0.979   5.962 -0.6718  2.2205 -0.9438
15441TIP3   OH267737   4.619   0.490   3.918  0.0807  0.0687 -0.5521
15441TIP3    H167738   4.685   0.436   3.962  0.6419  1.5300  0.4573
15441TIP3    H267739   4.669   0.555   3.869 -0.5319  2.0225  1.2725
15442TIP3   OH267740   3.311   3.519  10.905  0.0765 -0.0256 -0.3667
15442TIP3    H167741   3.323   3.590  10.843 -2.0176  0.1955 -0.5786
15442TIP3    H267742   3.292   3.562  10.988 -0.6466 -0.3210 -0.3731
15443TIP3   OH267743   6.837   1.979  13.676 -0.0964  0.4564  0.3336
15443TIP3    H167744   6.892   1.985  13.597  0.4581 -1.2396  0.5494
15443TIP3    H267745   6.763   1.924  13.649 -1.5276  2.3807  0.1647
15444TIP3   OH267746   1.047   6.537   2.941 -0.0461 -0.2849 -0.0409
15444TIP3    H167747   1.136   6.544   2.907  0.2928 -1.2682  0.6047
15444TIP3    H267748   1.028   6.625   2.974  1.9972 -0.7689  2.8759
15445TIP3   OH267749   2.997   0.063   5.844  0.5531  0.6600  0.3602
15445TIP3    H167750   2.907   0.061   5.877 -0.0848  2.2751 -1.1044
15445TIP3    H267751   3.043  -0.003   5.896 -1.6790 -0.8986  0.5155
15446TIP3   OH267752   5.542   2.926  11.937  0.0990  0.1415  0.6074
15446TIP3    H167753   5.464   2.904  11.988 -1.8523  1.2229 -1.7084
15446TIP3    H267754   5.593   2.985  11.994 -1.2991  0.2481  1.7936
15447TIP3   OH267755   4.665   4.598  12.971  0.3534  0.6276 -0.0785
15447TIP3    H167756   4.640   4.623  12.882 -1.1096  0.9914  0.3968
15447TIP3    H267757   4.648   4.504  12.976  0.7453  0.5478 -0.2853
15448TIP3   OH267758   4.284   0.910   3.599  0.4718 -0.1995 -0.1152
15448TIP3    H167759   4.370   0.884   3.566  1.4324  0.5874  1.6251
15448TIP3    H267760   4.303   0.970   3.671 -1.5604  0.3669  0.0172
15449TIP3   OH267761   0.482   0.002  14.080  0.2401  0.1134 -0.7773
15449TIP3    H167762   0.473  -0.083  14.124 -0.3809  0.8961  0.6719
15449TIP3    H267763   0.576   0.013  14.069  0.3158 -0.8739 -1.2348
15450TIP3   OH267764   4.753   1.615  13.058 -0.0881 -0.4866  0.3350
15450TIP3    H167765   4.739   1.669  13.136 -0.9549 -0.1264 -0.0454
15450TIP3    H267766   4.772   1.528  13.091  1.2084  0.0130  0.9662
15451TIP3   OH267767   1.734   1.393   5.293 -0.2460 -0.0479  0.4882
15451TIP3    H167768   1.800   1.444   5.339 -1.6496  1.4801  0.9341
15451TIP3    H267769   1.759   1.302   5.306  0.4862  0.4149  2.6155
15452TIP3   OH267770   0.322   1.521   2.058 -0.8585 -0.3789  0.3801
15452TIP3    H167771   0.411   1.540   2.030 -0.6317  0.2530  1.4702
15452TIP3    H267772   0.332   1.453   2.125 -1.0570  0.7078  1.5345
15453TIP3   OH267773   1.781   3.197   3.441  0.3919  0.3889 -0.5117
15453TIP3    H167774   1.687   3.180   3.435  0.5555 -0.3231 -1.1382
15453TIP3    H267775   1.812   3.139   3.510  0.4909  0.1103 -0.7902
15454TIP3   OH267776   2.385   3.659   1.517 -0.2451  0.1053 -0.4998
15454TIP3    H167777   2.457   3.609   1.477  0.1940  0.5314 -0.2562
15454TIP3    H267778   2.427   3.708   1.588 -0.8799 -0.0459 -0.0162
15455TIP3   OH267779   3.277   4.683  14.372 -0.9714 -0.3378  0.4594
15455TIP3    H167780   3.264   4.664  14.279  0.5537 -0.6859  0.2865
15455TIP3    H267781   3.223   4.618  14.418 -0.5500 -1.1666 -0.1824
15456TIP3   OH267782   2.803   4.017   0.454 -0.0747 -0.6346 -0.0148
15456TIP3    H167783   2.869   4.007   0.385  0.3860 -1.7275  0.5660
15456TIP3    H267784   2.763   3.931   0.462 -0.8309 -0.2578  0.4028
15457TIP3   OH267785   5.154   0.773   1.925 -0.5883  0.0016  0.9755
15457TIP3    H167786   5.125   0.864   1.915 -0.7296 -0.1359  0.0798
15457TIP3    H267787   5.250   0.779   1.926 -0.4294 -0.0976 -2.4275
15458TIP3   OH267788   4.644   3.123   5.653 -0.0390 -0.2369  0.0578
15458TIP3    H167789   4.618   3.212   5.629  0.7746  0.2339  0.8647
15458TIP3    H267790   4.733   3.114   5.618  0.8258  0.1496  2.0539
15459TIP3   OH267791   3.621   2.407   1.288 -0.6972 -0.0725 -0.0616
15459TIP3    H167792   3.626   2.489   1.337  2.0715 -0.0694 -0.1990
15459TIP3    H267793   3.702   2.361   1.308 -1.3097 -1.9337 -1.4801
15460TIP3   OH267794   0.515   0.687   5.444  0.3085 -0.5267  0.1086
15460TIP3    H167795   0.507   0.782   5.447  0.8595 -0.4745  0.0571
15460TIP3    H267796   0.441   0.659   5.390  0.2768 -0.1064 -0.0765
15461TIP3   OH267797   4.628   4.302   2.101 -0.1739  0.1464  0.2719
15461TIP3    H167798   4.606   4.300   2.008 -0.0740  0.4617  0.2406
15461TIP3    H267799   4.565   4.243   2.142  0.7218 -1.1935 -0.1893
15462TIP3   OH267800   4.850   0.429   1.005  0.6637 -0.0077 -0.2501
15462TIP3    H167801   4.829   0.522   1.009 -1.2070 -0.4079  0.0161
15462TIP3    H267802   4.820   0.401   0.919 -2.2659 -1.0751  0.9805
15463TIP3   OH267803   4.166   3.698   0.350  0.0468 -0.0059  0.4393
15463TIP3    H167804   4.094   3.736   0.300  0.5957  2.2464  1.2431
15463TIP3    H267805   4.226   3.665   0.284 -1.4266 -1.3998 -0.2491
15464TIP3   OH267806   3.781   4.453   4.185  0.0570  0.4426  0.0556
15464TIP3    H167807   3.871   4.476   4.162  0.1722 -0.4887 -0.4853
15464TIP3    H267808   3.789   4.394   4.259 -0.1664  1.0415  0.5699
15465TIP3   OH267809   2.806   4.759   2.738  0.0629  0.3456  0.4531
15465TIP3    H167810   2.877   4.811   2.701  1.4423 -0.7549  1.4077
15465TIP3    H267811   2.778   4.702   2.666  1.0959 -0.1309  0.3973
15466TIP3   OH267812   3.535   0.401  14.959 -0.2706 -0.7294 -0.2338
15466TIP3    H167813   3.578   0.355  15.031  0.7301 -0.0198 -0.3595
15466TIP3    H267814   3.464   0.449  15.001 -0.0087 -0.7238  0.2112
15467TIP3   OH267815   6.052   2.569   0.780 -0.0659  0.0875 -0.1657
15467TIP3    H167816   6.070   2.596   0.690 -1.4559 -2.0042 -1.1532
15467TIP3    H267817   5.969   2.611   0.802  0.2001  0.4810  0.0970
15468TIP3   OH267818   4.268   6.056   0.570 -0.0202 -0.7127 -0.0025
15468TIP3    H167819   4.175   6.034   0.563 -0.3637  0.1783  1.3536
15468TIP3    H267820   4.290   6.041   0.662  0.7016  0.7748  0.1151
15469TIP3   OH267821   2.796   2.860   4.887  0.7887 -0.3630 -0.2318
15469TIP3    H167822   2.862   2.871   4.819 -0.2434 -0.7245 -1.3348
15469TIP3    H267823   2.785   2.765   4.895 -0.7449 -0.3222 -1.2752
15470TIP3   OH267824   4.601   5.847   1.995 -0.4698  0.1628  0.2565
15470TIP3    H167825   4.588   5.762   1.953 -2.7849  0.8615 -0.5766
15470TIP3    H267826   4.600   5.910   1.923  0.9992  0.9698  0.8862
15471TIP3   OH267827   4.538   2.539  12.809  0.0442 -0.4075  0.5019
15471TIP3    H167828   4.551   2.529  12.903  0.8760 -0.9494  0.3402
15471TIP3    H267829   4.621   2.512  12.770 -0.4748 -0.7260 -0.4191
15472TIP3   OH267830   3.098   6.167  14.029  0.5371 -0.0305  0.4590
15472TIP3    H167831   3.142   6.082  14.035  0.5039 -0.0584  0.3246
15472TIP3    H267832   3.005   6.147  14.033  0.4639 -0.1632 -1.1312
15473TIP3   OH267833   4.609   2.797   3.601  0.1406  0.2155 -0.7570
15473TIP3    H167834   4.667   2.766   3.531  0.2862  1.0723 -1.0339
15473TIP3    H267835   4.535   2.836   3.555 -0.0727  0.2059 -0.4235
15474TIP3   OH267836   1.491   1.183  10.925 -0.1838  0.1938  0.3009
15474TIP3    H167837   1.444   1.125  10.866 -0.2421  1.0509 -0.5164
15474TIP3    H267838   1.432   1.257  10.938  1.0792  1.4990 -1.0985
15475TIP3   OH267839   1.856   0.730  15.355  0.0431 -0.2396 -0.0988
15475TIP3    H167840   1.780   0.712  15.300 -0.1946 -1.0514  0.4723
15475TIP3    H267841   1.929   0.735  15.294 -0.4849  0.7654 -0.6839
15476TIP3   OH267842   1.128   6.637   4.878  0.5525 -0.4097 -0.0226
15476TIP3    H167843   1.180   6.705   4.834 -0.6186  2.0305  2.1115
15476TIP3    H267844   1.187   6.603   4.946  0.2743  0.4714  0.6799
15477TIP3   OH267845   2.411   3.299   3.878  0.6724  0.1362 -0.3938
15477TIP3    H167846   2.430   3.208   3.857 -0.2491 -0.2479  0.3660
15477TIP3    H267847   2.453   3.349   3.809  0.4524 -0.9161 -1.3151
15478TIP3   OH267848   3.140   0.305  15.010 -0.1111 -0.1758  0.1524
15478TIP3    H167849   3.071   0.359  14.972 -0.9466 -1.0144  0.4701
15478TIP3    H267850   3.200   0.368  15.050  0.1158  0.6564 -1.4183
15479TIP3   OH267851   5.317   5.606   0.918 -0.3154  1.1379  0.0224
15479TIP3    H167852   5.395   5.585   0.867  0.1205  0.3877  0.9754
15479TIP3    H267853   5.293   5.695   0.890  0.2407  0.9591 -1.0571
15480TIP3   OH267854   2.706   4.563   5.359  0.0651 -0.1077 -0.0164
15480TIP3    H167855   2.801   4.553   5.346  0.0225 -0.7728  0.1380
15480TIP3    H267856   2.686   4.504   5.432 -0.4599  0.0635 -0.0228
15481TIP3   OH267857   4.980   2.386   2.454  0.1165  0.3939 -0.0807
15481TIP3    H167858   4.979   2.380   2.358  1.7142  0.0967 -0.0985
15481TIP3    H267859   4.923   2.460   2.473 -0.1596  0.5150 -1.2614
15482TIP3   OH267860   3.232   5.902   0.432  0.1891  0.8288  0.4220
15482TIP3    H167861   3.280   5.973   0.388  0.4212  1.4985  1.7173
15482TIP3    H267862   3.155   5.944   0.468  0.0617  0.3131  0.7588
15483TIP3   OH267863   4.261   4.877  13.850  0.4110  0.3355  0.4231
15483TIP3    H167864   4.334   4.930  13.882  0.8088  0.0936 -0.0630
15483TIP3    H267865   4.223   4.839  13.930 -0.0374  1.5276  0.7997
15484TIP3   OH267866   2.098   6.150   0.743  0.5338  0.7092 -0.3951
15484TIP3    H167867   2.089   6.055   0.753 -2.2077  1.0027  0.7914
15484TIP3    H267868   2.084   6.166   0.649 -1.6929  0.0803 -0.2314
15485TIP3   OH267869   1.789   4.928  11.482 -0.1522 -0.6357 -0.7422
15485TIP3    H167870   1.878   4.950  11.511 -0.0215 -0.9774 -0.8747
15485TIP3    H267871   1.740   5.010  11.492 -0.1014 -0.7254  0.3819
15486TIP3   OH267872   5.926   3.296   4.115  0.3765 -0.2242  0.1608
15486TIP3    H167873   5.964   3.371   4.162 -0.6999  1.9937 -2.2514
15486TIP3    H267874   5.985   3.281   4.042  0.1124 -1.2134  0.1343
15487TIP3   OH267875   3.826   1.618   5.100  0.4110  0.6403  0.1317
15487TIP3    H167876   3.813   1.524   5.086  2.8325  0.2805 -0.1315
15487TIP3    H267877   3.765   1.660   5.039 -0.7730 -0.7266  0.3120
15488TIP3   OH267878   3.228   0.421  12.107  0.2441 -0.4177 -0.1586
15488TIP3    H167879   3.165   0.400  12.038  0.0153 -1.7901  0.4309
15488TIP3    H267880   3.225   0.516  12.115 -2.2435 -0.4751  0.2963
15489TIP3   OH267881   1.864   6.873   3.036  0.0650 -0.3136  0.1302
15489TIP3    H167882   1.838   6.873   2.944  0.6392 -1.3207 -0.0534
15489TIP3    H267883   1.842   6.786   3.067 -1.0349  0.3363  1.2379
15490TIP3   OH267884   4.186   1.875   1.881 -0.7875 -0.0723 -0.3013
15490TIP3    H167885   4.126   1.890   1.808  0.2283  0.7114 -1.0012
15490TIP3    H267886   4.189   1.959   1.927  0.5571  0.2348 -0.8934
15491TIP3   OH267887   1.436   0.954  15.384  0.9751  0.7731 -0.5394
15491TIP3    H167888   1.432   1.048  15.400 -1.3704  0.3847  1.9018
15491TIP3    H267889   1.408   0.914  15.466  0.3888 -2.0249 -1.9614
15492TIP3   OH267890   4.620   4.875   0.218 -0.1145 -0.1922 -0.4327
15492TIP3    H167891   4.695   4.934   0.214  0.2179 -0.5865 -0.1492
15492TIP3    H267892   4.545   4.928   0.189  0.5426 -0.2653 -2.4165
15493TIP3   OH267893   3.929   4.250   1.851 -0.6354 -0.1837  0.1401
15493TIP3    H167894   4.005   4.281   1.900  0.9698 -1.7969 -1.1684
15493TIP3    H267895   3.917   4.159   1.880 -1.7512 -0.1002 -0.0327
15494TIP3   OH267896   4.686   1.516  13.464  0.2734  0.4784  0.6736
15494TIP3    H167897   4.735   1.475  13.393  0.3244 -1.5787  1.8257
15494TIP3    H267898   4.750   1.572  13.508  0.4103  1.2421 -0.4421
15495TIP3   OH267899   5.256   6.934   0.296 -0.3297  0.3435  0.0544
15495TIP3    H167900   5.192   6.936   0.367  2.2808 -0.0307  2.6279
15495TIP3    H267901   5.245   6.847   0.256 -1.5839  0.3957  0.2530
15496TIP3   OH267902   6.554   5.546  11.643 -0.5608  0.1330  0.1335
15496TIP3    H167903   6.474   5.503  11.611  0.4911 -1.9318  0.0990
15496TIP3    H267904   6.589   5.591  11.566 -1.2392  0.3634 -0.0517
15497TIP3   OH267905   6.597   3.944   4.452 -0.3760  0.5691  0.3510
15497TIP3    H167906   6.612   3.868   4.396  0.6830  0.2157  1.0943
15497TIP3    H267907   6.530   3.914   4.514 -1.0274  0.7305 -0.2603
15498TIP3   OH267908   3.519   4.463   4.319 -0.2461  0.0443  0.3499
15498TIP3    H167909   3.448   4.428   4.265  0.6818  0.7185 -1.3701
15498TIP3    H267910   3.585   4.394   4.321  1.0984  1.1590 -2.1102
15499TIP3   OH267911   4.613   1.426  11.108  0.0824 -0.3848  0.4012
15499TIP3    H167912   4.563   1.354  11.146  1.4596 -0.6341  1.8198
15499TIP3    H267913   4.665   1.385  11.038 -1.0550 -0.2608 -0.5526
15500TIP3   OH267914   0.439   3.526   2.036  0.1794 -0.0969  0.5919
15500TIP3    H167915   0.379   3.475   1.983 -0.5616 -0.8411  2.0670
15500TIP3    H267916   0.522   3.523   1.989 -0.5415 -0.3603 -0.7059
15501TIP3   OH267917   4.030   0.699   1.735 -0.2716  0.0402 -0.3290
15501TIP3    H167918   4.101   0.664   1.790 -1.4808 -2.4500 -0.2102
15501TIP3    H267919   3.990   0.768   1.788  0.6730 -0.0419  0.5189
15502TIP3   OH267920   1.583   2.167   4.381 -0.3151 -0.0433  0.1711
15502TIP3    H167921   1.595   2.230   4.452 -2.0055  0.9609 -0.3923
15502TIP3    H267922   1.530   2.213   4.316 -2.4809 -2.3416  0.1542
15503TIP3   OH267923   5.177   2.719  10.121 -0.0390  0.4723 -0.0354
15503TIP3    H167924   5.086   2.751  10.116 -0.2071  0.0953  0.5382
15503TIP3    H267925   5.187   2.665  10.043  0.3086  2.0417 -1.1325
15504TIP3   OH267926   3.912   3.302   0.061  0.4322  0.4494  0.1653
15504TIP3    H167927   3.879   3.391   0.063  1.7502  0.9872  2.5795
15504TIP3    H267928   3.964   3.294   0.141 -0.0567 -2.6375  0.3175
15505TIP3   OH267929   3.182   3.494  15.436 -0.3733 -0.7305 -0.2771
15505TIP3    H167930   3.269   3.531  15.453 -1.6282  2.9862 -1.0750
15505TIP3    H267931   3.136   3.502  15.520 -1.2140  1.3915 -0.8925
15506TIP3   OH267932   6.099   0.820   5.421  0.0512  0.1560  0.1723
15506TIP3    H167933   6.057   0.793   5.339  2.5895 -0.0969 -1.1192
15506TIP3    H267934   6.092   0.743   5.477 -0.8437 -0.0006 -0.1246
15507TIP3   OH267935   4.523   1.715   3.124  0.2062  0.2943 -0.3225
15507TIP3    H167936   4.459   1.667   3.178 -0.0101  0.2276 -0.6359
15507TIP3    H267937   4.574   1.647   3.081  1.7197  0.3183  1.3349
15508TIP3   OH267938   4.553   4.067   0.379 -0.5773 -0.3954  0.1826
15508TIP3    H167939   4.542   4.128   0.452 -1.1968 -1.1518  0.7335
15508TIP3    H267940   4.600   3.993   0.417 -3.3394 -2.0634  0.5667
15509TIP3   OH267941   5.195   2.186   2.851 -0.4107 -0.4058  0.3609
15509TIP3    H167942   5.177   2.140   2.933  0.3670 -1.3734  0.0099
15509TIP3    H267943   5.261   2.251   2.874 -0.5586 -0.3355  0.5940
15510TIP3   OH267944   6.615   1.895   5.501 -0.3151  0.3977  0.0960
15510TIP3    H167945   6.541   1.835   5.493  0.5188 -0.6477 -0.0063
15510TIP3    H267946   6.640   1.916   5.411  0.0383  0.0759  0.1166
15511TIP3   OH267947   5.298   6.426   0.834 -0.2909  0.6341  0.5453
15511TIP3    H167948   5.285   6.394   0.923 -0.1651  0.2165  0.4131
15511TIP3    H267949   5.356   6.502   0.844  1.6037 -0.7489  0.6276
15512TIP3   OH267950   2.812   1.816   4.677 -0.3779 -0.0846 -0.2448
15512TIP3    H167951   2.806   1.833   4.771 -1.4820 -1.1365 -0.0987
15512TIP3    H267952   2.730   1.849   4.641 -0.1465 -0.0739 -0.7739
15513TIP3   OH267953   7.034   6.859   0.659  0.3152  0.7199  0.0620
15513TIP3    H167954   6.944   6.827   0.666  0.2052  0.4988 -1.7058
15513TIP3    H267955   7.040   6.932   0.721  0.2012 -1.8161  3.3177
15514TIP3   OH267956   0.052   0.614   2.228  0.2692 -0.2606  0.3177
15514TIP3    H167957   0.109   0.657   2.291  1.8224  0.2168 -1.3257
15514TIP3    H267958   0.019   0.684   2.173 -2.5215 -0.4313  1.5767
15515TIP3   OH267959   4.116   2.950   1.306 -0.2436  0.2339 -0.1497
15515TIP3    H167960   4.198   2.953   1.256 -0.5282  1.3340 -0.5865
15515TIP3    H267961   4.067   3.027   1.276 -1.5427 -0.5356 -0.0659
15516TIP3   OH267962   3.904   4.352  10.841 -0.4252 -0.5963 -0.2212
15516TIP3    H167963   3.946   4.436  10.820  1.1350 -1.5557 -1.0616
15516TIP3    H267964   3.852   4.331  10.763 -0.1599 -0.8226 -0.3340
15517TIP3   OH267965   4.862   3.490   3.271 -0.2173  0.5297 -0.0015
15517TIP3    H167966   4.920   3.498   3.195 -2.1244  0.7080 -1.5109
15517TIP3    H267967   4.885   3.404   3.309  1.0778  0.6453 -0.4661
15518TIP3   OH267968   1.691   1.557  12.342 -0.4660 -0.4579  0.0296
15518TIP3    H167969   1.597   1.544  12.328 -0.3096 -1.8498  0.1501
15518TIP3    H267970   1.718   1.610  12.267 -1.3433 -0.0421 -0.0108
15519TIP3   OH267971   3.070   5.798   4.813  0.3206  0.0556 -0.0781
15519TIP3    H167972   3.079   5.848   4.731 -2.3844 -2.2372 -2.0031
15519TIP3    H267973   3.152   5.749   4.821  0.7947  0.6213 -1.2222
15520TIP3   OH267974   1.280   1.182   4.309  0.0410  0.0296  1.1167
15520TIP3    H167975   1.338   1.107   4.310 -0.2351 -0.2003  3.2647
15520TIP3    H267976   1.196   1.149   4.340 -1.2515  0.4080 -1.6815
15521TIP3   OH267977   4.473   6.732   2.987  0.0890  0.4852 -0.1094
15521TIP3    H167978   4.381   6.720   3.010 -0.3767 -0.1192 -2.0720
15521TIP3    H267979   4.519   6.661   3.031 -0.6039 -0.0615 -0.2659
15522TIP3   OH267980   3.911   0.965   1.595 -0.5416 -0.0404  0.8076
15522TIP3    H167981   3.995   0.945   1.636  0.1469 -1.2029 -1.0258
15522TIP3    H267982   3.865   1.020   1.659  2.1603  1.8105  1.3347
15523TIP3   OH267983   4.868   3.235  10.955 -0.0690 -0.1730  0.3822
15523TIP3    H167984   4.869   3.147  10.916 -2.1819 -0.9908  2.0170
15523TIP3    H267985   4.814   3.287  10.895 -0.7474 -0.6138  0.6020
15524TIP3   OH267986   3.034   6.325   3.964  0.0090 -0.4698  0.9274
15524TIP3    H167987   3.076   6.239   3.955  1.5970  0.3724 -0.0677
15524TIP3    H267988   2.947   6.305   3.999  0.1953 -2.5082  0.3726
15525TIP3   OH267989   1.392   4.850   0.852 -0.4381  0.2176  0.2874
15525TIP3    H167990   1.307   4.888   0.831 -0.6136 -0.0650  0.4774
15525TIP3    H267991   1.382   4.815   0.940  0.2503  1.2678  0.8099
15526TIP3   OH267992   0.280   5.270   4.931  0.6860  0.0685  0.3253
15526TIP3    H167993   0.344   5.340   4.943  0.0387  0.4802  1.5346
15526TIP3    H267994   0.254   5.245   5.020 -0.0394 -0.8341 -0.1164
15527TIP3   OH267995   1.627   3.484   3.771  0.1050  0.0739 -0.9173
15527TIP3    H167996   1.652   3.572   3.743  2.4304  0.1406  0.9541
15527TIP3    H267997   1.707   3.449   3.812 -2.1739 -0.7175  3.5048
15528TIP3   OH267998   4.550   3.827   3.798  0.1606  0.6956  0.6342
15528TIP3    H167999   4.508   3.813   3.883  1.0515  0.7549  1.0963
15528TIP3    H268000   4.505   3.767   3.739 -0.5121  0.7004  1.1281
15529TIP3   OH268001   6.418   2.464   1.499 -0.1626 -0.6720 -0.9754
15529TIP3    H168002   6.396   2.546   1.455 -0.2481 -0.1111  0.0756
15529TIP3    H268003   6.512   2.472   1.519  0.0292 -1.2059 -1.6211
15530TIP3   OH268004   0.882   2.475   1.794  0.0082 -0.1699 -0.7087
15530TIP3    H168005   0.906   2.542   1.859 -0.0852  0.2757 -1.1294
15530TIP3    H268006   0.846   2.404   1.846  0.4997 -0.0675 -0.2181
15531TIP3   OH268007   2.749   2.751  12.217 -0.3673 -0.0030  0.4807
15531TIP3    H168008   2.844   2.750  12.227 -0.0645 -1.2896 -1.8793
15531TIP3    H268009   2.721   2.662  12.241 -0.9753  0.3394  1.0782
15532TIP3   OH268010   5.389   0.464   4.906  0.4216 -0.0506  0.2509
15532TIP3    H168011   5.297   0.446   4.926 -0.2064  1.7676 -0.7207
15532TIP3    H268012   5.392   0.469   4.810  1.9849 -2.0890  0.1252
15533TIP3   OH268013   6.377   4.129   3.541  0.2689 -0.3124 -0.3264
15533TIP3    H168014   6.292   4.115   3.499 -0.0308 -0.2268  0.2437
15533TIP3    H268015   6.377   4.072   3.617  0.1879  0.6384  0.4116
15534TIP3   OH268016   2.100   6.863   4.897 -0.0910 -0.5145  0.3004
15534TIP3    H168017   2.150   6.913   4.833  0.8366 -0.7751  0.7917
15534TIP3    H268018   2.146   6.779   4.903  0.4109 -0.1765  1.9372
15535TIP3   OH268019   7.058   3.159   4.662  0.0366  0.8710  0.1472
15535TIP3    H168020   6.983   3.103   4.641  1.3934 -0.1475 -2.4265
15535TIP3    H268021   7.054   3.231   4.600  0.8884  1.1015  0.3335
15536TIP3   OH268022   1.507   5.873   2.837 -0.1217 -0.3292 -1.0518
15536TIP3    H168023   1.414   5.854   2.823 -0.6786 -1.9855  3.3181
15536TIP3    H268024   1.543   5.793   2.875  2.8702  0.6418 -1.5537
15537TIP3   OH268025   3.253   5.156   0.124  0.3614 -0.4289  0.5401
15537TIP3    H168026   3.186   5.111   0.176 -0.7761 -0.5228 -0.9257
15537TIP3    H268027   3.325   5.093   0.118 -1.0000 -1.9251 -1.0547
15538TIP3   OH268028   3.469   6.359   0.331 -0.2393 -0.3633 -0.0654
15538TIP3    H168029   3.525   6.414   0.277 -0.4983 -2.5257 -2.7493
15538TIP3    H268030   3.489   6.386   0.421  1.9662  1.8063 -1.0836
15539TIP3   OH268031   4.337   5.101   4.278 -0.3240 -0.1250  0.1461
15539TIP3    H168032   4.431   5.117   4.282 -0.6722  2.4638 -0.3569
15539TIP3    H268033   4.301   5.158   4.346 -1.4099 -3.1386  2.3287
15540TIP3   OH268034   4.437   0.888  15.276 -0.2712 -0.2018 -0.0988
15540TIP3    H168035   4.501   0.823  15.307 -2.0542 -1.4166  1.2166
15540TIP3    H268036   4.422   0.863  15.184  2.8372  1.6063 -1.2600
15541TIP3   OH268037   2.452   6.151  15.190 -0.0743  0.3183 -0.1010
15541TIP3    H168038   2.542   6.178  15.171  0.3728 -0.3819  0.9193
15541TIP3    H268039   2.421   6.216  15.254  0.0738 -0.0280  0.3282
15542TIP3   OH268040   5.129   2.154   4.060  0.4743 -0.1139 -0.2351
15542TIP3    H168041   5.195   2.086   4.046 -0.0580 -0.8733  0.7256
15542TIP3    H268042   5.105   2.184   3.973  3.0666  1.1822 -0.5846
15543TIP3   OH268043   6.265   4.867   4.567  0.0459  0.1834  0.4759
15543TIP3    H168044   6.211   4.909   4.499  0.0837 -1.2961 -0.5364
15543TIP3    H268045   6.353   4.899   4.550  0.1779 -0.6896 -0.6684
15544TIP3   OH268046   5.143   4.298  12.659 -0.0172  0.1287 -0.3691
15544TIP3    H168047   5.136   4.241  12.583 -0.6154  0.6844 -0.7447
15544TIP3    H268048   5.138   4.387  12.623  0.8666  0.4194  0.2090
15545TIP3   OH268049   3.692   6.850   2.463  0.2580 -0.3068  0.2072
15545TIP3    H168050   3.723   6.778   2.518  3.0503  1.0481  0.5955
15545TIP3    H268051   3.704   6.928   2.518  1.6553  0.9146 -1.7087
15546TIP3   OH268052   0.903   2.858   2.690  0.0214  0.2847  0.2156
15546TIP3    H168053   0.818   2.818   2.673  0.8024 -0.7287 -1.5427
15546TIP3    H268054   0.887   2.952   2.683 -0.9728  0.1114 -0.0186
15547TIP3   OH268055   5.812   0.579   4.720 -0.2602 -0.0289 -0.0463
15547TIP3    H168056   5.793   0.585   4.813  0.3823  1.6310  0.0155
15547TIP3    H268057   5.877   0.508   4.714 -0.3693 -0.2085  0.7552
15548TIP3   OH268058   2.464   2.621   2.713 -0.0706  0.5865 -0.4033
15548TIP3    H168059   2.513   2.575   2.781 -0.8913 -0.0620 -0.2317
15548TIP3    H268060   2.477   2.569   2.634  0.1101  0.8135 -0.5232
15549TIP3   OH268061   0.496   0.682   2.515  0.7094  0.5097  0.4854
15549TIP3    H168062   0.453   0.752   2.564  1.3658  1.8080 -0.7291
15549TIP3    H268063   0.570   0.725   2.471 -0.1482 -0.4363 -2.0690
15550TIP3   OH268064   3.197   7.064   4.294  0.2480 -0.4305 -0.3046
15550TIP3    H168065   3.206   7.094   4.203  1.8632 -0.3868 -0.1477
15550TIP3    H268066   3.145   7.132   4.336 -0.4709 -0.4202 -1.1734
15551TIP3   OH268067   0.806   5.718  10.741 -0.3035 -0.7261 -0.4642
15551TIP3    H168068   0.831   5.770  10.664 -1.3870 -0.7154 -0.8257
15551TIP3    H268069   0.779   5.634  10.705  0.9767 -1.3957  0.0825
15552TIP3   OH268070   0.182   4.955   3.506  0.2642  0.2214 -0.3047
15552TIP3    H168071   0.133   4.926   3.582 -1.2159 -1.2773 -1.7436
15552TIP3    H268072   0.162   5.048   3.498 -1.4687 -0.1031 -0.1793
15553TIP3   OH268073   2.051   3.399   3.563  1.0785 -0.0643  0.0596
15553TIP3    H168074   2.136   3.428   3.596  0.8373  0.1721  0.4900
15553TIP3    H268075   2.064   3.307   3.539  1.2580 -0.2508  0.8483
15554TIP3   OH268076   2.249   4.347   2.512 -0.6923  0.6529 -0.4317
15554TIP3    H168077   2.333   4.385   2.487 -0.4435  1.0765  1.0174
15554TIP3    H268078   2.203   4.417   2.556 -1.9647  0.5195 -1.4836
15555TIP3   OH268079   4.628   1.065   0.871  0.1884 -0.1685 -0.2302
15555TIP3    H168080   4.625   1.152   0.833  1.3550 -0.1948 -0.4068
15555TIP3    H268081   4.595   1.007   0.802  0.5724 -0.0066 -0.5501
15556TIP3   OH268082   5.742   1.605  13.554 -0.0341 -0.5519  0.7191
15556TIP3    H168083   5.723   1.532  13.613  0.5804 -0.9590  0.4366
15556TIP3    H268084   5.808   1.657  13.601 -0.0232 -0.5162  0.6636
15557TIP3   OH268085   1.349   5.122  12.106  0.6259 -0.3374  0.4274
15557TIP3    H168086   1.399   5.054  12.062  0.7601  0.5748 -0.9003
15557TIP3    H268087   1.329   5.186  12.037  0.6758  1.0686  1.6569
15558TIP3   OH268088   6.082   0.597   4.897  0.5533 -0.1406 -0.2082
15558TIP3    H168089   6.070   0.522   4.837  0.9164  0.5487 -1.1691
15558TIP3    H268090   6.060   0.562   4.983  1.8238 -1.6722 -0.4530
15559TIP3   OH268091   6.980   6.528   4.195 -0.2870  0.1802  0.2481
15559TIP3    H168092   6.920   6.596   4.224 -1.4178  0.3275 -2.1985
15559TIP3    H268093   7.043   6.573   4.139  1.8235 -0.0814  2.2662
15560TIP3   OH268094   1.916   1.118  11.419 -0.3997 -0.8503  0.3121
15560TIP3    H168095   1.899   1.071  11.501 -1.5138  0.5739  0.9470
15560TIP3    H268096   1.914   1.211  11.443 -0.2708 -0.4070 -1.2458
15561TIP3   OH268097   0.616   2.624   4.005 -0.0995 -0.1463  0.2959
15561TIP3    H168098   0.571   2.620   3.920 -3.9432  0.1556  2.1210
15561TIP3    H268099   0.667   2.705   4.001 -1.0325  0.4168 -1.3565
15562TIP3   OH268100   5.701   5.724  13.651 -0.5344 -0.2090 -0.0693
15562TIP3    H168101   5.782   5.729  13.600 -0.8171  1.7487 -0.4146
15562TIP3    H268102   5.647   5.661  13.604 -1.0372  1.9947 -2.6635
15563TIP3   OH268103   4.123   0.760   4.525  0.5040 -0.2775  0.1672
15563TIP3    H168104   4.112   0.698   4.597  0.1787 -0.7482 -0.2810
15563TIP3    H268105   4.046   0.745   4.470  0.6519  0.2188 -0.1735
15564TIP3   OH268106   7.038   6.404   2.230  0.1138  0.1746 -0.6394
15564TIP3    H168107   7.118   6.457   2.236  0.7315 -0.7608 -0.2705
15564TIP3    H268108   7.047   6.340   2.302 -2.1322  1.5648  0.9757
15565TIP3   OH268109   6.494   3.118  15.361 -0.4231  0.7099  0.0171
15565TIP3    H168110   6.400   3.130  15.344 -0.0795  0.8547 -1.9729
15565TIP3    H268111   6.505   3.023  15.364 -0.4948  0.6737 -0.6887
15566TIP3   OH268112   3.760   0.160   4.169  0.2963 -0.0006  0.0979
15566TIP3    H168113   3.765   0.183   4.076 -1.8185  1.7309  0.3344
15566TIP3    H268114   3.693   0.092   4.173  1.2435 -0.9507  0.2595
15567TIP3   OH268115   3.094   5.007   1.040  0.5828 -0.1944  0.4437
15567TIP3    H168116   3.117   5.023   0.948  1.9552 -1.4738  0.5153
15567TIP3    H268117   3.019   5.063   1.056  0.4655  0.2486 -1.3927
15568TIP3   OH268118   5.015   3.143   5.558 -0.0875  0.0948  0.0499
15568TIP3    H168119   5.055   3.056   5.556 -0.7450 -0.2201  0.1684
15568TIP3    H268120   4.944   3.139   5.494 -0.6219  0.2862  0.6127
15569TIP3   OH268121   0.413   5.055  15.080 -0.4754  0.5771  0.5322
15569TIP3    H168122   0.351   5.000  15.031  0.7573 -0.5696  0.1910
15569TIP3    H268123   0.486   5.068  15.019  0.1208  0.9577  1.3113
15570TIP3   OH268124   2.048   0.585   3.432  0.2094 -0.3701 -0.3209
15570TIP3    H168125   1.986   0.602   3.503  1.1731  0.4977  0.3427
15570TIP3    H268126   2.125   0.548   3.475  1.4960  1.7780 -0.6265
15571TIP3   OH268127   3.713   0.883  12.034 -0.0841  0.2793  0.4419
15571TIP3    H168128   3.740   0.953  11.975  1.8766  1.1109  2.1926
15571TIP3    H268129   3.676   0.929  12.110  0.7531 -0.5683  1.3865
15572TIP3   OH268130   3.978   3.718  15.420 -0.1218  0.2884 -0.4638
15572TIP3    H168131   3.994   3.693  15.329  1.6239 -1.0536  0.1542
15572TIP3    H268132   3.968   3.635  15.466 -0.9429  0.9467  0.5987
15573TIP3   OH268133   4.912   2.783   2.782 -0.0851 -0.1120  0.2794
15573TIP3    H168134   4.828   2.748   2.752  0.7624 -0.5334 -1.8460
15573TIP3    H268135   4.954   2.711   2.828 -0.5891 -0.1358  0.6991
15574TIP3   OH268136   5.415   4.994   5.000  0.6372  0.1218  0.3378
15574TIP3    H168137   5.444   4.907   4.971  0.0825  0.0927 -0.1500
15574TIP3    H268138   5.385   5.037   4.920  0.6486  0.6649  0.6214
15575TIP3   OH268139   2.900   6.239   9.940 -0.3667 -0.1518 -0.1472
15575TIP3    H168140   2.988   6.223   9.975  1.5875  1.9906 -3.5047
15575TIP3    H268141   2.897   6.187   9.859 -1.9208  0.3723 -0.4577
15576TIP3   OH268142   5.151   4.452  10.932  0.2425  0.1402 -0.0008
15576TIP3    H168143   5.193   4.422  11.012 -1.4437  2.8515  2.0911
15576TIP3    H268144   5.161   4.380  10.871  0.6045 -2.5736  3.0183
15577TIP3   OH268145   4.943   0.726  11.957  0.0620 -0.2706 -0.1854
15577TIP3    H168146   4.885   0.729  11.881 -0.9273 -1.4939  0.4872
15577TIP3    H268147   4.917   0.801  12.011 -0.5078 -0.4822 -0.1638
15578TIP3   OH268148   1.498   0.752  14.648  0.4554 -0.4713  0.5171
15578TIP3    H168149   1.506   0.831  14.596 -0.6584 -1.7643 -1.7715
15578TIP3    H268150   1.583   0.708  14.641 -0.0711 -1.2755 -1.4247
15579TIP3   OH268151   2.719   3.698  13.466 -0.0659 -0.0063 -0.3425
15579TIP3    H168152   2.664   3.622  13.447 -0.9361  1.2265 -3.4146
15579TIP3    H268153   2.657   3.764  13.497  0.1920  0.3801 -0.6513
15580TIP3   OH268154   5.233   4.604  14.695  0.5383  0.2987  0.4870
15580TIP3    H168155   5.213   4.567  14.609 -0.7953  0.1536  0.8359
15580TIP3    H268156   5.314   4.560  14.722  0.3200 -0.5291 -0.1691
15581TIP3   OH268157   2.227   2.167   4.087 -0.1047 -0.1788  0.1632
15581TIP3    H168158   2.193   2.237   4.143  0.3584 -0.9394  1.4583
15581TIP3    H268159   2.151   2.112   4.069 -0.1816 -0.1408  0.3665
15582TIP3   OH268160   0.228   1.240  14.261 -0.5153  0.0860 -0.5014
15582TIP3    H168161   0.187   1.315  14.305 -2.6581  0.6783 -3.2268
15582TIP3    H268162   0.320   1.245  14.286 -0.8752  2.7062  0.6350
15583TIP3   OH268163   2.514   6.489  13.748 -0.1260  0.0623 -0.6072
15583TIP3    H168164   2.491   6.512  13.838  1.6664  1.1223 -0.3561
15583TIP3    H268165   2.592   6.434  13.756  1.8864  2.5663 -1.5030
15584TIP3   OH268166   1.736   1.225   2.652 -0.3220 -0.4371  0.0754
15584TIP3    H168167   1.683   1.304   2.649  1.4848  0.8516  0.4003
15584TIP3    H268168   1.795   1.233   2.577  1.9056  0.0748  1.7884
15585TIP3   OH268169   1.971   5.532  13.353  1.1119  0.0243  0.3218
15585TIP3    H168170   1.949   5.612  13.305 -1.7615  0.1942  1.6656
15585TIP3    H268171   1.963   5.557  13.445  0.1068 -1.7690  0.7724
15586TIP3   OH268172   4.655   0.795   0.155 -0.4905  0.3993  0.3491
15586TIP3    H168173   4.643   0.707   0.192  0.3259 -0.6334 -1.6332
15586TIP3    H268174   4.727   0.833   0.206 -0.2000 -0.4891  0.6239
15587TIP3   OH268175   4.288   4.040  15.258  0.4587 -0.7705  0.0953
15587TIP3    H168176   4.201   4.043  15.298  1.2135  0.5539  1.7369
15587TIP3    H268177   4.281   4.098  15.182  0.1363 -0.0107  0.7009
15588TIP3   OH268178   1.057   2.042   3.430 -0.3675 -0.1769 -0.7184
15588TIP3    H168179   1.120   2.079   3.491 -1.2944  0.5516 -0.1776
15588TIP3    H268180   1.109   1.985   3.373  0.5038 -0.8940  0.7540
15589TIP3   OH268181   6.358   2.389  15.107 -0.3248  0.1949 -0.7662
15589TIP3    H168182   6.286   2.331  15.081 -3.1272  1.9890  2.1384
15589TIP3    H268183   6.355   2.460  15.044 -1.1715  0.2770 -0.6483
15590TIP3   OH268184   0.967   2.154   2.416  0.6667 -0.1126 -0.0321
15590TIP3    H168185   1.004   2.238   2.387 -1.7889  0.2284 -2.7082
15590TIP3    H268186   0.923   2.175   2.498  2.2419  0.5638  0.6818
15591TIP3   OH268187   0.501   4.832   4.927 -0.4167 -0.2802 -0.4513
15591TIP3    H168188   0.510   4.923   4.954  1.6129 -0.3895 -0.5335
15591TIP3    H268189   0.587   4.794   4.945 -1.0034 -1.9948 -1.0823
15592TIP3   OH268190   4.923   4.358   4.400  0.0306 -0.6821  0.2990
15592TIP3    H168191   4.965   4.272   4.393 -0.1677 -0.6885 -0.9962
15592TIP3    H268192   4.836   4.346   4.362  0.6413  0.4979 -1.6445
15593TIP3   OH268193   1.425   0.745   4.299 -0.7811  0.8086 -0.1807
15593TIP3    H168194   1.437   0.712   4.209  1.3698  1.5908 -0.2410
15593TIP3    H268195   1.382   0.673   4.345  0.5999 -0.7314 -1.1804
15594TIP3   OH268196   2.523   2.481   2.195 -0.1184  0.2576 -0.1728
15594TIP3    H168197   2.463   2.411   2.218  0.9799 -0.2950  1.1245
15594TIP3    H268198   2.593   2.438   2.146  0.1901  0.5635 -0.0076
15595TIP3   OH268199   3.805   4.531   3.085  0.4228 -0.2335 -0.4823
15595TIP3    H168200   3.719   4.573   3.087  0.1584 -0.7668 -0.4416
15595TIP3    H268201   3.804   4.470   3.158  0.4509 -0.9752 -1.0851
15596TIP3   OH268202   3.813   0.343   5.161  0.5243  0.0514 -0.3431
15596TIP3    H168203   3.897   0.315   5.197 -0.0138 -0.6500  0.3999
15596TIP3    H268204   3.758   0.265   5.166 -0.8304  1.0439  1.2373
15597TIP3   OH268205   7.123   1.622   4.698  0.0873 -0.1588 -0.2071
15597TIP3    H168206   7.156   1.535   4.678  2.7088  0.5339  0.6769
15597TIP3    H268207   7.178   1.653   4.771 -2.5056  1.2297  1.3125
15598TIP3   OH268208   4.287   6.127   0.892  0.3025 -0.0026  0.4428
15598TIP3    H168209   4.242   6.151   0.972  0.1965  0.0069  0.3805
15598TIP3    H268210   4.309   6.035   0.903  0.6789  0.1110  0.6676
15599TIP3   OH268211   4.804   4.164   2.489 -0.0851  0.2167 -0.1216
15599TIP3    H168212   4.830   4.075   2.463  0.7802  0.8697 -1.6173
15599TIP3    H268213   4.709   4.162   2.489 -0.0816 -0.6976 -0.1746
15600TIP3   OH268214   4.439   2.649   0.665  0.2992 -0.1001 -0.2274
15600TIP3    H168215   4.417   2.584   0.732  0.1339  0.4039  0.2096
15600TIP3    H268216   4.532   2.637   0.650  0.4824  0.2478  0.5978
15601TIP3   OH268217   4.241   3.954   0.417  0.0012 -0.0394  0.0562
15601TIP3    H168218   4.310   3.966   0.352 -0.0269  0.5122  0.1217
15601TIP3    H268219   4.216   3.862   0.410 -0.3593  0.1305 -1.0622
15602TIP3   OH268220   6.872   3.023   0.281 -0.3451  0.4953  0.0664
15602TIP3    H168221   6.821   2.961   0.331  0.2994  0.5852  0.8574
15602TIP3    H268222   6.842   3.013   0.191 -1.7766  0.5877  0.5161
15603TIP3   OH268223   1.685   4.191   1.801  0.4118  0.1076 -0.4250
15603TIP3    H168224   1.599   4.188   1.759  0.4882  0.2938 -0.5948
15603TIP3    H268225   1.690   4.109   1.851  1.1425 -1.1453 -2.4195
15604TIP3   OH268226   5.586   5.778   2.997  0.1018  1.0257 -1.1416
15604TIP3    H168227   5.629   5.857   3.029  0.7257  0.6499 -1.0320
15604TIP3    H268228   5.496   5.785   3.028  0.4626  1.1036 -0.0732
15605TIP3   OH268229   1.782   0.235   5.166 -0.5166  0.3399 -0.0451
15605TIP3    H168230   1.863   0.238   5.117 -0.0741 -2.5569  0.3369
15605TIP3    H268231   1.725   0.175   5.116 -1.9301  1.2677  0.3825
15606TIP3   OH268232   2.696   2.666   5.349 -0.3663  0.3788 -0.3048
15606TIP3    H168233   2.647   2.700   5.424  0.2515  1.4482 -0.3619
15606TIP3    H268234   2.781   2.641   5.386 -0.6499 -0.6832 -0.3534
15607TIP3   OH268235   3.432   4.473   2.819  1.3519 -0.4227  0.2357
15607TIP3    H168236   3.509   4.421   2.794  1.3064 -1.5924  2.3379
15607TIP3    H268237   3.434   4.474   2.914 -0.8009  0.2231  0.3170
15608TIP3   OH268238   2.579   0.062  12.833  0.5146  0.4644  0.1018
15608TIP3    H168239   2.615  -0.001  12.896 -1.1783  0.0663  0.7326
15608TIP3    H268240   2.603   0.026  12.747  0.3193 -0.6013  0.4768
15609TIP3   OH268241   2.065   5.025   4.282 -0.0967 -0.0167 -0.2786
15609TIP3    H168242   2.109   5.110   4.288 -0.6832  0.2031  2.2922
15609TIP3    H268243   2.132   4.961   4.302  0.1737 -0.1158 -1.4616
15610TIP3   OH268244   5.907   6.280   3.185  0.6774  0.5097 -0.0253
15610TIP3    H168245   5.862   6.344   3.128 -2.1269 -1.4882 -0.2480
15610TIP3    H268246   5.922   6.328   3.266 -0.3216  1.8049 -0.5513
15611TIP3   OH268247   5.601   0.831   4.723 -0.4117 -0.1142 -0.7630
15611TIP3    H168248   5.662   0.860   4.655 -0.7689 -0.4745 -1.2502
15611TIP3    H268249   5.652   0.834   4.804  0.0086  0.3670 -1.0355
15612TIP3   OH268250   5.670   0.007   4.581 -0.0752 -0.4759 -0.5773
15612TIP3    H168251   5.636   0.015   4.671 -0.5149  2.2071 -0.8819
15612TIP3    H268252   5.599   0.040   4.526 -0.0912 -2.7755 -2.0415
15613TIP3   OH268253   4.155   4.502   1.774  0.0461  0.3452  0.2230
15613TIP3    H168254   4.167   4.415   1.813 -0.9231  0.2828  0.3988
15613TIP3    H268255   4.094   4.546   1.833 -0.6072  0.6329 -0.6534
15614TIP3   OH268256   0.232   5.165   2.516 -0.1310  0.4718 -0.0416
15614TIP3    H168257   0.317   5.200   2.490  0.5990 -1.7523 -0.9669
15614TIP3    H268258   0.253   5.088   2.569 -1.5512 -0.0332 -0.1642
15615TIP3   OH268259   3.032   6.191   4.393  0.0334 -0.0758  0.6188
15615TIP3    H168260   3.112   6.208   4.343  1.0819 -1.3602  1.7715
15615TIP3    H268261   3.017   6.097   4.384 -0.9971  0.0446  0.9240
15616TIP3   OH268262   6.817   1.618  14.566 -0.2400  0.3818  0.1202
15616TIP3    H168263   6.730   1.624  14.527 -0.0293  2.3942 -0.1118
15616TIP3    H268264   6.877   1.639  14.495  0.5822 -2.1410 -0.0432
15617TIP3   OH268265   0.692   0.721  12.764 -0.6931  0.2304 -0.0498
15617TIP3    H168266   0.706   0.757  12.676  2.5363  0.6449  0.5091
15617TIP3    H268267   0.652   0.793  12.813 -0.7101  0.6625 -0.6884
15618TIP3   OH268268   5.527   6.006  11.321  0.3694  0.0828  0.4755
15618TIP3    H168269   5.560   6.095  11.309  0.6143 -0.1307 -0.4338
15618TIP3    H268270   5.599   5.959  11.363  1.1431 -0.2994 -1.2182
15619TIP3   OH268271   4.273   5.655  13.797  0.6755 -0.2121 -0.1618
15619TIP3    H168272   4.310   5.675  13.711  0.3582  0.3583 -0.1720
15619TIP3    H268273   4.232   5.570  13.786  1.0406 -0.3546 -0.4475
15620TIP3   OH268274   4.439   6.092   3.662 -0.0162 -0.6613 -0.2090
15620TIP3    H168275   4.499   6.161   3.633 -1.6354  2.1330  2.5176
15620TIP3    H268276   4.479   6.058   3.742 -0.4909 -1.1135 -0.1619
15621TIP3   OH268277   0.233   0.950  13.828  0.7023 -0.0401  0.0595
15621TIP3    H168278   0.279   1.033  13.842  0.9400 -0.3554  1.2210
15621TIP3    H268279   0.226   0.943  13.732 -0.6530  2.0336 -0.0568
15622TIP3   OH268280   5.436   4.482   3.882  0.2838  0.8243 -0.2097
15622TIP3    H168281   5.401   4.399   3.847 -0.6838  0.7254  0.9298
15622TIP3    H268282   5.386   4.496   3.963  0.9662  2.1444 -0.0062
15623TIP3   OH268283   6.792   2.735   0.315 -0.3622 -0.4039 -0.1965
15623TIP3    H168284   6.820   2.733   0.224  3.1711  2.4900  0.6084
15623TIP3    H268285   6.820   2.651   0.351 -1.8377 -1.5981 -1.6796
15624TIP3   OH268286   6.131   6.413   2.064 -0.0933 -0.7554 -0.2550
15624TIP3    H168287   6.069   6.486   2.065 -1.7259 -2.0944  0.3546
15624TIP3    H268288   6.092   6.350   2.004  1.3281 -1.1192 -0.8215
15625TIP3   OH268289   0.984   2.650  14.393 -0.1040 -0.4417  0.0008
15625TIP3    H168290   0.955   2.713  14.327 -0.6450 -2.8344 -2.2377
15625TIP3    H268291   1.054   2.695  14.441 -0.9417  2.0520 -0.9455
15626TIP3   OH268292   0.339   0.909   0.238 -0.5021  0.2844  0.1175
15626TIP3    H168293   0.305   0.936   0.153  0.5021 -0.8531 -0.6860
15626TIP3    H268294   0.316   0.816   0.245  1.3448 -0.2293  0.0453
15627TIP3   OH268295   5.809   0.817   1.121 -0.3955  0.2926  0.3572
15627TIP3    H168296   5.902   0.797   1.104 -0.7534 -0.7963 -0.4597
15627TIP3    H268297   5.763   0.738   1.093 -1.3038 -0.8666  4.4671
15628TIP3   OH268298   1.072   2.423  13.153  0.6360  0.3609  0.1286
15628TIP3    H168299   1.070   2.519  13.155  0.9636  0.3683  1.8522
15628TIP3    H268300   1.154   2.402  13.108  0.6955  0.8949 -0.0209
15629TIP3   OH268301   2.332   4.635   2.176  0.2405 -0.1600  0.0063
15629TIP3    H168302   2.258   4.621   2.236  2.0667 -1.4490  2.1442
15629TIP3    H268303   2.293   4.671   2.097 -2.3276  2.0136  2.0748
15630TIP3   OH268304   0.875   1.295   1.298  0.1530  0.1161  0.1646
15630TIP3    H168305   0.848   1.207   1.271 -0.8965  0.9304 -1.5924
15630TIP3    H268306   0.885   1.288   1.393  0.2289 -1.9190  0.0601
15631TIP3   OH268307   4.646   2.007   0.745  0.1901 -0.2989 -0.3419
15631TIP3    H168308   4.563   1.960   0.743  0.2028 -0.3736  0.6493
15631TIP3    H268309   4.645   2.059   0.664 -2.1019  1.8759  0.9326
15632TIP3   OH268310   4.840   6.993   1.321  0.0788 -0.3450  0.2321
15632TIP3    H168311   4.863   7.062   1.384 -0.3145  0.4110 -0.4341
15632TIP3    H268312   4.877   6.913   1.358 -0.9178 -0.0834  1.8919
15633TIP3   OH268313   0.827   5.541  15.390 -0.0681 -0.1153 -0.0430
15633TIP3    H168314   0.818   5.542  15.485  3.2264 -1.9258  0.4545
15633TIP3    H268315   0.770   5.611  15.359 -1.9733 -0.0909  3.1509
15634TIP3   OH268316   1.912   0.862   2.073 -0.8501 -0.2925  0.0044
15634TIP3    H168317   1.926   0.793   2.138  1.0259 -1.5622 -1.6232
15634TIP3    H268318   1.963   0.936   2.107 -3.4041  0.6946  2.0986
15635TIP3   OH268319   6.888   5.610   1.827 -0.6344  0.0517  0.2684
15635TIP3    H168320   6.922   5.621   1.738 -1.1310  1.7576  0.2610
15635TIP3    H268321   6.838   5.529   1.824  0.4491 -0.6112 -0.6488
15636TIP3   OH268322   5.607   5.241   4.056 -0.1668 -0.2974 -0.4999
15636TIP3    H168323   5.626   5.258   3.963 -0.0525  1.6969 -0.1423
15636TIP3    H268324   5.612   5.326   4.098 -0.2208 -1.1671  1.3709
15637TIP3   OH268325   3.507   4.186  11.836 -0.1182  0.2078  0.5288
15637TIP3    H168326   3.432   4.200  11.778  0.6904  0.8571 -0.3822
15637TIP3    H268327   3.468   4.171  11.922 -1.2984  0.2967  0.0256
15638TIP3   OH268328   4.544   4.207  13.630 -0.4935 -0.0496  0.0572
15638TIP3    H168329   4.505   4.156  13.559 -4.6554 -1.6857  3.0593
15638TIP3    H268330   4.611   4.150  13.666  0.5393  0.1340 -1.4941
15639TIP3   OH268331   0.642   5.256  13.265  0.3374 -0.2516 -0.3945
15639TIP3    H168332   0.625   5.173  13.310  2.6533  0.2896  1.6506
15639TIP3    H268333   0.737   5.262  13.259  0.2229  1.9606 -1.1086
15640TIP3   OH268334   2.282   2.774  13.652 -1.0741 -0.1515 -0.2819
15640TIP3    H168335   2.255   2.866  13.649 -1.1944 -0.1490  0.6252
15640TIP3    H268336   2.204   2.725  13.626 -0.1922  0.0744 -3.8974
15641TIP3   OH268337   7.123   4.272   4.218  0.0849 -0.4217 -0.3552
15641TIP3    H168338   7.159   4.257   4.130 -0.0906  1.0474 -0.7021
15641TIP3    H268339   7.198   4.259   4.276  0.9243  1.2725 -0.9710
15642TIP3   OH268340   2.982   2.453  13.171 -0.0369 -0.5353 -0.3237
15642TIP3    H168341   2.996   2.372  13.122  0.2469  0.5165 -2.0596
15642TIP3    H268342   3.036   2.518  13.126 -1.1746  0.8913  0.2863
15643TIP3   OH268343   3.962   5.904   1.559  0.0740 -0.2298 -0.0337
15643TIP3    H168344   4.056   5.905   1.579 -0.1237  0.0318  0.9360
15643TIP3    H268345   3.925   5.841   1.620 -0.3256 -0.6738 -0.7211
15644TIP3   OH268346   4.543   7.032   4.659  0.5565  0.2338 -0.3270
15644TIP3    H168347   4.454   7.068   4.656  1.3949  2.4195 -1.0622
15644TIP3    H268348   4.538   6.950   4.609 -1.4358 -0.7649  1.3671
15645TIP3   OH268349   6.796   1.061   4.029  0.4013  0.5604 -0.0375
15645TIP3    H168350   6.849   1.107   3.964  1.1640  0.1649  0.2869
15645TIP3    H268351   6.806   0.968   4.008 -2.0721  0.5350 -1.4103
15646TIP3   OH268352   5.050   3.800   2.613  0.2597  0.2845  0.3705
15646TIP3    H168353   4.959   3.823   2.595  0.1358 -1.1988 -1.1178
15646TIP3    H268354   5.096   3.884   2.617 -1.2551  1.0900  1.7768
15647TIP3   OH268355   2.584   2.494   4.107  0.2505  0.2630 -0.1942
15647TIP3    H168356   2.661   2.490   4.050  1.0180  0.2276  0.8229
15647TIP3    H268357   2.613   2.454   4.189 -0.7438  0.5937  0.3271
15648TIP3   OH268358   2.300   2.827   2.620 -0.1526 -0.2357  0.3470
15648TIP3    H168359   2.231   2.792   2.564  0.7538  0.0508 -1.0034
15648TIP3    H268360   2.344   2.749   2.655  0.3843 -0.4530 -0.7742
15649TIP3   OH268361   5.069   5.586  11.486 -0.0885  0.5158 -0.0256
15649TIP3    H168362   5.030   5.576  11.573 -1.7353 -0.7403 -0.8535
15649TIP3    H268363   5.136   5.518  11.483  1.0907  1.5844  0.7853
15650TIP3   OH268364   3.612   5.878   4.117  0.2267 -0.2544  0.6116
15650TIP3    H168365   3.528   5.836   4.134  0.1092 -0.1537  0.2853
15650TIP3    H268366   3.652   5.889   4.203  0.0166 -0.5344  0.7433
15651TIP3   OH268367   6.237   3.249   0.802  0.2253 -0.0795  0.2841
15651TIP3    H168368   6.179   3.220   0.872 -0.3486  0.8418  0.1982
15651TIP3    H268369   6.297   3.310   0.844 -0.3627  0.7697 -0.0940
15652TIP3   OH268370   4.025   0.048   1.528 -0.3920  0.0750 -0.3496
15652TIP3    H168371   4.044   0.134   1.491 -1.7235  0.8055  0.5954
15652TIP3    H268372   4.099   0.029   1.586 -0.2710  0.7384 -0.2850
15653TIP3   OH268373   0.473   5.512  14.489  0.5427 -0.7252 -0.5551
15653TIP3    H168374   0.538   5.532  14.556  1.1036  0.8651 -1.5218
15653TIP3    H268375   0.523   5.509  14.408 -0.5840  0.8315 -1.3584
15654TIP3   OH268376   4.818   2.988   2.630  0.2422  0.5100 -0.8929
15654TIP3    H168377   4.862   2.925   2.686 -0.3359  1.0468  0.1898
15654TIP3    H268378   4.788   3.057   2.690 -1.4785  0.4886 -1.6838
15655TIP3   OH268379   2.173   5.963   4.530 -0.3208  0.0646 -0.1773
15655TIP3    H168380   2.167   5.985   4.623 -0.7962  1.8508 -0.5920
15655TIP3    H268381   2.261   5.925   4.520 -0.5176 -0.7776  1.0996
15656TIP3   OH268382   0.871   5.893  12.171 -0.3431  0.1354  0.1368
15656TIP3    H168383   0.802   5.892  12.104 -1.4400  0.1624  1.2316
15656TIP3    H268384   0.891   5.986  12.182  2.4768  0.0359 -2.6951
15657TIP3   OH268385   2.821   1.502   1.834 -0.1513 -0.0426 -0.3816
15657TIP3    H168386   2.805   1.567   1.766  0.0580  0.7016  0.2649
15657TIP3    H268387   2.835   1.553   1.914  0.4910 -0.8596  0.0492
15658TIP3   OH268388   4.540   1.462   1.254  0.2258  0.3775 -0.4071
15658TIP3    H168389   4.561   1.551   1.223  0.2285 -0.6042 -3.6258
15658TIP3    H268390   4.452   1.445   1.220  1.1826 -1.6628 -2.1264
15659TIP3   OH268391   3.237   6.563   0.274  0.3913 -0.2663 -0.0326
15659TIP3    H168392   3.233   6.485   0.329 -0.3685 -1.3912 -1.6153
15659TIP3    H268393   3.308   6.616   0.312  1.9746 -2.4216  0.1736
15660TIP3   OH268394   3.528   5.064  13.862 -0.5721 -0.2760  0.0622
15660TIP3    H168395   3.492   4.977  13.848 -2.8504  0.4225  1.0233
15660TIP3    H268396   3.476   5.100  13.934  0.4636  1.7824 -0.1300
15661TIP3   OH268397   1.730   6.376   2.189 -0.1985  0.1240 -0.0724
15661TIP3    H168398   1.680   6.455   2.168 -1.4584  0.1092  2.4601
15661TIP3    H268399   1.749   6.385   2.283  0.5989 -2.0586  0.0143
15662TIP3   OH268400   4.465   3.071   2.334 -0.1009 -0.0392  0.4057
15662TIP3    H168401   4.379   3.061   2.292  0.8086 -3.3019 -0.9853
15662TIP3    H268402   4.453   3.144   2.394 -4.1862 -0.9542  1.0473
15663TIP3   OH268403   7.128   1.664   5.196 -0.7448 -0.4662 -0.5135
15663TIP3    H168404   7.156   1.618   5.275 -2.4738 -0.8078 -0.0602
15663TIP3    H268405   7.171   1.750   5.202 -0.5359 -0.6368  0.5876
15664TIP3   OH268406   4.162   5.793   4.605 -0.3845 -0.1093  0.2912
15664TIP3    H168407   4.145   5.784   4.699  0.1583  1.0135  0.5167
15664TIP3    H268408   4.257   5.795   4.598 -0.4260  0.7385 -0.1814
15665TIP3   OH268409   6.023   6.930  13.878 -0.1270  0.6590  0.0954
15665TIP3    H168410   6.036   7.024  13.892 -0.7499  0.8199 -0.3649
15665TIP3    H268411   6.076   6.910  13.800 -1.2138  0.9551 -0.7343
15666TIP3   OH268412   3.036   6.028   5.482  0.1260  0.2065  0.3732
15666TIP3    H168413   3.061   5.998   5.394 -0.3565  0.4162  0.1613
15666TIP3    H268414   3.017   6.122   5.471  0.2717  0.2811  0.7441
15667TIP3   OH268415   1.116   3.338   2.138  0.0601 -0.4869  0.3553
15667TIP3    H168416   1.148   3.402   2.074 -1.7514 -1.1229 -1.2951
15667TIP3    H268417   1.035   3.376   2.172 -0.5399 -1.4682  0.0574
15668TIP3   OH268418   2.027   6.797  15.354 -0.0971 -0.4032 -0.2796
15668TIP3    H168419   1.961   6.786  15.423  0.6049  0.8318  0.6132
15668TIP3    H268420   2.006   6.728  15.291 -1.4609 -0.8426  0.5983
15669TIP3   OH268421   1.852   3.785  15.453  0.2500  0.1952  0.5814
15669TIP3    H168422   1.841   3.702  15.406 -2.5848 -0.1917  1.7258
15669TIP3    H268423   1.890   3.759  15.537  0.2681  0.1780  0.5679
15670TIP3   OH268424   6.765   6.689  14.025 -0.4219  0.0984 -0.1549
15670TIP3    H168425   6.670   6.676  14.020 -0.3634 -0.4276  0.1429
15670TIP3    H268426   6.792   6.643  14.104  0.3855 -1.5494 -1.3279
15671TIP3   OH268427   0.837   3.865  15.458 -0.3934 -0.9283 -0.1809
15671TIP3    H168428   0.870   3.886  15.371  0.2526  0.6071  0.4084
15671TIP3    H268429   0.909   3.820  15.501 -0.7060 -1.6693 -0.4094
15672TIP3   OH268430   1.593   6.671   2.599  0.0851 -0.5947 -0.3167
15672TIP3    H168431   1.635   6.701   2.518 -0.6452  0.2542 -0.4017
15672TIP3    H268432   1.542   6.747   2.629  0.1949 -0.9509  0.8412
15673TIP3   OH268433   2.017   3.910   2.501  0.3782  0.0386 -0.1009
15673TIP3    H168434   1.973   3.976   2.448  2.9812  1.0159 -1.2168
15673TIP3    H268435   2.067   3.961   2.565  3.2896 -0.6561 -1.6435
15674TIP3   OH268436   3.590   2.974   4.626 -0.0517  0.6673  0.2103
15674TIP3    H168437   3.601   2.997   4.718 -0.2058  1.2236  0.0971
15674TIP3    H268438   3.495   2.974   4.613 -0.0843 -0.6513  0.3474
15675TIP3   OH268439   7.087   0.350   3.970 -0.3787 -0.1193 -0.6924
15675TIP3    H168440   7.123   0.437   3.986 -1.5552  0.9126 -3.0958
15675TIP3    H268441   7.164   0.294   3.961  0.3855  0.1229  2.9947
15676TIP3   OH268442   3.703   5.652  10.753  0.2645 -0.1632  0.4557
15676TIP3    H168443   3.699   5.565  10.713 -0.6313 -0.7223  1.6960
15676TIP3    H268444   3.611   5.675  10.769  0.5466  0.5757  1.0572
15677TIP3   OH268445   3.314   6.585  15.091 -0.1748  0.0754 -0.0352
15677TIP3    H168446   3.357   6.541  15.164  0.3822  1.3516  0.4297
15677TIP3    H268447   3.272   6.514  15.041  1.3476 -1.0639  0.2407
15678TIP3   OH268448   7.066   1.130   1.362 -0.5980 -0.2090  0.0592
15678TIP3    H168449   7.125   1.204   1.376  1.8442 -2.2614  1.6607
15678TIP3    H268450   7.121   1.064   1.319 -2.5242 -1.2891 -0.8300
15679TIP3   OH268451   2.883   4.586   4.509  0.2053  0.3840 -0.5289
15679TIP3    H168452   2.942   4.658   4.489  0.5835  0.0755 -0.5262
15679TIP3    H268453   2.862   4.597   4.602 -1.5099  1.7852 -1.0104
15680TIP3   OH268454   4.818   3.874   2.422  0.2664 -0.4992 -0.3349
15680TIP3    H168455   4.736   3.830   2.445 -0.1958 -0.4336 -1.7598
15680TIP3    H268456   4.855   3.820   2.352  1.0014 -0.0478 -0.3039
15681TIP3   OH268457   0.047   6.596   1.450 -1.1010 -0.9959  0.3008
15681TIP3    H168458   0.048   6.509   1.409  0.5748 -1.8532  2.0145
15681TIP3    H268459   0.050   6.578   1.544 -2.4037  0.9303  0.7458
15682TIP3   OH268460   4.537   2.854   4.577  0.4184 -0.2271  0.2705
15682TIP3    H168461   4.487   2.811   4.508  0.0841  1.5203 -0.6251
15682TIP3    H268462   4.476   2.858   4.651 -0.3855  0.8315 -0.4280
15683TIP3   OH268463   7.052   3.752   2.380  0.3819 -0.7091  0.2305
15683TIP3    H168464   6.970   3.716   2.413 -0.0566  0.3297  0.3165
15683TIP3    H268465   7.074   3.822   2.441  1.1892 -0.7966  0.0517
15684TIP3   OH268466   2.961   3.280  12.135  0.3425 -0.3654 -0.1563
15684TIP3    H168467   3.056   3.291  12.133  0.4125 -0.9403 -0.2738
15684TIP3    H268468   2.945   3.230  12.215  0.1810 -0.6245 -0.3477
15685TIP3   OH268469   0.738   1.895  13.542 -0.5593 -0.3354 -0.8653
15685TIP3    H168470   0.759   1.815  13.590 -0.5794 -0.6692 -1.4076
15685TIP3    H268471   0.775   1.965  13.595  1.2458 -0.8369 -1.3999
15686TIP3   OH268472   4.785   2.432  12.781  0.0026  0.0694 -0.2958
15686TIP3    H168473   4.781   2.414  12.875  0.8860  1.8262  0.1166
15686TIP3    H268474   4.833   2.358  12.744  0.3021 -0.2669  0.7410
15687TIP3   OH268475   6.015   1.348   4.393  0.2736  0.2145  0.0952
15687TIP3    H168476   6.064   1.369   4.473  0.1367 -0.1094  0.2630
15687TIP3    H268477   5.969   1.429   4.372  0.9077  0.5418 -0.0873
15688TIP3   OH268478   5.271   2.168   4.337 -0.0822  0.2510 -0.2028
15688TIP3    H168479   5.221   2.227   4.282 -1.2763 -1.4538 -1.0471
15688TIP3    H268480   5.302   2.100   4.277  2.8315  0.9243  0.3891
15689TIP3   OH268481   5.728   6.687   0.978 -0.3141  0.6454  0.2083
15689TIP3    H168482   5.743   6.698   0.885 -1.4139  2.2741  0.1794
15689TIP3    H268483   5.815   6.692   1.018  0.2878 -1.1971 -0.7776
15690TIP3   OH268484   1.450   0.615   0.309 -0.1628  0.2235 -0.1962
15690TIP3    H168485   1.400   0.549   0.357  0.4571 -1.3128 -1.5895
15690TIP3    H268486   1.525   0.567   0.273  0.3424  1.7083 -1.2129
15691TIP3   OH268487   4.939   5.582   1.785  0.7687 -0.1540  0.6223
15691TIP3    H168488   4.974   5.650   1.843 -0.7347  0.1454  1.2195
15691TIP3    H268489   4.972   5.500   1.822  1.3525  0.1542  0.7977
15692TIP3   OH268490   5.705   4.517   0.591 -0.2459  0.1828  0.0081
15692TIP3    H168491   5.728   4.558   0.508  0.1658 -1.9634 -1.0334
15692TIP3    H268492   5.788   4.504   0.636 -0.2494 -0.3770 -0.1354
15693TIP3   OH268493   4.231   4.692   2.421  0.4392 -0.0408  0.0467
15693TIP3    H168494   4.204   4.722   2.508  2.3111  0.8428  0.3809
15693TIP3    H268495   4.319   4.656   2.434  0.7721  0.1480 -1.4649
15694TIP3   OH268496   3.454   6.823  13.932 -0.5493 -0.0388  0.1953
15694TIP3    H168497   3.519   6.777  13.985  1.8064  2.4874 -0.2709
15694TIP3    H268498   3.430   6.900  13.984  0.0941  1.2841 -1.3818
15695TIP3   OH268499   2.693   0.090   4.233 -1.0124  0.2926  0.8730
15695TIP3    H168500   2.773   0.095   4.286  0.7232  2.3651 -1.6382
15695TIP3    H268501   2.655   0.178   4.239 -1.1920  0.3516 -0.5849
15696TIP3   OH268502   6.439   4.125  15.227 -0.0086 -0.3776  0.3122
15696TIP3    H168503   6.506   4.084  15.173 -1.1892 -1.6209 -0.2646
15696TIP3    H268504   6.357   4.089  15.195 -0.7409 -1.7615  3.3729
15697TIP3   OH268505   2.752   0.499   5.200 -0.0953 -0.2303  0.5201
15697TIP3    H168506   2.789   0.545   5.276  0.9205 -1.8493  1.0593
15697TIP3    H268507   2.694   0.563   5.160 -1.7328  0.3193  3.4317
15698TIP3   OH268508   5.063   3.673   1.919 -0.1215  0.2292  0.5624
15698TIP3    H168509   5.045   3.634   1.833  0.2695  0.9401  0.1489
15698TIP3    H268510   5.084   3.598   1.975  0.4884 -0.1774 -0.1859
15699TIP3   OH268511   6.471   1.398  13.531 -0.6090 -0.3542 -0.0968
15699TIP3    H168512   6.561   1.367  13.541 -0.9799 -1.8274 -1.0333
15699TIP3    H268513   6.467   1.430  13.441 -0.7012  0.8728  0.3300
15700TIP3   OH268514   5.358   0.302  13.462  0.4466  0.0568  0.1885
15700TIP3    H168515   5.433   0.358  13.441  0.1893  0.8411  1.2793
15700TIP3    H268516   5.335   0.325  13.552 -0.4359 -0.9471  0.2458
15701TIP3   OH268517   0.530   4.150  13.920 -0.3079  0.3890  0.1144
15701TIP3    H168518   0.445   4.154  13.965 -0.2371  0.0921  0.2736
15701TIP3    H268519   0.592   4.126  13.988 -0.2093 -0.1410 -0.1594
15702TIP3   OH268520   3.326   3.952  14.515 -0.8071  0.3908  0.0976
15702TIP3    H168521   3.414   3.957  14.479 -0.3369 -0.4213  1.0825
15702TIP3    H268522   3.302   3.860  14.508 -1.0114  0.3526  1.1066
15703TIP3   OH268523   4.572   3.613   0.071  0.2458 -0.0780 -0.3427
15703TIP3    H168524   4.626   3.614   0.150 -0.2544 -0.3457  0.0085
15703TIP3    H268525   4.632   3.638   0.001  0.9149 -0.7025 -0.0131
15704TIP3   OH268526   5.283   6.771   3.849  0.9973  0.1530  0.2923
15704TIP3    H168527   5.258   6.679   3.863  0.7377 -0.0528 -1.3392
15704TIP3    H268528   5.205   6.820   3.874  1.2606 -0.0077  1.5388
15705TIP3   OH268529   2.548   5.015  15.005  0.3300  0.4715  0.2250
15705TIP3    H168530   2.502   4.936  14.976  1.8722 -0.0482 -0.9194
15705TIP3    H268531   2.525   5.023  15.098 -4.5686  2.0229 -0.7885
15706TIP3   OH268532   6.992   5.296   2.133  0.1954  0.7369  0.1942
15706TIP3    H168533   6.942   5.265   2.208  0.7763 -2.7301 -0.7002
15706TIP3    H268534   7.082   5.304   2.166  0.5697 -1.3967 -0.2125
15707TIP3   OH268535   0.346   3.653   2.643 -0.4760 -0.3055  0.0987
15707TIP3    H168536   0.289   3.725   2.615 -1.6175 -2.6922 -4.7019
15707TIP3    H268537   0.291   3.601   2.702 -0.7604  0.9895  1.0267
15708TIP3   OH268538   2.885   3.451   1.351 -0.4699  0.0495  0.3189
15708TIP3    H168539   2.918   3.519   1.293 -0.6253 -0.4350 -0.3411
15708TIP3    H268540   2.858   3.499   1.430  0.7420  0.5849  0.4304
15709TIP3   OH268541   2.534   0.662  11.145  0.1320 -0.1379 -0.2954
15709TIP3    H168542   2.461   0.721  11.125  0.1516  0.2422  0.6720
15709TIP3    H268543   2.597   0.676  11.074 -0.5391 -0.1425 -0.8979
15710TIP3   OH268544   5.432   4.733   4.959  0.0061 -0.5082 -0.0344
15710TIP3    H168545   5.475   4.678   5.025 -0.2968 -0.6951  0.0106
15710TIP3    H268546   5.339   4.731   4.983 -0.3512 -1.8665 -1.3622
15711TIP3   OH268547   6.148   4.358   2.660  0.1777 -0.1813  0.8222
15711TIP3    H168548   6.225   4.332   2.611  0.0067 -2.6858  1.7043
15711TIP3    H268549   6.098   4.413   2.600  1.2250 -0.9626 -0.8412
15712TIP3   OH268550   3.020   0.938   0.545  0.3736  0.5898 -0.3565
15712TIP3    H168551   2.986   0.963   0.459 -2.4355  1.2955  0.8153
15712TIP3    H268552   2.991   0.848   0.557  0.9527  0.4173 -0.2363
15713TIP3   OH268553   0.600   0.397   5.787  0.2517 -0.3550  0.2983
15713TIP3    H168554   0.609   0.492   5.778 -0.2677  0.0519  3.0211
15713TIP3    H268555   0.689   0.367   5.807  0.4696 -0.5286 -0.8424
15714TIP3   OH268556   2.482   4.737   4.422  0.0375 -0.0051  0.0920
15714TIP3    H168557   2.434   4.798   4.478 -1.7037  0.7294 -2.0568
15714TIP3    H268558   2.476   4.653   4.468 -2.1064  0.3687  0.5977
15715TIP3   OH268559   1.849   4.549   1.249  0.5374 -0.2393  0.0851
15715TIP3    H168560   1.783   4.516   1.310 -0.2821  1.3598  0.1009
15715TIP3    H268561   1.931   4.542   1.298  0.4297 -2.2030  0.0782
15716TIP3   OH268562   3.945   7.067   4.027 -0.0788 -0.5919  0.3492
15716TIP3    H168563   4.000   6.989   4.030  0.2556 -0.3458  0.6214
15716TIP3    H268564   3.941   7.098   4.117 -1.3797 -1.1027  0.4863
15717TIP3   OH268565   3.320   4.316  12.878 -0.7496 -0.0103 -0.4590
15717TIP3    H168566   3.315   4.254  12.951 -0.0600  0.1715 -0.2443
15717TIP3    H268567   3.369   4.270  12.810  3.2490  1.5066  1.0843
15718TIP3   OH268568   1.205   5.833   3.075  0.1359 -0.7021 -0.1579
15718TIP3    H168569   1.236   5.848   2.985 -1.4696 -0.4927 -0.6999
15718TIP3    H268570   1.170   5.744   3.074 -0.6448 -0.4013  0.0316
15719TIP3   OH268571   0.802   1.472   4.124 -0.3214  0.4339  0.4696
15719TIP3    H168572   0.878   1.419   4.100 -1.4529  0.1757 -3.1975
15719TIP3    H268573   0.818   1.557   4.083 -1.4680  0.7681  0.6733
15720TIP3   OH268574   6.850   0.918   0.766 -0.1320  0.1119 -0.2409
15720TIP3    H168575   6.897   0.836   0.753 -0.2105 -0.1168  0.8768
15720TIP3    H268576   6.761   0.892   0.790 -0.1009  0.5131  0.3419
15721TIP3   OH268577   6.804   6.820   1.961  0.4404  0.1223 -0.5994
15721TIP3    H168578   6.822   6.821   1.867  0.4663  0.3216 -0.5915
15721TIP3    H268579   6.891   6.811   2.002  0.3564 -1.0083 -0.6199
15722TIP3   OH268580   4.669   0.898   2.773 -0.2927 -0.1639 -0.3048
15722TIP3    H168581   4.735   0.960   2.741  0.2548 -1.4251 -1.7288
15722TIP3    H268582   4.604   0.895   2.703 -0.4970 -0.9228 -0.0832
15723TIP3   OH268583   4.564   3.894   4.116 -0.2541 -0.3411 -0.2498
15723TIP3    H168584   4.470   3.901   4.133 -0.1623 -2.0336  1.3241
15723TIP3    H268585   4.601   3.870   4.201  1.5145 -0.3763 -0.9998
15724TIP3   OH268586   3.426   6.877  13.042  0.2476 -0.2567  0.2838
15724TIP3    H168587   3.410   6.934  13.117  1.0011  2.4355 -1.4612
15724TIP3    H268588   3.517   6.894  13.018 -0.5766  0.7083 -2.5509
15725TIP3   OH268589   1.424   2.280   2.089  0.8037  0.1490 -0.2617
15725TIP3    H168590   1.356   2.286   2.155 -0.3931 -2.0792 -1.1809
15725TIP3    H268591   1.468   2.365   2.092  0.8472  0.1542  3.3522
15726TIP3   OH268592   0.076   6.581  15.389 -0.1820  0.6213 -0.3101
15726TIP3    H168593   0.137   6.507  15.390 -1.1520 -0.2232 -1.1942
15726TIP3    H268594   0.095   6.626  15.306 -1.4376 -0.2537 -1.0955
15727TIP3   OH268595   1.189   3.873   4.090 -0.4398  0.1355  0.6013
15727TIP3    H168596   1.220   3.788   4.060 -0.7588  0.5237 -0.9171
15727TIP3    H268597   1.195   3.869   4.185 -0.7639 -1.6931  0.5711
15728TIP3   OH268598   1.030   4.078   5.303  0.2470  0.0190 -0.3931
15728TIP3    H168599   1.038   4.171   5.283  1.9062  0.0568  0.2865
15728TIP3    H268600   1.050   4.035   5.220 -1.5570  0.2363 -0.9883
15729TIP3   OH268601   6.778   6.201   0.725  0.1603  0.2458 -0.2604
15729TIP3    H168602   6.832   6.274   0.757 -0.7859  1.1680 -0.6873
15729TIP3    H268603   6.841   6.137   0.693  1.0365  1.6051 -1.4285
15730TIP3   OH268604   3.181   3.909  11.459 -0.3091 -0.3801 -0.4594
15730TIP3    H168605   3.220   3.979  11.407  0.0864 -0.0298  0.2875
15730TIP3    H268606   3.193   3.830  11.407  2.3896 -0.4787  0.1746
15731TIP3   OH268607   2.655   1.629   3.153 -0.8650  0.0733 -0.3179
15731TIP3    H168608   2.581   1.667   3.201 -0.7419 -1.6061  1.3249
15731TIP3    H268609   2.671   1.545   3.197  1.9039  0.3060 -0.7326
15732TIP3   OH268610   3.092   2.251   1.407  0.2008 -0.1521  0.1877
15732TIP3    H168611   3.029   2.220   1.472  1.6462 -0.7577  1.3431
15732TIP3    H268612   3.130   2.329   1.446  1.3205 -0.7055  0.2183
15733TIP3   OH268613   6.622   0.890   1.404 -0.2442 -0.1896  0.6448
15733TIP3    H168614   6.712   0.915   1.387 -0.3687 -0.1596  0.0077
15733TIP3    H268615   6.628   0.801   1.441 -0.0614 -1.0599 -1.3489
15734TIP3   OH268616   3.781   2.227   6.127  0.0895  0.7532  0.4426
15734TIP3    H168617   3.855   2.273   6.167  1.2145  0.0319 -0.6832
15734TIP3    H268618   3.819   2.188   6.048 -1.1493 -0.8673  0.6000
15735TIP3   OH268619   0.482   2.255   0.337  0.2042  0.1677  0.1513
15735TIP3    H168620   0.469   2.161   0.324 -0.5581  0.2336  0.3664
15735TIP3    H268621   0.563   2.275   0.289 -0.3667 -0.3456 -1.0836
15736TIP3   OH268622   1.788   0.433  15.206 -0.2846  0.0710 -0.3541
15736TIP3    H168623   1.747   0.486  15.138 -0.0891  2.0935  1.0157
15736TIP3    H268624   1.857   0.384  15.160 -1.7544 -0.5598 -2.0067
15737TIP3   OH268625   4.865   0.968   0.957 -0.0267  0.0544 -0.4269
15737TIP3    H168626   4.899   1.039   1.012  0.6343 -0.8062  0.3116
15737TIP3    H268627   4.775   0.994   0.938  1.0214  2.5167 -2.6364
15738TIP3   OH268628   1.492   3.593   4.850  0.5544 -0.0296 -0.8295
15738TIP3    H168629   1.426   3.531   4.820  2.7833 -2.3590 -1.3175
15738TIP3    H268630   1.536   3.622   4.769  2.9245 -1.9909 -0.3806
15739TIP3   OH268631   5.701   0.060  15.216  0.1142  0.3162 -0.1074
15739TIP3    H168632   5.726   0.041  15.307  0.2274 -1.2169 -0.4353
15739TIP3    H268633   5.768   0.122  15.186  0.5783  0.1767  0.5978
15740TIP3   OH268634   3.453   4.809   3.662 -0.0546  0.0813 -0.4972
15740TIP3    H168635   3.440   4.734   3.605 -0.5149 -0.8331  0.7724
15740TIP3    H268636   3.406   4.787   3.743 -0.2010  1.7283 -0.0900
15741TIP3   OH268637   3.462   5.757   4.968  0.2715  0.1025 -0.6845
15741TIP3    H168638   3.400   5.830   4.958  0.0448 -0.1159 -0.8638
15741TIP3    H268639   3.541   5.798   5.004 -0.7038  0.0718  1.6585
15742TIP3   OH268640   5.605   3.894   0.433  0.6297  0.1568 -0.1976
15742TIP3    H168641   5.664   3.957   0.392  1.3101  0.6894  1.4872
15742TIP3    H268642   5.626   3.811   0.391  1.2431  0.6848 -0.9649
15743TIP3   OH268643   1.817   5.476  15.341 -0.3981  0.6289  0.0209
15743TIP3    H168644   1.788   5.401  15.392 -0.9413  1.3324  0.7851
15743TIP3    H268645   1.825   5.443  15.251  0.1678 -0.5292  0.4755
15744TIP3   OH268646   6.780   5.945   4.460 -0.1681 -0.2131  0.1941
15744TIP3    H168647   6.866   5.937   4.419 -0.4270 -1.1290 -0.1831
15744TIP3    H268648   6.761   5.858   4.495 -0.4086  0.2912  1.3705
15745TIP3   OH268649   6.844   5.754   4.850  0.7604  0.1266  0.2891
15745TIP3    H168650   6.830   5.661   4.830  1.8276 -0.0272  0.1958
15745TIP3    H268651   6.758   5.786   4.878  0.9096 -1.5102  2.8497
15746TIP3   OH268652   2.131   3.057  14.719 -0.3944 -0.2451  0.2891
15746TIP3    H168653   2.111   2.964  14.733 -0.5781  0.0631  2.3064
15746TIP3    H268654   2.050   3.102  14.738 -0.1416  0.3873 -0.1119
15747TIP3   OH268655   0.421   4.485   3.592 -0.2303 -0.1807  0.0133
15747TIP3    H168656   0.336   4.456   3.557 -1.8114  2.5872  1.1863
15747TIP3    H268657   0.471   4.512   3.515 -1.2650  0.0907 -0.5827
15748TIP3   OH268658   4.315   7.040   5.239 -0.4253 -0.1115 -0.1666
15748TIP3    H168659   4.359   6.958   5.214 -1.2014 -0.4651 -0.4102
15748TIP3    H268660   4.278   7.072   5.157 -1.2929 -0.2346  0.1686
15749TIP3   OH268661   0.898   1.460   4.962 -0.0574  0.0987 -0.1622
15749TIP3    H168662   0.961   1.405   5.008  0.4172 -0.6599 -1.6573
15749TIP3    H268663   0.952   1.522   4.913 -0.5433  0.7068  0.0509
15750TIP3   OH268664   3.058   1.186   2.669 -0.7130  0.5332  0.1282
15750TIP3    H168665   3.143   1.228   2.676 -1.1773  1.3886  0.9164
15750TIP3    H268666   3.050   1.162   2.577  1.5831 -2.2394  0.5035
15751TIP3   OH268667   1.460   6.462  11.157 -0.1224  0.2476 -0.7831
15751TIP3    H168668   1.496   6.509  11.082 -1.2449 -1.8141 -2.7485
15751TIP3    H268669   1.511   6.381  11.162  0.5469  0.7551  1.3168
15752TIP3   OH268670   1.151   5.332  12.444  0.0238  0.5644 -0.2570
15752TIP3    H168671   1.058   5.321  12.462  0.4668  0.1040  2.1917
15752TIP3    H268672   1.195   5.290  12.519  2.1631  2.1696 -0.5089
15753TIP3   OH268673   1.324   2.204  13.428  0.3683  0.8413 -0.4288
15753TIP3    H168674   1.261   2.133  13.438  0.5190  0.8200  0.4059
15753TIP3    H268675   1.387   2.172  13.363 -0.0627  0.5731 -0.7149
15754TIP3   OH268676   3.429   6.145  15.028 -0.3272  0.2866 -0.1949
15754TIP3    H168677   3.481   6.105  15.098 -0.2850  0.0657 -0.3516
15754TIP3    H268678   3.494   6.181  14.967 -0.3508  1.8825  0.6576
15755TIP3   OH268679   3.713   3.087   5.794  0.0156 -0.2819  0.8688
15755TIP3    H168680   3.758   3.003   5.798 -0.2006 -0.5512 -1.3526
15755TIP3    H268681   3.783   3.152   5.788  0.2182 -0.6131 -1.2441
15756TIP3   OH268682   6.941   1.989   3.177 -0.2577  0.0409 -0.8196
15756TIP3    H168683   6.920   2.057   3.113  1.7242  1.1784 -0.3477
15756TIP3    H268684   6.961   2.037   3.257  0.0391 -1.1819 -0.1318
15757TIP3   OH268685   4.932   1.006   2.666 -0.1720  0.3518  0.3728
15757TIP3    H168686   4.947   1.084   2.719  2.0805 -0.1600  0.5968
15757TIP3    H268687   4.996   0.943   2.699  1.0615 -0.1356 -2.6671
15758TIP3   OH268688   1.341   6.040  14.844  0.6034 -0.2292  0.0341
15758TIP3    H168689   1.361   6.107  14.910  2.2511 -1.5758  1.0187
15758TIP3    H268690   1.419   6.038  14.788  0.0934 -0.5357 -0.6714
15759TIP3   OH268691   0.987   6.362  15.000  0.1297  0.1417  0.7226
15759TIP3    H168692   0.931   6.423  14.952  2.2493  0.6907 -1.2686
15759TIP3    H268693   0.986   6.282  14.948  1.8727  0.4820  0.1023
15760TIP3   OH268694   1.675   6.401   3.488  0.2876 -0.4075 -0.2050
15760TIP3    H168695   1.649   6.451   3.411 -0.2992  0.5203  0.5809
15760TIP3    H268696   1.625   6.438   3.560  1.4088 -0.7230  0.7849
15761TIP3   OH268697   2.997   5.135  10.089 -0.0146  0.0225  0.4298
15761TIP3    H168698   3.043   5.177  10.016 -0.6356  0.6016  0.3674
15761TIP3    H268699   3.017   5.042  10.079 -0.8388 -0.0269 -1.0368
15762TIP3   OH268700   4.840   1.645   4.260  0.2585  0.4608  0.4007
15762TIP3    H168701   4.781   1.719   4.248 -1.5439 -0.6597  1.7901
15762TIP3    H268702   4.822   1.615   4.350  0.8453 -1.7041 -0.1555
15763TIP3   OH268703   2.870   0.145   2.927 -0.0613 -0.1929 -0.3518
15763TIP3    H168704   2.864   0.194   3.009 -2.5055 -0.0399 -0.5584
15763TIP3    H268705   2.846   0.055   2.950  0.7305 -0.4977 -0.6557
15764TIP3   OH268706   4.851   3.024  13.131 -0.5539  0.8832 -0.3624
15764TIP3    H168707   4.794   3.031  13.207  2.0589  3.6279  1.5939
15764TIP3    H268708   4.910   2.952  13.152 -0.8238  0.6014 -0.5598
15765TIP3   OH268709   1.566   3.378   5.315  0.2702 -0.5687 -0.3717
15765TIP3    H168710   1.564   3.473   5.326  0.3429 -0.6326  0.2047
15765TIP3    H268711   1.474   3.352   5.314  0.2593 -0.5985  0.4711
15766TIP3   OH268712   3.987   2.856   5.679 -0.1687 -0.1709  0.3885
15766TIP3    H168713   3.935   2.853   5.759  0.6790  0.1459  0.9654
15766TIP3    H268714   4.063   2.801   5.697 -0.3728 -0.7722 -0.5094
15767TIP3   OH268715   2.645   0.390  13.555  0.1643 -0.5190  0.2449
15767TIP3    H168716   2.576   0.337  13.516  2.6344 -2.1898 -2.3113
15767TIP3    H268717   2.694   0.329  13.611  1.4092 -0.2780 -0.5334
15768TIP3   OH268718   4.029   3.203   1.245  0.4765 -0.0091 -0.3367
15768TIP3    H168719   4.001   3.257   1.171  0.0768  0.8385  0.4201
15768TIP3    H268720   4.049   3.265   1.314  0.1510 -0.8253  0.5164
15769TIP3   OH268721   4.168   3.459   4.758  0.2319  0.2074  0.4641
15769TIP3    H168722   4.103   3.528   4.773 -1.0504 -0.5209 -1.3411
15769TIP3    H268723   4.181   3.419   4.844 -2.0935  0.0932  0.8423
15770TIP3   OH268724   0.555   4.159   1.919 -0.1495 -0.0950 -0.3408
15770TIP3    H168725   0.615   4.098   1.875 -1.0551 -0.7672 -0.6823
15770TIP3    H268726   0.548   4.124   2.008 -0.0147  0.0020 -0.2915
15771TIP3   OH268727   4.201   1.665   0.927 -0.3568  0.2208 -0.2495
15771TIP3    H168728   4.185   1.730   0.996 -1.6330 -1.4063  1.0659
15771TIP3    H268729   4.115   1.627   0.909  0.1593 -0.2653 -1.8940
15772TIP3   OH268730   4.952   1.937   5.093 -0.4275 -1.0786 -0.6763
15772TIP3    H168731   5.040   1.912   5.122 -0.6489 -2.2586 -0.9945
15772TIP3    H268732   4.907   1.855   5.077 -1.5231 -0.4821 -0.7618
15773TIP3   OH268733   4.657   1.301  12.316  0.7212 -0.3194 -0.2356
15773TIP3    H168734   4.645   1.312  12.410  0.5052 -1.3372 -0.1293
15773TIP3    H268735   4.575   1.332  12.278  1.9222  3.0874 -0.3796
15774TIP3   OH268736   1.331   2.349   3.474  0.4617  0.4902  0.4155
15774TIP3    H168737   1.316   2.265   3.517  0.1635  0.0378 -0.5348
15774TIP3    H268738   1.275   2.411   3.521 -0.6835 -0.2073  0.0058
15775TIP3   OH268739   2.481   6.527   4.627  0.3512  0.1805  0.2542
15775TIP3    H168740   2.505   6.518   4.535 -0.1430 -0.9349  0.2187
15775TIP3    H268741   2.386   6.518   4.629  0.4838 -1.5466  1.0240
15776TIP3   OH268742   0.060   6.067   4.055  0.6766  0.2189  0.4495
15776TIP3    H168743   0.047   6.150   4.009 -0.2419 -0.0083  0.2686
15776TIP3    H268744   0.003   6.005   4.009 -0.3348  0.0002  1.9043
15777TIP3   OH268745   7.046   2.634   5.089  0.5081 -0.3453  0.1194
15777TIP3    H168746   6.951   2.630   5.096  0.5009 -0.1772  0.1138
15777TIP3    H268747   7.077   2.601   5.174  0.4647 -1.5528 -0.3207
15778TIP3   OH268748   5.957   6.369   0.992 -0.1502 -0.0827 -0.4170
15778TIP3    H168749   5.877   6.387   1.041 -0.0063 -0.9445  0.1652
15778TIP3    H268750   5.954   6.430   0.919 -2.0162 -0.9924 -1.1691
15779TIP3   OH268751   2.816   7.085  12.359  0.6007 -0.1375  0.0715
15779TIP3    H168752   2.821   7.032  12.439  1.1926 -0.7926 -0.3886
15779TIP3    H268753   2.905   7.086  12.325  0.3125 -0.0506 -0.6984
15780TIP3   OH268754   6.923   2.963   4.029  0.1045  0.2496 -1.0046
15780TIP3    H168755   6.985   2.893   4.048  0.0410  0.5761  0.5976
15780TIP3    H268756   6.839   2.919   4.018  0.0212  0.0418  0.2211
15781TIP3   OH268757   4.834   6.088   2.757 -0.3037 -1.3961  0.1026
15781TIP3    H168758   4.921   6.067   2.722  0.4474  1.0558  0.3323
15781TIP3    H268759   4.798   6.151   2.695 -0.2309  0.6494  2.0313
15782TIP3   OH268760   6.218   1.192   0.929 -0.2235  0.0265  0.3762
15782TIP3    H168761   6.302   1.146   0.919  0.9400  1.5756  2.2401
15782TIP3    H268762   6.159   1.148   0.868  2.1162 -0.6733 -1.5336
15783TIP3   OH268763   4.929   5.660   1.011  0.2014 -0.2511  0.1542
15783TIP3    H168764   4.973   5.729   1.062 -0.2429  0.3572 -0.2688
15783TIP3    H268765   4.990   5.641   0.941  0.1745 -0.0318  0.0696
15784TIP3   OH268766   6.147   5.996   3.422 -0.5246 -0.6280  0.1511
15784TIP3    H168767   6.139   5.922   3.361  1.9593 -1.7264  1.0345
15784TIP3    H268768   6.197   5.961   3.496 -0.2112  1.6748  1.1070
15785TIP3   OH268769   6.056   0.465   2.091 -0.1896 -0.3185  0.4201
15785TIP3    H168770   6.051   0.406   2.166 -0.6734 -2.7568 -1.3992
15785TIP3    H268771   6.099   0.544   2.125  0.1846 -1.5566  3.0739
15786TIP3   OH268772   3.643   1.500   2.413 -1.2741  0.0706 -0.1878
15786TIP3    H168773   3.687   1.445   2.478  0.2277  1.3773 -0.0342
15786TIP3    H268774   3.686   1.585   2.420 -1.6599  0.5124 -2.2900
15787TIP3   OH268775   1.694   1.395  13.189  0.1589  0.0440  0.4060
15787TIP3    H168776   1.682   1.335  13.262 -3.3433 -0.0161 -0.0403
15787TIP3    H268777   1.609   1.439  13.180  1.6636  2.9323 -1.1701
15788TIP3   OH268778   4.874   1.819  14.942 -0.1202  0.3753 -1.0329
15788TIP3    H168779   4.936   1.892  14.933  0.5534 -0.1540 -0.7999
15788TIP3    H268780   4.902   1.756  14.876  0.8194 -0.7089  0.3482
15789TIP3   OH268781   0.754   0.729   3.638 -0.0500  0.3094  0.1497
15789TIP3    H168782   0.800   0.733   3.555 -1.8750 -1.3134 -1.0183
15789TIP3    H268783   0.807   0.782   3.698  1.8000  0.7465 -1.7816
15790TIP3   OH268784   4.157   6.452   3.490  0.2173  0.2686 -0.6353
15790TIP3    H168785   4.213   6.376   3.471  1.3624  0.8965  0.0933
15790TIP3    H268786   4.090   6.419   3.549  0.4743 -0.2691 -0.6394
15791TIP3   OH268787   5.315   1.709  14.705 -0.2236  0.2323  0.3241
15791TIP3    H168788   5.322   1.717  14.610 -0.5558 -0.9833  0.1718
15791TIP3    H268789   5.398   1.743  14.738 -0.6099  1.8314 -0.3044
15792TIP3   OH268790   1.319   4.044   5.203 -0.3440 -0.2468 -0.4979
15792TIP3    H168791   1.277   4.104   5.264  0.7973  1.1455 -1.0060
15792TIP3    H268792   1.247   4.005   5.154 -1.1801 -0.1796  0.6500
15793TIP3   OH268793   5.256   3.394  13.012 -0.3175  0.4913 -0.2043
15793TIP3    H168794   5.300   3.479  13.012  1.4504 -0.3625 -0.8852
15793TIP3    H268795   5.229   3.381  12.921 -1.3516  0.6706  0.0633
15794TIP3   OH268796   1.736   3.931  13.387 -0.4422 -0.2281  0.0449
15794TIP3    H168797   1.725   3.974  13.302 -0.8923  3.9340  1.9331
15794TIP3    H268798   1.828   3.949  13.410  0.3754 -3.3391 -0.4166
15795TIP3   OH268799   1.371   0.745  12.111 -0.7549  0.0750 -0.0132
15795TIP3    H168800   1.332   0.747  12.024 -1.9413 -2.4871  0.3613
15795TIP3    H268801   1.317   0.804  12.164  0.0882  1.7918 -0.9926
15796TIP3   OH268802   0.092   4.014  14.980 -0.0683  0.6530  0.3355
15796TIP3    H168803   0.179   3.977  14.996 -0.4201  0.2113  1.3564
15796TIP3    H268804   0.061   4.039  15.068  0.5170  4.2784 -0.3084
15797TIP3   OH268805   2.794   5.287   0.623 -0.5294 -0.1898  0.1878
15797TIP3    H168806   2.773   5.223   0.555  0.6212  0.6956 -1.0597
15797TIP3    H268807   2.840   5.357   0.576 -0.1369  0.6839  1.8081
15798TIP3   OH268808   3.123   2.357   0.758  1.0932 -0.0551 -0.0520
15798TIP3    H168809   3.081   2.300   0.822  0.6340 -1.2294 -1.3381
15798TIP3    H268810   3.173   2.420   0.810 -1.6986  1.0318  1.5667
15799TIP3   OH268811   2.191   4.789   1.987  0.7375 -0.3035 -0.3750
15799TIP3    H168812   2.261   4.855   1.984  0.6859 -0.2410 -0.2140
15799TIP3    H268813   2.132   4.820   2.055  2.5585 -2.3625  2.3442
15800TIP3   OH268814   6.513   4.325  13.942 -0.0039 -0.6534  0.4230
15800TIP3    H168815   6.476   4.400  13.897 -0.7803 -1.9529 -1.2048
15800TIP3    H268816   6.490   4.338  14.034  2.2867  2.4589  0.7096
15801TIP3   OH268817   1.116   4.802   4.918 -0.2426 -0.1838  0.0942
15801TIP3    H168818   1.185   4.862   4.889  1.2309 -1.0184  1.6935
15801TIP3    H268819   1.104   4.822   5.010 -1.2158 -0.9539  0.1524
15802TIP3   OH268820   6.543   1.751   5.248 -0.2706 -0.0497  0.7145
15802TIP3    H168821   6.517   1.739   5.340  0.0890  1.3654  1.0257
15802TIP3    H268822   6.468   1.795   5.208 -0.7850 -1.4264  0.0806
15803TIP3   OH268823   2.046   0.678   3.170 -0.4896 -0.2759 -0.3137
15803TIP3    H168824   2.024   0.653   3.260  1.7121  0.2533  0.4274
15803TIP3    H268825   1.994   0.757   3.154 -0.7313 -0.2381  0.5892
15804TIP3   OH268826   0.983   3.939   1.919  0.4855  0.1265  0.3164
15804TIP3    H168827   1.049   3.926   1.851 -0.2865 -2.2590 -0.0880
15804TIP3    H268828   0.899   3.933   1.872 -0.0652  1.2947  1.0872
15805TIP3   OH268829   6.584   3.639   1.557  0.0134  0.0092 -0.3478
15805TIP3    H168830   6.560   3.547   1.570  0.8561 -0.1841 -0.0364
15805TIP3    H268831   6.619   3.666   1.641 -1.0494  0.8884 -0.1845
15806TIP3   OH268832   0.785   0.111   5.721  0.6177 -0.0561  0.0766
15806TIP3    H168833   0.816   0.199   5.740 -0.0146  0.3453 -0.6713
15806TIP3    H268834   0.859   0.054   5.743  1.5754  0.7866 -0.8412
15807TIP3   OH268835   3.758   5.767  14.246  0.0785  0.0444 -0.2535
15807TIP3    H168836   3.780   5.696  14.307  2.8561  1.6262  0.7733
15807TIP3    H268837   3.839   5.817  14.239 -1.2945  2.1194 -2.3152
15808TIP3   OH268838   5.640   6.049  10.017  0.5210  0.0197  0.2565
15808TIP3    H168839   5.679   6.035   9.930  1.4046 -1.7724  0.8932
15808TIP3    H268840   5.673   6.135  10.044  0.0066  0.7357 -1.2655
15809TIP3   OH268841   0.480   7.146   2.272 -0.0258 -0.4306 -0.1518
15809TIP3    H168842   0.455   7.123   2.362  0.5050 -0.5875 -0.0419
15809TIP3    H268843   0.568   7.110   2.262 -0.2701 -0.8325 -0.8948
15810TIP3   OH268844   0.882   6.488   1.835  0.6778  0.5062  0.4983
15810TIP3    H168845   0.932   6.484   1.916 -0.6971 -0.4013  1.3453
15810TIP3    H268846   0.865   6.397   1.813 -2.2947  0.7308  1.3926
15811TIP3   OH268847   6.787   3.083   2.746 -0.0018 -0.2271 -0.1812
15811TIP3    H168848   6.787   2.998   2.791  0.8136 -0.0372  0.2010
15811TIP3    H268849   6.816   3.062   2.657 -0.0256 -0.3793 -0.1540
15812TIP3   OH268850   3.343   2.994  10.886 -0.0971 -0.3108 -0.2310
15812TIP3    H168851   3.424   3.045  10.898 -0.8574  0.6125  1.2976
15812TIP3    H268852   3.344   2.931  10.958 -0.1295 -1.1830 -0.9755
15813TIP3   OH268853   2.035   2.383   1.719  0.0458  0.3963  0.3673
15813TIP3    H168854   1.948   2.347   1.734 -0.6517  0.1108 -3.3622
15813TIP3    H268855   2.020   2.476   1.703  0.7834  0.8071  1.8442
15814TIP3   OH268856   6.175   2.822  13.443 -0.4084  0.9538 -0.1734
15814TIP3    H168857   6.197   2.750  13.384 -0.3274  1.5605 -0.8830
15814TIP3    H268858   6.119   2.880  13.392 -1.6225  0.7112  0.8196
15815TIP3   OH268859   1.452   4.402   2.303  0.1681  0.0391 -0.4423
15815TIP3    H168860   1.468   4.322   2.353 -0.7031 -1.4638 -2.4563
15815TIP3    H268861   1.429   4.372   2.215 -4.0469  2.2487 -0.3551
15816TIP3   OH268862   1.629   3.790  14.405 -0.6043  0.1416  0.2176
15816TIP3    H168863   1.609   3.849  14.333  0.1587  1.3071  0.9393
15816TIP3    H268864   1.548   3.785  14.455 -0.1147  2.2590  1.3119
15817TIP3   OH268865   6.890   6.731   3.655  0.2955 -0.2608 -0.1362
15817TIP3    H168866   6.847   6.750   3.738  0.7711  0.7485 -0.1060
15817TIP3    H268867   6.983   6.726   3.677  0.3038 -1.3700 -0.3800
15818TIP3   OH268868   0.087   5.807   2.031  0.0122 -0.0935  0.6201
15818TIP3    H168869   0.085   5.817   2.126  0.0755 -1.4394  0.7923
15818TIP3    H268870   0.039   5.725   2.016  0.5055 -0.1937 -0.4558
15819TIP3   OH268871   5.169   0.919   0.831 -0.2413 -0.1989 -0.2661
15819TIP3    H168872   5.253   0.888   0.797 -0.7874 -0.4362 -1.4778
15819TIP3    H268873   5.139   0.847   0.887 -0.7919 -1.2706 -1.8585
15820TIP3   OH268874   4.050   1.464  11.269  0.2369  0.2047 -0.0520
15820TIP3    H168875   4.108   1.389  11.257  0.6378  0.8620 -3.1073
15820TIP3    H268876   3.972   1.442  11.219 -0.0320  1.4078 -0.1924
15821TIP3   OH268877   3.559   3.896   1.135  0.1661 -0.0216  0.3493
15821TIP3    H168878   3.551   3.989   1.112  0.3798  0.0870  0.7106
15821TIP3    H268879   3.469   3.862   1.128  0.3252 -0.1862 -1.4020
15822TIP3   OH268880   5.336   7.130   3.881 -0.4291 -0.0087  0.3918
15822TIP3    H168881   5.279   7.182   3.938 -1.5062 -2.1794  1.4059
15822TIP3    H268882   5.288   7.125   3.798 -0.5888  0.0956  0.4772
15823TIP3   OH268883   0.220   5.601   2.256  0.2288 -0.5503  0.1383
15823TIP3    H168884   0.189   5.543   2.187  1.5338 -1.5792  0.3788
15823TIP3    H268885   0.186   5.688   2.232 -0.0363 -1.0396 -1.3269
15824TIP3   OH268886   6.210   3.170  10.146 -0.3948 -0.1554  0.1277
15824TIP3    H168887   6.128   3.150  10.102 -1.0614 -1.9135  2.0170
15824TIP3    H268888   6.187   3.236  10.211 -1.1520 -2.8042  2.7849
15825TIP3   OH268889   3.270   2.681   2.767  0.3102  0.6074 -1.0315
15825TIP3    H168890   3.361   2.707   2.764  0.1647  1.6274  1.3284
15825TIP3    H268891   3.272   2.586   2.782  1.0033  0.6799 -0.6524
15826TIP3   OH268892   3.694   0.184   4.965  0.5947  0.3491 -0.2782
15826TIP3    H168893   3.653   0.271   4.969  1.0253  0.5360  0.1833
15826TIP3    H268894   3.636   0.128   5.017  1.2126  0.7404  0.8657
15827TIP3   OH268895   2.093   6.159   1.594  0.4395 -0.0138 -0.1521
15827TIP3    H168896   2.135   6.244   1.578  0.3219  0.2071  0.6736
15827TIP3    H268897   2.077   6.157   1.688 -0.7836 -0.3844 -0.3432
15828TIP3   OH268898   6.062   2.986  10.615  0.2332  0.7872 -0.1674
15828TIP3    H168899   6.122   2.984  10.689  0.0493 -0.4488 -0.0247
15828TIP3    H268900   6.117   3.012  10.541  1.0679 -0.7078 -0.1138
15829TIP3   OH268901   0.926   2.694  11.339 -0.5447 -0.5509 -0.2853
15829TIP3    H168902   1.018   2.714  11.321 -1.1170  1.1925 -1.5446
15829TIP3    H268903   0.893   2.773  11.382 -1.5774 -0.9644 -0.3066
15830TIP3   OH268904   2.901   0.380   3.791  0.6030  0.4264  0.6334
15830TIP3    H168905   2.838   0.332   3.846 -0.2027 -0.1239 -0.7165
15830TIP3    H268906   2.920   0.459   3.841  1.4072 -0.9239  2.6030
15831TIP3   OH268907   5.204   5.805   9.788  0.0024 -0.1793  0.3984
15831TIP3    H168908   5.270   5.874   9.797  0.2876 -0.5855  1.5396
15831TIP3    H268909   5.126   5.851   9.757  0.5626  0.4396 -0.1250
15832TIP3   OH268910   5.332   5.724   0.566  0.2497  0.6896 -0.0436
15832TIP3    H168911   5.405   5.665   0.585 -0.4337 -0.7318 -1.5345
15832TIP3    H268912   5.372   5.811   0.561  1.5802  0.1408  0.6030
15833TIP3   OH268913   5.204   3.838   5.060 -0.5526 -0.2176 -0.4504
15833TIP3    H168914   5.161   3.762   5.020 -0.6783 -0.7856  0.7344
15833TIP3    H268915   5.133   3.887   5.102 -0.3639  0.1347 -0.5362
15834TIP3   OH268916   5.408   5.798   5.477 -0.3259  0.0532 -1.0894
15834TIP3    H168917   5.485   5.842   5.514  0.3326 -1.3911 -0.6947
15834TIP3    H268918   5.381   5.854   5.404  0.0447  1.4845 -0.1747
15835TIP3   OH268919   6.046   5.845   5.328  0.6317 -0.2736  0.0149
15835TIP3    H168920   6.118   5.907   5.336  1.1949 -0.8595 -0.3879
15835TIP3    H268921   5.971   5.888   5.370  0.2129  1.8705 -2.7052
15836TIP3   OH268922   5.052   6.902   0.474 -0.0494  0.2352  0.4088
15836TIP3    H168923   5.093   6.826   0.516 -1.6442  0.3725  2.3791
15836TIP3    H268924   4.968   6.870   0.442 -1.4862  1.3900  2.7036
15837TIP3   OH268925   2.493   6.192   4.628  0.3545 -0.1344 -0.3065
15837TIP3    H168926   2.452   6.148   4.703 -0.8496 -1.5322 -1.7196
15837TIP3    H268927   2.421   6.205   4.566  1.5883 -0.4051 -1.8467
15838TIP3   OH268928   0.941   5.956   5.680 -0.4027  0.0081  0.0488
15838TIP3    H168929   1.008   6.008   5.724  0.2928 -1.1561  0.3880
15838TIP3    H268930   0.988   5.881   5.643 -1.1026  0.4564 -1.9173
15839TIP3   OH268931   5.258   1.989   0.103  0.0072  0.5751  0.1335
15839TIP3    H168932   5.177   2.040   0.094 -0.2216  0.2680  0.4609
15839TIP3    H268933   5.269   1.947   0.018  0.0005  0.8723 -0.0184
15840TIP3   OH268934   1.223   6.480   3.240  0.1656 -0.4052 -0.5272
15840TIP3    H168935   1.262   6.503   3.324 -0.4852 -0.9248 -0.0767
15840TIP3    H268936   1.220   6.563   3.192  0.9065 -0.1749 -0.1976
15841TIP3   OH268937   4.960   2.694   4.819  0.6853  0.2561  0.1371
15841TIP3    H168938   4.944   2.788   4.806  1.4221  0.1683 -1.7483
15841TIP3    H268939   4.876   2.659   4.848 -0.0031  1.2824 -0.5291
15842TIP3   OH268940   4.917   4.006  11.412 -0.4644  0.0823 -0.0111
15842TIP3    H168941   4.937   4.045  11.497  0.7006 -1.3899  0.4508
15842TIP3    H268942   5.003   3.984  11.375 -1.0123 -0.5917 -0.9288
15843TIP3   OH268943   6.065   3.649   5.383 -0.1050 -0.5158  0.1350
15843TIP3    H168944   5.994   3.700   5.421 -0.2369  0.7573 -1.6886
15843TIP3    H268945   6.140   3.708   5.383  0.1151 -0.7742 -0.7277
15844TIP3   OH268946   1.734   6.576   4.974  0.2288 -0.1411 -0.4757
15844TIP3    H168947   1.690   6.624   5.044 -0.3167 -0.9146 -0.2742
15844TIP3    H268948   1.663   6.545   4.917  0.7181  1.4953 -2.0828
15845TIP3   OH268949   6.482   3.346  14.471  0.0737 -0.0370  1.1553
15845TIP3    H168950   6.555   3.320  14.527 -0.4676 -1.7050  1.1660
15845TIP3    H268951   6.522   3.371  14.388  0.7882  1.1049  1.8261
15846TIP3   OH268952   4.868   6.940   4.654 -0.0442  0.4789 -0.2705
15846TIP3    H168953   4.836   6.865   4.604 -0.7890  2.3807 -2.8234
15846TIP3    H268954   4.790   6.977   4.695  0.1689  0.4611  0.1613
15847TIP3   OH268955   1.722   4.476  11.498 -0.5268  0.2435 -0.2227
15847TIP3    H168956   1.651   4.492  11.437 -0.3027  0.7438 -0.3601
15847TIP3    H268957   1.710   4.542  11.567 -2.0689 -1.6648  1.4687
15848TIP3   OH268958   2.148   3.175  10.925 -0.0756  0.3380  0.1335
15848TIP3    H168959   2.240   3.189  10.905 -0.3394  1.3037 -0.4502
15848TIP3    H268960   2.101   3.205  10.848 -0.8466 -1.2787 -0.0814
15849TIP3   OH268961   2.528   5.307   5.541 -0.0997  0.2641  0.0656
15849TIP3    H168962   2.558   5.216   5.547 -1.3637 -0.0956  1.6210
15849TIP3    H268963   2.452   5.311   5.599 -0.3051  2.2308 -0.2757
15850TIP3   OH268964   5.235   1.528   1.364  0.1305 -0.6035 -0.0927
15850TIP3    H168965   5.198   1.447   1.330  0.2477  0.1973 -2.2694
15850TIP3    H268966   5.162   1.571   1.409 -0.1264 -1.5346  0.3945
15851TIP3   OH268967   5.183   5.989   3.914  0.1760 -0.1562  0.0685
15851TIP3    H168968   5.194   6.023   4.003 -1.3268  2.2964 -0.5756
15851TIP3    H268969   5.135   5.907   3.925 -1.2714  0.8224  1.4826
15852TIP3   OH268970   0.797   6.342   4.752 -0.1765  0.1091  0.1749
15852TIP3    H168971   0.873   6.392   4.725 -1.2364  0.8252 -1.6973
15852TIP3    H268972   0.736   6.407   4.788 -0.2474 -0.3261  0.8642
15853TIP3   OH268973   5.425   4.755   5.385  0.3646 -0.0970  0.3224
15853TIP3    H168974   5.336   4.757   5.420 -0.5618 -1.6931 -1.7303
15853TIP3    H268975   5.481   4.742   5.462 -1.1270  1.0188  1.6639
15854TIP3   OH268976   1.872   0.980   3.548 -0.3364 -0.1013  0.1737
15854TIP3    H168977   1.934   0.915   3.584 -0.8680 -0.7683 -0.0959
15854TIP3    H268978   1.914   1.064   3.564  0.3407 -0.5082  0.5941
15855TIP3   OH268979   3.748   1.179   1.724  0.3091 -0.0613 -0.2573
15855TIP3    H168980   3.802   1.249   1.686 -0.3933  0.2857 -0.6220
15855TIP3    H268981   3.736   1.204   1.815  0.6616 -0.0802 -0.2041
15856TIP3   OH268982   3.350   4.032  15.203 -0.0324  0.1189 -0.1377
15856TIP3    H168983   3.323   3.984  15.281  3.1990 -0.0108  1.0798
15856TIP3    H268984   3.363   3.965  15.136  0.0369 -0.1620  0.1552
15857TIP3   OH268985   4.739   2.397  13.659  0.0146 -0.1371 -0.7008
15857TIP3    H168986   4.760   2.489  13.673  0.8258 -0.3877 -0.1847
15857TIP3    H268987   4.823   2.356  13.637 -0.2487 -0.8340 -0.4609
15858TIP3   OH268988   6.401   4.421   3.366  0.1806 -0.3966  0.2746
15858TIP3    H168989   6.356   4.360   3.307  1.9158 -0.9106 -0.6015
15858TIP3    H268990   6.483   4.376   3.388  0.8836  1.0465  0.7133
15859TIP3   OH268991   1.976   4.449   5.055  0.0121 -0.9616 -0.2814
15859TIP3    H168992   2.033   4.386   5.100 -0.8237 -0.1964  1.9940
15859TIP3    H268993   1.888   4.415   5.068 -0.5029  0.8559  1.4524
15860TIP3   OH268994   1.631   0.553  14.208  0.3653  0.7375  0.1650
15860TIP3    H168995   1.669   0.640  14.194  2.1938 -0.1204 -0.6205
15860TIP3    H268996   1.548   0.555  14.161 -0.1581  2.3682  1.0511
15861TIP3   OH268997   3.183   7.004  14.296  0.1773 -0.3695  0.4880
15861TIP3    H168998   3.183   7.096  14.270 -2.0562 -0.6310 -0.6234
15861TIP3    H268999   3.242   6.961  14.234 -0.6520 -0.0488 -0.5541
15862TIP3   OH269000   1.900   1.462   0.639  0.6374  0.8119  0.3724
15862TIP3    H169001   1.866   1.542   0.678  1.7943  0.5127  2.0910
15862TIP3    H269002   1.902   1.399   0.711  0.7950 -0.4373 -0.6910
15863TIP3   OH269003   4.828   2.696   1.655 -0.1837  0.3169  0.4214
15863TIP3    H169004   4.912   2.652   1.662  0.5741  1.3845 -1.2781
15863TIP3    H269005   4.832   2.768   1.717 -0.2795 -0.2293  1.0798
15864TIP3   OH269006   0.438   6.501  10.890  0.1306  0.1083  0.1447
15864TIP3    H169007   0.370   6.565  10.873  0.6003  0.5286 -0.1649
15864TIP3    H269008   0.454   6.459  10.806 -1.1742 -1.4353  0.6112
15865TIP3   OH269009   5.061   1.675   0.656 -0.0045  0.3496 -0.1367
15865TIP3    H169010   5.104   1.592   0.677 -0.5201  0.3320  0.9210
15865TIP3    H269011   4.985   1.678   0.714 -0.0807  1.4939 -0.2714
15866TIP3   OH269012   6.252   3.473   0.006 -0.6602  0.2215 -0.0482
15866TIP3    H169013   6.343   3.445  -0.008 -0.8999 -1.3928  1.4127
15866TIP3    H269014   6.260   3.549   0.064 -0.1610  1.7298 -1.9553
15867TIP3   OH269015   1.070   2.860   2.226 -0.2930  0.1792 -1.0073
15867TIP3    H169016   1.087   2.890   2.137 -1.7859 -0.3024 -1.4954
15867TIP3    H269017   1.033   2.772   2.214 -2.2222  0.8180 -0.0575
15868TIP3   OH269018   0.667   0.149   3.718 -0.5761  0.8797 -0.2149
15868TIP3    H169019   0.732   0.088   3.682 -0.7927  0.2867  0.3843
15868TIP3    H269020   0.678   0.229   3.666  1.9011  1.4509  1.0151
15869TIP3   OH269021   6.455   6.207   4.980 -0.1252 -0.6594  0.1528
15869TIP3    H169022   6.404   6.203   4.899  0.3997 -0.3516 -0.1946
15869TIP3    H269023   6.483   6.116   4.996  2.1954 -0.3356 -1.5858
15870TIP3   OH269024   1.112   5.562   3.061  0.0539  0.0381 -0.2054
15870TIP3    H169025   1.061   5.514   2.996 -1.7288  1.0480  0.3756
15870TIP3    H269026   1.104   5.511   3.141 -1.0521  0.7761  0.1752
15871TIP3   OH269027   3.517   0.379   5.338  0.2763  0.3210 -0.3617
15871TIP3    H169028   3.572   0.449   5.304  0.5175  0.8075  0.9532
15871TIP3    H269029   3.431   0.420   5.352 -0.0925 -0.1186 -1.2605
15872TIP3   OH269030   0.195   0.082   0.046  0.0368 -0.1413 -0.2453
15872TIP3    H169031   0.230  -0.007   0.051  0.1093 -0.1374 -0.6536
15872TIP3    H269032   0.264   0.137   0.082  0.4704 -0.1316 -1.0489
15873TIP3   OH269033   2.900   1.413  12.445  0.3757 -0.0974 -0.0676
15873TIP3    H169034   2.911   1.369  12.361  0.6001 -0.6772  0.2575
15873TIP3    H269035   2.863   1.499  12.423  0.8586 -0.0676 -0.7913
15874TIP3   OH269036   2.600   2.042  11.509  0.0489  0.0536 -0.1563
15874TIP3    H169037   2.646   2.118  11.547  1.3602 -0.6387 -0.2813
15874TIP3    H269038   2.566   2.074  11.426  0.8894  0.4328 -0.3671
15875TIP3   OH269039   0.989   0.616   4.825 -0.0195 -0.2022  0.1708
15875TIP3    H169040   1.018   0.650   4.910  0.5341  0.2039 -0.1756
15875TIP3    H269041   0.903   0.654   4.812  1.2355  2.5055 -0.9740
15876TIP3   OH269042   6.353   5.779   3.575 -0.3269 -0.6263  0.1809
15876TIP3    H169043   6.370   5.734   3.658 -0.1132 -1.9325 -0.5539
15876TIP3    H269044   6.417   5.744   3.514 -0.2556  0.5800 -0.4675
15877TIP3   OH269045   3.321   2.251   2.508 -0.0947 -0.7677  0.1324
15877TIP3    H169046   3.339   2.311   2.581 -1.2523  0.4219 -0.4934
15877TIP3    H269047   3.310   2.166   2.549  1.7320 -0.6018  1.0478
15878TIP3   OH269048   2.807   2.978   1.368 -0.3153 -0.3933 -0.2898
15878TIP3    H169049   2.722   3.022   1.359  0.2579  0.9197  0.4192
15878TIP3    H269050   2.861   3.018   1.300  0.2543  0.1293  0.4503
15879TIP3   OH269051   5.392   0.403   2.663 -0.0395  0.3509  0.1204
15879TIP3    H169052   5.305   0.431   2.635  0.0132  0.8648  0.4530
15879TIP3    H269053   5.385   0.308   2.672 -0.0370  0.1522 -1.6780
15880TIP3   OH269054   6.193   3.296   3.377 -0.2202  0.1171  0.5593
15880TIP3    H169055   6.158   3.288   3.288  1.6975  2.5449 -0.5503
15880TIP3    H269056   6.180   3.210   3.416  2.4062 -2.4499 -3.4625
15881TIP3   OH269057   6.152   6.930   4.412 -0.2826 -0.0944 -0.4095
15881TIP3    H169058   6.209   6.972   4.477  1.1684 -2.8169  0.2477
15881TIP3    H269059   6.212   6.907   4.340 -1.1598 -0.4162 -1.0502
15882TIP3   OH269060   4.537   6.645  14.797 -0.2730  0.3452 -0.6058
15882TIP3    H169061   4.457   6.690  14.771 -0.8073 -1.8587 -3.2320
15882TIP3    H269062   4.602   6.673  14.733  0.4976  0.4252  0.1889
15883TIP3   OH269063   6.414   1.117  13.435 -0.0186 -0.3365 -0.1249
15883TIP3    H169064   6.508   1.129  13.420  0.0809 -1.4344 -0.4826
15883TIP3    H269065   6.400   1.023  13.424 -1.4084 -0.0164 -1.5316
15884TIP3   OH269066   5.184   6.692   0.199 -0.0623 -0.0467 -0.1961
15884TIP3    H169067   5.264   6.640   0.186  0.0327  0.3552 -1.2655
15884TIP3    H269068   5.124   6.632   0.243  0.5889 -0.5757 -0.0130
15885TIP3   OH269069   1.647   2.344  12.341  0.0827 -0.0785 -0.5043
15885TIP3    H169070   1.632   2.401  12.265 -1.1885 -0.0764 -0.2667
15885TIP3    H269071   1.570   2.356  12.396  2.3702  2.4753  2.4737
15886TIP3   OH269072   5.788   1.541   0.499 -0.5819  0.2482  0.5380
15886TIP3    H169073   5.842   1.618   0.477 -0.7656  0.5207  1.0084
15886TIP3    H269074   5.698   1.568   0.481 -0.5182 -0.4966 -1.0543
15887TIP3   OH269075   5.923   4.162   3.292  0.4642  0.0040  0.0671
15887TIP3    H169076   5.842   4.111   3.287  0.2547  0.1153  1.5843
15887TIP3    H269077   5.952   4.172   3.202 -2.2894  1.6871 -0.7199
15888TIP3   OH269078   1.143   4.774   1.294  0.0284  0.0444  0.5303
15888TIP3    H169079   1.107   4.857   1.324 -0.6549 -0.3118  0.7231
15888TIP3    H269080   1.073   4.710   1.311  0.1858 -0.4144 -0.4500
15889TIP3   OH269081   3.626   1.069   5.420 -0.3317  0.2148 -0.2740
15889TIP3    H169082   3.694   1.018   5.465  2.2006  1.7748 -2.0497
15889TIP3    H269083   3.638   1.049   5.327 -1.6465  1.3383 -0.7257
15890TIP3   OH269084   2.460   0.553  12.942  0.0327 -0.4683  0.1888
15890TIP3    H169085   2.534   0.613  12.938  0.9744 -1.6015  0.0390
15890TIP3    H269086   2.439   0.547  13.035 -1.6791  1.9214  0.0670
15891TIP3   OH269087   3.282   2.001  10.980  0.1211  0.6936 -0.4192
15891TIP3    H169088   3.220   2.073  10.989 -0.0385  0.6141 -0.8651
15891TIP3    H269089   3.252   1.952  10.904 -0.7077 -0.7828  0.8180
15892TIP3   OH269090   0.486   6.839   1.531 -0.3901 -0.6565 -0.2139
15892TIP3    H169091   0.548   6.790   1.477  0.4154 -2.1623  1.9480
15892TIP3    H269092   0.540   6.895   1.586 -1.0744 -0.4307  0.2450
15893TIP3   OH269093   6.144   0.640  14.984  0.6470  0.6708 -0.1499
15893TIP3    H169094   6.152   0.549  14.955  0.5405  0.8958 -0.9041
15893TIP3    H269095   6.230   0.660  15.023  0.1046 -0.2962  1.6845
15894TIP3   OH269096   6.377   3.445   0.921 -0.2685 -0.6892 -0.1516
15894TIP3    H169097   6.348   3.463   0.832  1.5198 -0.6147 -0.7622
15894TIP3    H269098   6.327   3.506   0.976 -0.0823  0.5312 -1.3042
15895TIP3   OH269099   4.723   4.875   1.589 -0.3416 -0.2898 -0.2858
15895TIP3    H169100   4.735   4.893   1.683 -0.1475 -1.2450 -0.1139
15895TIP3    H269101   4.630   4.855   1.581 -0.6030  0.9293 -0.5152
15896TIP3   OH269102   1.950   6.373   3.537 -0.1603  0.9032 -0.0412
15896TIP3    H169103   1.978   6.456   3.575 -0.4257  1.3108 -0.7055
15896TIP3    H269104   1.855   6.379   3.535 -0.1656  0.7172 -0.3906
15897TIP3   OH269105   4.957   5.010  10.194  0.3850  0.0498 -0.1801
15897TIP3    H169106   4.868   5.044  10.181  0.3712 -0.4947 -1.8396
15897TIP3    H269107   5.009   5.054  10.126  0.8107 -1.5846 -0.9552
15898TIP3   OH269108   0.895   5.941   2.258 -0.2560 -0.0947 -0.0791
15898TIP3    H169109   0.812   5.953   2.305 -0.9645  2.1308 -1.7240
15898TIP3    H269110   0.961   5.980   2.316 -0.6032 -0.3954  0.5270
15899TIP3   OH269111   3.175   4.456   2.683 -0.0111  0.2179 -0.4234
15899TIP3    H169112   3.243   4.439   2.747 -0.3979  0.9077  0.1885
15899TIP3    H269113   3.216   4.515   2.619 -0.1905  1.1489  0.2849
15900TIP3   OH269114   7.078   2.745   5.608 -0.6106  0.2768 -0.4099
15900TIP3    H169115   7.068   2.650   5.596 -0.4399 -0.0441  1.6318
15900TIP3    H269116   7.173   2.757   5.617 -0.6956  0.5282  0.1488
15901TIP3   OH269117   1.574   4.616   3.716 -0.2307 -0.5595  0.2374
15901TIP3    H169118   1.591   4.526   3.688 -1.3283 -0.6723 -0.1302
15901TIP3    H269119   1.496   4.609   3.772  1.0017 -0.1223  2.0787
15902TIP3   OH269120   7.137   5.626   1.262  0.1388  0.0743  0.4264
15902TIP3    H169121   7.173   5.585   1.183  0.4067 -0.0777  0.6195
15902TIP3    H269122   7.196   5.699   1.280  0.5529 -0.3689  0.9260
15903TIP3   OH269123   6.333   1.066   3.903  0.0169 -0.2863 -0.6403
15903TIP3    H169124   6.263   1.021   3.855 -0.1032 -2.6528  1.5014
15903TIP3    H269125   6.297   1.078   3.991  1.3531  0.9614 -0.2283
15904TIP3   OH269126   3.117   3.722   1.617 -0.2321 -0.0792 -0.6078
15904TIP3    H169127   3.142   3.655   1.680 -1.0434 -0.4794 -0.7078
15904TIP3    H269128   3.029   3.748   1.642 -0.1063  0.6184 -0.8593
15905TIP3   OH269129   6.960   4.108   4.367  0.0885 -0.0165 -0.0085
15905TIP3    H169130   6.986   4.023   4.331 -0.0704  0.9265 -2.5493
15905TIP3    H269131   7.008   4.172   4.314 -1.3552  1.5346  0.4887
15906TIP3   OH269132   1.159   6.384   2.221 -0.3988 -0.2922  0.0219
15906TIP3    H169133   1.245   6.344   2.235  0.8572  1.1818 -2.6992
15906TIP3    H269134   1.153   6.395   2.126 -2.0621  2.8552  0.3474
15907TIP3   OH269135   6.794   2.263   1.440 -0.3205  0.5720  0.1652
15907TIP3    H169136   6.751   2.340   1.476  1.2111  2.2626 -1.4002
15907TIP3    H269137   6.790   2.275   1.345  1.3456 -0.4546 -0.0885
15908TIP3   OH269138   0.035   1.308   4.023  0.4292 -0.2822  0.1496
15908TIP3    H169139  -0.022   1.256   4.079  0.2770 -1.8881 -1.4040
15908TIP3    H269140   0.022   1.398   4.052  0.4012 -1.0426  2.6593
15909TIP3   OH269141   1.592   1.284   4.394  0.1382 -0.0046 -0.1065
15909TIP3    H169142   1.560   1.274   4.305 -1.5210  0.7336  0.3650
15909TIP3    H269143   1.688   1.287   4.386 -0.0269  1.2728 -1.9741
15910TIP3   OH269144   4.294   3.740  13.791 -0.0581 -0.2463  0.2694
15910TIP3    H169145   4.224   3.784  13.742 -1.0276  0.0244  1.8276
15910TIP3    H269146   4.373   3.791  13.770 -0.4869  0.0395 -0.7479
15911TIP3   OH269147   4.762   5.956   5.288 -0.1394  0.3431 -0.4445
15911TIP3    H169148   4.816   5.977   5.363  0.2903  1.3961 -1.0235
15911TIP3    H269149   4.712   6.036   5.271 -0.6808 -0.0794 -0.9087
15912TIP3   OH269150   4.240   0.879   1.972 -0.0925  0.0116  0.3141
15912TIP3    H169151   4.271   0.958   1.927 -0.2083 -0.7116 -1.0636
15912TIP3    H269152   4.145   0.892   1.980 -0.1699 -0.1666 -0.2835
15913TIP3   OH269153   4.436   4.333  14.797  0.4787 -0.3183  0.0298
15913TIP3    H169154   4.502   4.401  14.811  0.4175 -0.1193 -0.5815
15913TIP3    H269155   4.479   4.270  14.739  0.3114 -0.4544  0.0522
15914TIP3   OH269156   3.053   1.425  15.302  0.5754 -0.0679 -0.0266
15914TIP3    H169157   3.096   1.393  15.223 -0.9328  0.7238 -1.2300
15914TIP3    H269158   3.062   1.520  15.297  1.1648 -0.0439  1.1979
15915TIP3   OH269159   6.478   5.953   0.301  0.2919  0.1572  0.8868
15915TIP3    H169160   6.518   5.902   0.372  1.1720 -0.9057 -0.3170
15915TIP3    H269161   6.384   5.945   0.315  0.4388 -0.9952  1.3066
15916TIP3   OH269162   3.814   3.553   1.374  0.0865 -0.3072  0.2846
15916TIP3    H169163   3.881   3.506   1.326  0.7672  0.8901  0.0090
15916TIP3    H269164   3.766   3.486   1.423 -0.1160 -1.4622 -1.4324
15917TIP3   OH269165   2.454   6.462   4.897 -0.0649 -0.1898  0.1591
15917TIP3    H169166   2.524   6.526   4.904  2.4109 -2.6587  0.0594
15917TIP3    H269167   2.456   6.434   4.805 -0.3356 -1.1212  0.4166
15918TIP3   OH269168   0.696   2.628   2.047  0.1491  0.1840 -0.8039
15918TIP3    H169169   0.638   2.557   2.018 -0.5948 -0.0057  1.0270
15918TIP3    H269170   0.652   2.708   2.018  0.0045 -0.0212 -1.1640
15919TIP3   OH269171   7.162   1.544  13.150  0.4228  0.1485  0.1064
15919TIP3    H169172   7.156   1.478  13.218 -1.4104 -0.6295 -0.7380
15919TIP3    H269173   7.234   1.516  13.094  1.0012  0.0220  0.9011
15920TIP3   OH269174   2.631   7.051   4.528 -0.1856 -0.9826 -0.1600
15920TIP3    H169175   2.656   6.964   4.495  5.2645  0.7542 -1.7595
15920TIP3    H269176   2.653   7.049   4.621  0.1896 -1.2367 -0.2527
15921TIP3   OH269177   0.654   6.800  13.291 -0.1497  0.6479 -0.1639
15921TIP3    H169178   0.624   6.800  13.382 -1.2979  1.6158 -0.5148
15921TIP3    H269179   0.705   6.720  13.283 -2.1378 -0.7982  0.6580
15922TIP3   OH269180   0.041   3.997  10.630  0.1992 -0.5282  0.1250
15922TIP3    H169181   0.079   4.043  10.705  2.3241  1.4441 -1.9832
15922TIP3    H269182   0.077   3.909  10.635  2.0878  0.2080  0.2915
15923TIP3   OH269183   6.240   0.569   2.779  0.2690 -0.2906  0.0131
15923TIP3    H169184   6.211   0.593   2.691  1.7945  0.1506 -0.3884
15923TIP3    H269185   6.159   0.550   2.826 -0.7796  1.8860 -0.7642
15924TIP3   OH269186   1.787   7.027  14.737 -0.0057 -0.3359  0.2078
15924TIP3    H169187   1.812   6.944  14.777  0.9272 -0.0795  0.1719
15924TIP3    H269188   1.761   7.005  14.648 -0.8840 -0.7377  0.5481
15925TIP3   OH269189   2.944   3.207   1.261 -0.2067  0.3672  0.7271
15925TIP3    H169190   2.930   3.211   1.166  1.7184  1.6470  0.4508
15925TIP3    H269191   2.900   3.285   1.295  0.2777  0.6416  0.7211
15926TIP3   OH269192   4.168   0.363   3.643  0.0496 -0.3692  0.9026
15926TIP3    H169193   4.223   0.329   3.713  0.2350 -0.6366  0.6331
15926TIP3    H269194   4.129   0.285   3.603 -0.7138 -0.1694  1.2393
15927TIP3   OH269195   5.404   0.294   4.622  0.3483  0.0285  0.1789
15927TIP3    H169196   5.408   0.371   4.565  3.5180 -0.8625 -1.0357
15927TIP3    H269197   5.311   0.279   4.636 -0.4106  3.2091 -0.6983
15928TIP3   OH269198   4.200   5.628  13.113  0.1990 -0.3207  0.1928
15928TIP3    H169199   4.228   5.556  13.057  0.3322  0.0387 -0.2000
15928TIP3    H269200   4.134   5.589  13.170 -1.7420 -0.1423 -1.8185
15929TIP3   OH269201   1.785   0.996  13.867 -0.1556  0.8304  0.3148
15929TIP3    H169202   1.844   0.983  13.941 -0.8151 -0.6225  0.6079
15929TIP3    H269203   1.843   1.002  13.791  0.3995 -2.0945  0.3864
15930TIP3   OH269204   5.860   1.871   2.078 -0.2795 -0.6368  0.3416
15930TIP3    H169205   5.791   1.886   2.143 -0.5429 -1.7461  0.3360
15930TIP3    H269206   5.928   1.824   2.125 -0.1786 -0.8583 -0.0202
15931TIP3   OH269207   1.763   2.074   3.865 -0.6065  0.8560  0.3512
15931TIP3    H169208   1.810   2.000   3.827 -1.8264 -0.5412  1.4559
15931TIP3    H269209   1.744   2.132   3.791  1.0028  0.4687 -0.4193
15932TIP3   OH269210   0.873   5.816  14.895  0.6915  0.9176 -0.1064
15932TIP3    H169211   0.964   5.844  14.886  1.6754 -1.5231  1.2457
15932TIP3    H269212   0.874   5.723  14.870 -0.5079 -0.3617  3.8779
15933TIP3   OH269213   0.415   2.024   4.079  0.1258  0.6828 -0.0853
15933TIP3    H169214   0.487   2.087   4.076  1.0938 -0.3490  1.0204
15933TIP3    H269215   0.343   2.074   4.118  0.1396  1.7623 -1.3308
15934TIP3   OH269216   4.910   1.649   4.877  0.1314  0.5320  0.2234
15934TIP3    H169217   4.831   1.619   4.921  0.3759  0.0080  0.3034
15934TIP3    H269218   4.981   1.625   4.935  0.5003 -0.5956 -0.6621
15935TIP3   OH269219   0.137   3.076   0.994 -0.0530 -0.2591  0.2002
15935TIP3    H169220   0.185   3.078   1.076 -0.3319 -0.0498  0.3553
15935TIP3    H269221   0.046   3.061   1.019 -0.0643 -0.7203 -0.0978
15936TIP3   OH269222   3.721   1.927   3.246  0.3677 -0.3986 -0.5752
15936TIP3    H169223   3.720   1.890   3.334 -0.6521  2.2953  0.6489
15936TIP3    H269224   3.649   1.883   3.200 -0.0641 -0.7434  0.4143
15937TIP3   OH269225   6.879   5.181   1.502 -0.1622 -0.3041  0.0980
15937TIP3    H169226   6.951   5.129   1.467 -0.4304 -0.4790 -0.1930
15937TIP3    H269227   6.918   5.228   1.576  0.8627  1.4145 -1.4534
15938TIP3   OH269228   0.946   3.725   1.099 -0.0588 -0.4234 -0.0382
15938TIP3    H169229   0.974   3.704   1.188 -1.9476  0.2488  0.7607
15938TIP3    H269230   0.912   3.814   1.105 -2.5452 -1.2405 -0.8185
15939TIP3   OH269231   0.013   0.239  13.095 -0.3537  0.0948 -0.2796
15939TIP3    H169232   0.058   0.156  13.083  0.8583  0.3443  1.9791
15939TIP3    H269233   0.075   0.294  13.144 -2.5470  0.9226  1.8095
15940TIP3   OH269234   1.886   5.922  14.770  0.6730 -0.1332 -0.3969
15940TIP3    H169235   1.899   5.896  14.679 -0.4436  1.2580 -0.9907
15940TIP3    H269236   1.840   6.006  14.765 -2.1663 -1.3939  1.4119
15941TIP3   OH269237   5.346   6.513   0.425 -0.4220 -0.0241  0.3991
15941TIP3    H169238   5.290   6.438   0.446 -0.2125  0.2199  1.9998
15941TIP3    H269239   5.431   6.491   0.462  0.2116  0.1540 -0.9047
15942TIP3   OH269240   1.012   7.108  14.144 -0.1642 -0.5652  0.0019
15942TIP3    H169241   1.013   7.116  14.048 -0.6437 -0.2501  0.0193
15942TIP3    H269242   1.073   7.037  14.163  1.9403  1.0357 -0.3744
15943TIP3   OH269243   0.060   5.500   2.467  0.2888 -0.2320  0.0046
15943TIP3    H169244   0.048   5.414   2.427  1.0469 -0.5374  0.4182
15943TIP3    H269245   0.112   5.549   2.403 -1.8984  0.6805 -1.2238
15944TIP3   OH269246   4.829   2.377   1.648 -0.1290 -0.0984  0.2478
15944TIP3    H169247   4.867   2.369   1.561  1.7654  0.1437  0.9833
15944TIP3    H269248   4.834   2.471   1.668  2.7785 -0.4872  1.9036
15945TIP3   OH269249   1.703   4.639   5.141  0.9888 -0.0425 -0.0506
15945TIP3    H169250   1.723   4.546   5.152  1.1402  0.1173  1.1814
15945TIP3    H269251   1.755   4.683   5.209 -1.1490  0.6771  1.2354
15946TIP3   OH269252   3.103   3.949   3.997  0.3049  0.2285  0.0763
15946TIP3    H169253   3.049   3.998   3.935 -0.3642  0.7377  1.0432
15946TIP3    H269254   3.099   3.859   3.966 -3.0261 -0.2057  1.3723
15947TIP3   OH269255   3.076   1.304  12.625 -0.0230  0.3555 -0.1023
15947TIP3    H169256   3.005   1.308  12.561  0.7025  0.8264 -0.9087
15947TIP3    H269257   3.057   1.227  12.678 -0.3102 -0.4245 -1.2941
15948TIP3   OH269258   5.368   5.168   0.774 -0.5059  0.0124 -0.2652
15948TIP3    H169259   5.300   5.192   0.837 -0.6062  1.8067 -0.9947
15948TIP3    H269260   5.321   5.151   0.692 -0.1289  0.8505 -0.6673
15949TIP3   OH269261   3.901   0.757   4.367 -0.0639  0.1262 -0.5220
15949TIP3    H169262   3.813   0.788   4.388  0.3297  0.9071  0.0475
15949TIP3    H269263   3.919   0.792   4.280  0.0779  0.8603 -0.2025
15950TIP3   OH269264   3.868   5.442   2.700  0.4247 -0.0636 -0.2321
15950TIP3    H169265   3.929   5.422   2.771 -0.0818  1.8215  0.8176
15950TIP3    H269266   3.923   5.485   2.634  0.6603 -0.5758 -0.3690
15951TIP3   OH269267   0.953   5.863   3.635 -0.0385 -0.2907  0.0946
15951TIP3    H169268   0.919   5.806   3.567  2.7749  0.9412 -2.5896
15951TIP3    H269269   1.038   5.826   3.658  1.0258  1.7167 -0.3583
15952TIP3   OH269270   4.343   5.566  15.136  0.2830  0.1017  0.0392
15952TIP3    H169271   4.400   5.496  15.169  0.3117 -0.2722 -0.7766
15952TIP3    H269272   4.376   5.646  15.178 -0.0528 -0.4291  1.3649
15953TIP3   OH269273   0.815   2.631   1.577 -0.0049 -0.3380  0.2788
15953TIP3    H169274   0.885   2.643   1.512 -1.4724  0.8129 -1.1885
15953TIP3    H269275   0.852   2.571   1.641  1.7164 -1.1431 -1.3601
15954TIP3   OH269276   3.492   4.816  13.778 -0.1111  0.5811 -0.2116
15954TIP3    H169277   3.578   4.811  13.736  1.1167 -1.5110  2.2570
15954TIP3    H269278   3.436   4.761  13.724  1.0384 -0.8679 -0.0060
15955TIP3   OH269279   4.862   1.096   0.170  0.5705 -0.5053  0.4138
15955TIP3    H169280   4.885   1.178   0.215  1.2175 -1.1984  1.3998
15955TIP3    H269281   4.783   1.117   0.120  0.9201  0.8078  0.3796
15956TIP3   OH269282   0.871   5.109  13.071 -0.3354 -0.2006 -0.4819
15956TIP3    H169283   0.925   5.038  13.107 -2.2585 -2.3301 -1.4920
15956TIP3    H269284   0.841   5.158  13.147  1.1085 -0.4055  0.2541
15957TIP3   OH269285   3.291   0.119  14.273 -0.4443  0.2271  0.2043
15957TIP3    H169286   3.292   0.188  14.339 -1.2941  0.3173  0.1233
15957TIP3    H269287   3.238   0.153  14.202 -1.5981 -0.8335  0.5247
15958TIP3   OH269288   3.478   4.853  12.855 -0.1594 -0.1644  0.2426
15958TIP3    H169289   3.473   4.926  12.794 -1.1880  0.0205  0.5216
15958TIP3    H269290   3.424   4.785  12.815 -0.4343 -0.2226  0.7069
15959TIP3   OH269291   6.765   0.339   1.776 -0.5391 -0.4467 -0.2715
15959TIP3    H169292   6.788   0.432   1.770  1.2210 -0.8907 -1.1068
15959TIP3    H269293   6.753   0.323   1.870  1.1387  0.2162  0.0979
15960TIP3   OH269294   4.383   2.821   4.017 -0.7630 -0.1456 -0.0983
15960TIP3    H169295   4.420   2.826   4.105 -0.6073  0.2496 -0.1818
15960TIP3    H269296   4.404   2.733   3.987 -1.2782 -0.4582  0.4593
15961TIP3   OH269297   5.119   2.292  13.211  0.0127 -0.7029 -0.0007
15961TIP3    H169298   5.192   2.302  13.271 -0.0824  0.4538 -0.0465
15961TIP3    H269299   5.143   2.219  13.154  1.1600 -0.2945 -0.0514
15962TIP3   OH269300   2.409   2.173   5.296 -0.2211  0.0210 -0.7299
15962TIP3    H169301   2.489   2.132   5.262  0.7505  0.9644  0.3263
15962TIP3    H269302   2.391   2.243   5.235 -0.5901 -0.5584 -1.2965
15963TIP3   OH269303   1.541   2.388   1.637 -0.1281  0.3819 -0.2028
15963TIP3    H169304   1.563   2.387   1.730 -2.1058 -3.6365  0.4047
15963TIP3    H269305   1.616   2.430   1.595  2.5032 -0.9103  2.8601
15964TIP3   OH269306   3.572   3.143   6.168  0.4536 -0.3480  0.2665
15964TIP3    H169307   3.565   3.130   6.263  0.5184  0.1541  0.3440
15964TIP3    H269308   3.660   3.114   6.147  0.5778 -0.0884  0.4251
15965TIP3   OH269309   0.647   6.584   5.304  0.2749 -0.4795 -0.2857
15965TIP3    H169310   0.619   6.582   5.396  1.3596  0.5534  0.0859
15965TIP3    H269311   0.579   6.636   5.260 -0.0581 -0.6720 -0.0093
15966TIP3   OH269312   2.502   4.761   0.907 -0.0719 -0.2105 -0.7004
15966TIP3    H169313   2.523   4.694   0.971 -0.5166 -1.5431 -1.9024
15966TIP3    H269314   2.477   4.837   0.959 -0.8181 -1.3842  0.7054
15967TIP3   OH269315   5.224   5.107   1.045 -0.2763  0.6003  0.0658
15967TIP3    H169316   5.319   5.118   1.051 -0.1023 -0.7768  0.3332
15967TIP3    H269317   5.189   5.162   1.116  0.2754  1.4849 -0.3318
15968TIP3   OH269318   2.498   2.867   5.189  0.1367 -0.3411  0.3421
15968TIP3    H169319   2.441   2.882   5.264  0.0962  1.2665  0.0268
15968TIP3    H269320   2.580   2.911   5.211 -0.3798  1.5174 -1.1096
15969TIP3   OH269321   0.444   6.815   3.841 -0.4526  0.1308  0.3210
15969TIP3    H169322   0.440   6.750   3.912 -1.6009 -0.5786 -0.3493
15969TIP3    H269323   0.533   6.809   3.808 -0.3860 -0.7458  0.6230
15970TIP3   OH269324   2.780   5.647   2.679  0.1379  0.0001 -0.7568
15970TIP3    H169325   2.796   5.741   2.683  0.0927  0.0159 -0.9361
15970TIP3    H269326   2.841   5.615   2.612  1.4142 -0.3737  0.5438
15971TIP3   OH269327   6.811   4.680   0.852 -0.3745 -0.4003 -0.2369
15971TIP3    H169328   6.859   4.616   0.799 -0.5618 -0.7493  0.0090
15971TIP3    H269329   6.858   4.681   0.936  0.4055  0.7403 -0.6600
15972TIP3   OH269330   4.763   5.423  15.066  0.8185  0.9048 -0.1082
15972TIP3    H169331   4.858   5.426  15.070  0.8741  2.0284 -1.6250
15972TIP3    H269332   4.744   5.375  14.985  0.0603 -0.7164  0.9789
15973TIP3   OH269333   1.088   2.034   4.517 -0.4929 -0.2308  0.4175
15973TIP3    H169334   1.019   2.096   4.496 -1.9332 -2.0445 -0.4639
15973TIP3    H269335   1.057   1.950   4.483  1.9807 -1.2038  0.3237
15974TIP3   OH269336   3.644   3.443   4.608 -0.5505  0.0870 -0.0065
15974TIP3    H169337   3.666   3.401   4.692  0.7921  2.1301  0.7516
15974TIP3    H269338   3.718   3.502   4.591 -1.8876  1.4304 -1.4560
15975TIP3   OH269339   0.800   4.197   5.105  0.3239  0.0955  0.5554
15975TIP3    H169340   0.728   4.249   5.142 -0.4955 -0.7057  0.1299
15975TIP3    H269341   0.764   4.109   5.099  1.9252 -0.7067  1.9605
15976TIP3   OH269342   7.015   6.417   3.545 -0.2795  0.1382 -0.9884
15976TIP3    H169343   7.065   6.499   3.551  2.7241 -1.5543 -1.1891
15976TIP3    H269344   7.044   6.377   3.463  1.1243 -2.7416  0.7542
15977TIP3   OH269345   2.124   2.431   5.002 -1.4878 -0.3098  0.1316
15977TIP3    H169346   2.150   2.523   4.996 -0.0798 -0.6164  0.9989
15977TIP3    H269347   2.119   2.413   5.096  0.7100 -1.7197  0.0519
15978TIP3   OH269348   4.554   3.650  13.380 -0.0807 -0.7287  0.4748
15978TIP3    H169349   4.597   3.576  13.337 -0.8200 -0.7505 -0.2504
15978TIP3    H269350   4.613   3.674  13.452  0.6760 -1.3471  0.0722
15979TIP3   OH269351   1.878   2.005   3.284 -0.2755  0.4240  0.0320
15979TIP3    H169352   1.845   2.084   3.241  0.4770  0.8802  0.2639
15979TIP3    H269353   1.926   2.038   3.360 -0.5502 -0.2996  0.5302
15980TIP3   OH269354   1.080   1.293   5.084  0.0244 -0.7930  0.4544
15980TIP3    H169355   1.049   1.204   5.066  0.0078 -0.3681 -1.9062
15980TIP3    H269356   1.171   1.293   5.055 -0.5108  0.4282 -1.3367
15981TIP3   OH269357   0.391   3.469   4.137 -0.2939 -0.2747 -0.2133
15981TIP3    H169358   0.359   3.501   4.052  0.2989 -0.2765 -0.4414
15981TIP3    H269359   0.415   3.378   4.121  1.8113  0.2978 -0.6052
15982TIP3   OH269360   7.024   3.976   2.693 -0.3812 -0.1493  0.0873
15982TIP3    H169361   7.095   3.974   2.629  0.7250  0.6479  1.2485
15982TIP3    H269362   7.064   4.010   2.773 -1.8981 -0.4144  1.0033
15983TIP3   OH269363   4.395   4.421   3.423  0.0847  0.5681  0.3028
15983TIP3    H169364   4.411   4.349   3.363 -0.8161  0.3674  0.2944
15983TIP3    H269365   4.368   4.494   3.367 -1.9323  0.0454  0.5066
15984TIP3   OH269366   6.969   6.460   0.327  0.0136 -0.4411 -0.9167
15984TIP3    H169367   6.995   6.477   0.237 -0.3956  1.8751 -0.6583
15984TIP3    H269368   6.928   6.373   0.325  0.1682 -0.4997 -2.8999
15985TIP3   OH269369   3.329   3.844  15.003  0.2963 -0.0215 -0.9138
15985TIP3    H169370   3.256   3.836  14.942 -0.3454 -2.7106  0.0945
15985TIP3    H269371   3.395   3.783  14.971  1.6891  1.5119 -1.1414
15986TIP3   OH269372   6.055   1.423   0.725  0.0887  0.1339 -0.5213
15986TIP3    H169373   6.104   1.453   0.801  0.0501 -1.2676  0.0891
15986TIP3    H269374   6.118   1.371   0.675  0.1066  1.0218 -1.4489
15987TIP3   OH269375   0.485   3.751   4.055 -0.2862  0.2265 -0.2356
15987TIP3    H169376   0.422   3.820   4.032 -1.9951 -0.2681  2.5134
15987TIP3    H269377   0.453   3.674   4.008 -1.3515  0.1723  0.5251
15988TIP3   OH269378   6.180   6.898   2.343  0.1143 -0.2567  0.3477
15988TIP3    H169379   6.134   6.922   2.423  0.5648  0.4834  0.3888
15988TIP3    H269380   6.218   6.812   2.362  1.1056  0.3781  1.3013
15989TIP3   OH269381   6.741   4.877  11.723  0.2872  0.0045  0.1789
15989TIP3    H169382   6.809   4.908  11.663  0.1277  1.2684  0.6250
15989TIP3    H269383   6.788   4.821  11.785  1.4007  2.5642  1.7994
15990TIP3   OH269384   0.177   1.620  15.128  0.3875  0.4286  0.1812
15990TIP3    H169385   0.232   1.685  15.171  0.6959 -0.5451  1.3092
15990TIP3    H269386   0.099   1.613  15.184  0.8876 -1.0100  0.7674
15991TIP3   OH269387   6.298   5.537   0.787 -0.0920  0.0172  0.3765
15991TIP3    H169388   6.344   5.549   0.869  0.9834  0.7544 -0.3134
15991TIP3    H269389   6.294   5.624   0.748  0.4725 -0.4926 -0.8921
15992TIP3   OH269390   1.836   3.273  14.645  0.1907 -0.2208  0.4781
15992TIP3    H169391   1.864   3.295  14.734  0.8984 -0.4280  0.3117
15992TIP3    H269392   1.824   3.358  14.602 -0.0811 -0.1215  0.7416
15993TIP3   OH269393   5.511   5.418   3.270  0.0051  0.9823  0.2316
15993TIP3    H169394   5.552   5.332   3.267  0.1427  1.0586 -1.5675
15993TIP3    H269395   5.584   5.479   3.266 -0.0517  1.2354  2.1646
15994TIP3   OH269396   0.946   5.488  11.109  0.5407 -0.3764  0.2616
15994TIP3    H169397   0.875   5.454  11.054  2.0563 -0.8237 -1.5160
15994TIP3    H269398   0.910   5.566  11.151 -1.1239 -0.8407 -0.2522
15995TIP3   OH269399   1.344   4.467   0.730 -0.1237 -0.3356  0.0571
15995TIP3    H169400   1.400   4.436   0.802  0.3788  1.8031  0.6796
15995TIP3    H269401   1.271   4.510   0.773  0.7002  1.8923 -0.6052
15996TIP3   OH269402   4.939   3.897   3.049 -0.6107  0.8172 -0.3420
15996TIP3    H169403   4.984   3.948   2.982 -1.5193  0.0762 -1.5573
15996TIP3    H269404   4.858   3.868   3.007  0.2940 -2.4726 -0.1149
15997TIP3   OH269405   2.860   2.173   4.020  0.3139 -0.3109 -0.1434
15997TIP3    H169406   2.783   2.223   3.993 -0.6239 -2.0697 -0.9519
15997TIP3    H269407   2.934   2.227   3.995 -0.6287  1.2445  0.2395
15998TIP3   OH269408   5.164   6.885  15.465 -0.1723  1.0749  0.5272
15998TIP3    H169409   5.138   6.842  15.547 -1.0524  2.1131  0.8187
15998TIP3    H269410   5.140   6.824  15.396  1.2603 -0.1421  1.0584
15999TIP3   OH269411   3.205   4.979  14.733 -0.1540  0.4425 -0.6974
15999TIP3    H169412   3.158   4.930  14.666  0.8013  1.2690 -2.0337
15999TIP3    H269413   3.271   5.029  14.684  0.2555  1.4567  0.8129
16000TIP3   OH269414   6.933   5.765   5.101  0.3809  0.2071  0.8133
16000TIP3    H169415   6.854   5.721   5.134 -0.5471  1.3937  0.2625
16000TIP3    H269416   6.922   5.766   5.006  1.6689 -0.6816  0.6302
16001TIP3   OH269417   3.502   3.950   1.782 -0.3965  0.1415 -0.0080
16001TIP3    H169418   3.541   3.911   1.860 -0.4274  0.9060  0.4016
16001TIP3    H269419   3.567   4.015   1.753 -1.2778  1.3040  0.5766
16002TIP3   OH269420   6.403   2.533   4.628  0.0655  0.5609  0.0469
16002TIP3    H169421   6.366   2.493   4.549  1.8989 -1.6249  0.1761
16002TIP3    H269422   6.346   2.505   4.699 -0.2988  0.6151 -0.2260
16003TIP3   OH269423   5.230   0.548   3.754 -0.9015 -0.0902 -0.2778
16003TIP3    H169424   5.287   0.625   3.746 -1.4683  0.2270 -1.4757
16003TIP3    H269425   5.278   0.488   3.812  0.0687  0.6887 -0.2573
16004TIP3   OH269426   0.183   4.201   0.115  0.7527 -0.2535  0.0305
16004TIP3    H169427   0.238   4.279   0.127  0.9488 -0.4897  0.6850
16004TIP3    H269428   0.095   4.236   0.099  0.6978  0.0956  1.0494
16005TIP3   OH269429   6.227   2.489  15.484  0.3485  1.1122 -0.0723
16005TIP3    H169430   6.263   2.457  15.567  1.0996 -1.2787 -1.2255
16005TIP3    H269431   6.304   2.516  15.433  0.1547  0.1133 -0.9232
16006TIP3   OH269432   3.255   5.346  14.430 -0.1793  0.6248 -0.4675
16006TIP3    H169433   3.223   5.433  14.404 -2.2940 -0.1617 -0.7247
16006TIP3    H269434   3.185   5.286  14.404  1.6197 -1.3148 -1.1690
16007TIP3   OH269435   0.006   5.307   3.995 -0.1088 -0.0666  0.4716
16007TIP3    H169436  -0.050   5.307   3.917 -1.0335 -0.5532  1.1163
16007TIP3    H269437   0.055   5.225   3.989 -0.0500 -0.0201  0.3112
16008TIP3   OH269438   6.471   1.409   1.950  1.0450 -0.0312  0.4473
16008TIP3    H169439   6.503   1.407   1.860  0.0613  0.9694  0.0604
16008TIP3    H269440   6.502   1.493   1.984  1.2457 -0.3199  0.9942
16009TIP3   OH269441   3.374   1.481   2.023  0.2693 -0.8010 -0.4766
16009TIP3    H169442   3.342   1.413   2.083 -1.3773 -0.0675 -0.4816
16009TIP3    H269443   3.422   1.542   2.079  1.3810 -1.7016 -0.4060
16010TIP3   OH269444   3.746   4.865   2.815  0.2212  0.0068 -0.4442
16010TIP3    H169445   3.760   4.883   2.908  1.3433 -0.1646 -0.5650
16010TIP3    H269446   3.820   4.908   2.772 -0.3219  0.1344 -1.2670
16011TIP3   OH269447   6.142   2.935   4.382  0.1748  0.2930 -0.2284
16011TIP3    H169448   6.104   3.001   4.440  1.0648 -0.1882  0.9430
16011TIP3    H269449   6.164   2.984   4.302  0.3092  1.3061  0.4012
16012TIP3   OH269450   6.508   5.448   4.509 -0.9502 -0.0860 -0.1333
16012TIP3    H169451   6.478   5.530   4.547 -2.7711 -1.0175  0.5446
16012TIP3    H269452   6.499   5.384   4.580 -0.0009 -0.9775 -0.7781
16013TIP3   OH269453   4.406   4.757   4.776 -0.3222  0.1838 -0.0150
16013TIP3    H169454   4.412   4.721   4.864  1.7348 -0.3957 -0.3486
16013TIP3    H269455   4.433   4.685   4.719  3.3772  1.9242 -0.7433
16014TIP3   OH269456   6.746   0.190   4.147 -0.2174  0.4552 -0.3119
16014TIP3    H169457   6.790   0.274   4.156  0.0958  0.1979  0.6810
16014TIP3    H269458   6.812   0.132   4.108 -0.7339  0.8900 -1.9154
16015TIP3   OH269459   6.832   6.793  11.779 -0.1546 -0.1974  0.4483
16015TIP3    H169460   6.784   6.779  11.698 -1.2226 -0.7676  1.1496
16015TIP3    H269461   6.766   6.784  11.848  1.1493 -2.2321  1.5366
16016TIP3   OH269462   6.694   5.211   4.560 -0.0380 -0.1488  0.0245
16016TIP3    H169463   6.761   5.242   4.499  0.7360 -0.0859  0.8771
16016TIP3    H269464   6.743   5.166   4.629 -0.9201 -0.5805  0.3865
16017TIP3   OH269465   5.871   3.865  10.979  0.6956  0.0934 -0.4582
16017TIP3    H169466   5.792   3.852  11.031  0.9940 -1.9358 -0.4213
16017TIP3    H269467   5.942   3.870  11.043  0.6115  2.3867 -0.4623
16018TIP3   OH269468   1.550   2.725   4.111 -0.1992 -0.2500  0.2683
16018TIP3    H169469   1.630   2.760   4.073 -0.4807 -0.9217 -0.9751
16018TIP3    H269470   1.545   2.767   4.197 -0.1959  2.2857 -0.8741
16019TIP3   OH269471   5.768   4.790  14.114 -0.0782  0.1390 -0.0509
16019TIP3    H169472   5.855   4.771  14.078  0.4602  1.9725  0.1948
16019TIP3    H269473   5.720   4.828  14.040 -0.2827  0.2355  0.1334
16020TIP3   OH269474   3.527   7.019  14.706 -0.0992  0.1612 -0.0972
16020TIP3    H169475   3.449   6.971  14.732  0.4872 -0.3538  0.7442
16020TIP3    H269476   3.600   6.962  14.732  0.5916  1.2870  0.4821
16021TIP3   OH269477   4.744   2.083   3.062 -0.6634  0.2962  0.3905
16021TIP3    H169478   4.674   2.109   3.003 -1.9768 -1.2243  1.2070
16021TIP3    H269479   4.711   2.104   3.150  0.9584  1.8595  0.6856
16022TIP3   OH269480   4.141   1.666   2.443 -0.0368  0.1451 -0.0700
16022TIP3    H169481   4.214   1.726   2.425  1.4946 -1.2540  1.1651
16022TIP3    H269482   4.171   1.614   2.518 -2.0078 -1.0066 -0.0276
16023TIP3   OH269483   4.406   4.730   0.317  0.3521 -0.3292 -0.2752
16023TIP3    H169484   4.488   4.760   0.277 -0.2050  1.1410 -0.3746
16023TIP3    H269485   4.346   4.804   0.306 -0.4923 -0.7572  1.2670
16024TIP3   OH269486   2.004   3.194   4.191  0.4230  0.0961 -0.6345
16024TIP3    H169487   2.015   3.222   4.100  1.4562  2.7419  0.1876
16024TIP3    H269488   2.040   3.106   4.195  1.8732  0.5647 -2.4592
16025TIP3   OH269489   6.922   0.057   0.103 -0.0453 -0.0134 -0.4746
16025TIP3    H169490   6.972   0.013   0.034 -0.5016  0.1802 -0.9324
16025TIP3    H269491   6.859  -0.008   0.133  0.8194 -0.4389  0.4805
16026TIP3   OH269492   6.902   0.717   2.857 -0.5446 -0.7484 -0.3711
16026TIP3    H169493   6.929   0.808   2.868  1.0653 -1.2881  0.4871
16026TIP3    H269494   6.924   0.674   2.940 -1.3061 -1.9087 -0.7401
16027TIP3   OH269495   0.115   1.832   1.333 -0.1027 -0.1391  0.0064
16027TIP3    H169496   0.145   1.923   1.328  1.2674 -0.5946 -0.4899
16027TIP3    H269497   0.036   1.829   1.279 -0.8750  1.0115  1.0181
16028TIP3   OH269498   1.822   6.139   1.713  0.1895  0.5507  0.0403
16028TIP3    H169499   1.823   6.181   1.799 -3.7013 -0.1032  0.6130
16028TIP3    H269500   1.858   6.052   1.729 -0.3768  0.4775  1.0301
16029TIP3   OH269501   1.168   3.590   0.343 -0.4835 -0.2173 -0.0269
16029TIP3    H169502   1.149   3.629   0.429 -1.7319 -1.4094  0.2824
16029TIP3    H269503   1.209   3.660   0.293 -0.3988  0.7222  1.3056
16030TIP3   OH269504   3.312   1.409   5.041 -0.5428  0.1305  0.5235
16030TIP3    H169505   3.396   1.421   4.996  0.1342 -0.0077  1.7129
16030TIP3    H269506   3.275   1.497   5.047 -1.0737  0.0564 -1.0516
16031TIP3   OH269507   1.702   2.653   0.149  0.2644  0.5186  0.1917
16031TIP3    H169508   1.750   2.642   0.231  2.4769 -0.3086 -1.1229
16031TIP3    H269509   1.703   2.748   0.133  0.1179  0.6518  0.9285
16032TIP3   OH269510   4.313   2.142   1.039 -0.0462  0.5092  0.1947
16032TIP3    H169511   4.316   2.238   1.032 -2.5912  0.6428  0.0540
16032TIP3    H269512   4.285   2.113   0.952  2.7586 -0.6083 -0.4470
16033TIP3   OH269513   2.220   3.725   4.600  0.1348  0.7146 -0.2623
16033TIP3    H169514   2.304   3.765   4.579  1.9802 -1.8673  1.6412
16033TIP3    H269515   2.188   3.775   4.676  0.3732  1.1461 -0.4413
16034TIP3   OH269516   3.791   3.181   4.562  0.6846 -0.1502  0.3660
16034TIP3    H169517   3.728   3.109   4.557  0.1024  0.1622  2.3419
16034TIP3    H269518   3.804   3.195   4.656  2.0723  1.2258  0.0082
16035TIP3   OH269519   1.275   0.019   2.516  0.0634 -0.0526  0.3550
16035TIP3    H169520   1.306   0.109   2.510  0.6729 -0.2534  0.3680
16035TIP3    H269521   1.352  -0.034   2.494 -0.3896 -0.5598 -0.0403
16036TIP3   OH269522   5.319   5.799   3.113  0.0874 -0.5016  0.3420
16036TIP3    H169523   5.227   5.825   3.122  0.2349 -0.7947  3.8084
16036TIP3    H269524   5.319   5.705   3.129  1.1285 -0.2404  2.0505
16037TIP3   OH269525   0.348   1.627   1.757  0.5725  1.4042 -0.1581
16037TIP3    H169526   0.343   1.619   1.852 -0.5264  1.5239 -0.1887
16037TIP3    H269527   0.290   1.700   1.736  0.1887  0.8826 -0.9735
16038TIP3   OH269528   0.844   2.007  11.839 -0.0421  0.6089 -0.0776
16038TIP3    H169529   0.868   1.917  11.818 -0.1663  0.5436  0.0519
16038TIP3    H269530   0.880   2.022  11.926  1.2651  1.1871 -0.6974
16039TIP3   OH269531   0.117   4.778   1.743  0.2053  0.6187 -0.3057
16039TIP3    H169532   0.189   4.738   1.694 -0.4957  1.0687 -1.7473
16039TIP3    H269533   0.152   4.789   1.831  0.7853 -2.1775 -0.0852
16040TIP3   OH269534   0.353   2.740   4.918 -0.1923  0.4249 -0.8874
16040TIP3    H169535   0.264   2.721   4.887 -0.5830  1.8821 -0.7187
16040TIP3    H269536   0.407   2.731   4.839 -0.2314 -1.9032 -0.7043
16041TIP3   OH269537   1.479   2.950   3.930 -0.4212 -0.2229 -0.3744
16041TIP3    H169538   1.487   2.870   3.982 -0.8529  0.1869  0.3445
16041TIP3    H269539   1.551   3.005   3.960 -0.1511 -0.3158 -0.8381
16042TIP3   OH269540   3.664   3.752   5.470 -0.3018  0.0542 -0.3958
16042TIP3    H169541   3.579   3.766   5.427 -0.4875  0.8359  0.2100
16042TIP3    H269542   3.648   3.774   5.562  0.0560 -1.7332  0.1199
16043TIP3   OH269543   5.386   7.069   0.854  0.4440 -0.1736  0.0230
16043TIP3    H169544   5.395   6.979   0.824  0.1561 -1.0136  2.2844
16043TIP3    H269545   5.305   7.070   0.905  1.0019  1.0740  0.9565
16044TIP3   OH269546   3.825   3.316  13.934  0.1080 -0.3139 -0.1482
16044TIP3    H169547   3.742   3.270  13.942 -0.5230  0.4051 -1.9557
16044TIP3    H269548   3.824   3.381  14.004 -0.1681 -1.2814  0.7688
16045TIP3   OH269549   3.195   3.358   1.648  0.2914  0.2887  0.5925
16045TIP3    H169550   3.226   3.323   1.564  0.2592 -0.0518  0.7202
16045TIP3    H269551   3.108   3.391   1.629  0.5127  0.7492  0.3570
16046TIP3   OH269552   2.209   2.536  13.235  0.1334 -0.4359  0.0040
16046TIP3    H169553   2.281   2.536  13.299  0.1826  0.3907 -0.0437
16046TIP3    H269554   2.246   2.490  13.159  1.5308  2.1247 -0.9888
16047TIP3   OH269555   6.710   6.921  14.712  0.0643  0.0554 -0.1827
16047TIP3    H169556   6.782   6.912  14.774  0.8432 -2.3844 -1.3037
16047TIP3    H269557   6.631   6.911  14.766  0.4570  2.5786  1.0310
16048TIP3   OH269558   4.691   5.694   2.660 -0.1742  1.0143  0.0832
16048TIP3    H169559   4.679   5.731   2.573  2.2268  0.2485 -0.6519
16048TIP3    H269560   4.693   5.600   2.647 -1.1145  0.8095  1.2032
16049TIP3   OH269561   5.163   4.220   4.503  0.1011 -0.1031 -0.2194
16049TIP3    H169562   5.254   4.249   4.493 -0.1488 -0.0542 -3.3474
16049TIP3    H269563   5.111   4.291   4.466 -1.1896 -0.5754  0.6201
16050TIP3   OH269564   6.230   1.533   5.104  0.2239  0.2270  0.3692
16050TIP3    H169565   6.251   1.497   5.017 -0.8250  3.0329 -1.1565
16050TIP3    H269566   6.174   1.466   5.144  2.3648 -2.0628 -0.2007
16051TIP3   OH269567   1.607   5.276   3.644 -0.0950  0.0011  0.3931
16051TIP3    H169568   1.558   5.277   3.726 -1.2877  0.5658 -0.2949
16051TIP3    H269569   1.553   5.327   3.583  1.4160  0.7586 -0.3786
16052TIP3   OH269570   1.622   7.078   3.927  0.2593  0.2385 -0.2365
16052TIP3    H169571   1.574   7.158   3.949  1.0233  0.2840  1.4848
16052TIP3    H269572   1.662   7.097   3.842 -2.0936  0.4692 -1.3604
16053TIP3   OH269573   2.261   5.596   0.029 -0.0853  0.0126  0.4066
16053TIP3    H169574   2.237   5.527   0.091  0.0108  0.3460  0.8237
16053TIP3    H269575   2.264   5.676   0.082 -1.6960  0.6118 -0.3544
16054TIP3   OH269576   1.989   6.866   4.165 -0.1123  0.4038 -0.1481
16054TIP3    H169577   1.941   6.787   4.191 -0.4860  0.6576 -0.0620
16054TIP3    H269578   2.081   6.843   4.176 -0.2479  0.4209  1.1651
16055TIP3   OH269579   5.079   2.757   2.024  0.5563 -0.3112  0.4788
16055TIP3    H169580   5.136   2.834   2.020 -0.2401  0.2626 -0.0380
16055TIP3    H269581   5.140   2.683   2.019  1.2153  0.2844 -1.7352
16056TIP3   OH269582   2.294   6.034   4.188  0.5900 -0.1983  0.1808
16056TIP3    H169583   2.376   5.994   4.219  1.0417  0.4812 -0.1160
16056TIP3    H269584   2.228   6.006   4.252  1.2944  0.2556  1.1304
16057TIP3   OH269585   1.353   4.520   3.939 -0.1987 -0.0931 -0.3065
16057TIP3    H169586   1.285   4.562   3.886  0.3152  0.7090 -0.3560
16057TIP3    H269587   1.305   4.478   4.011 -0.7046  1.2478  0.1868
16058TIP3   OH269588   3.423   0.815   2.691  0.1669 -0.1551 -0.0326
16058TIP3    H169589   3.496   0.754   2.677 -0.4088 -0.4691 -1.9692
16058TIP3    H269590   3.465   0.900   2.705  0.9350 -0.4641 -0.3969
16059TIP3   OH269591   0.850   2.620   4.568 -0.4864  0.2217  0.7654
16059TIP3    H169592   0.815   2.693   4.621  0.0779  0.9071  0.2154
16059TIP3    H269593   0.893   2.564   4.632 -0.2062  0.8023  1.1005
16060TIP3   OH269594   5.991   4.413   5.788  0.5699 -0.4092  0.0463
16060TIP3    H169595   6.067   4.355   5.776  0.9810  0.3801 -1.4234
16060TIP3    H269596   5.924   4.375   5.731  0.8480  0.5290 -0.9397
16061TIP3   OH269597   5.004   5.850   1.200  0.0650 -0.1952  0.6885
16061TIP3    H169598   5.002   5.788   1.273 -1.5543  0.1757  1.0005
16061TIP3    H269599   4.954   5.925   1.231  1.1975  0.8933 -0.0282
16062TIP3   OH269600   5.668   6.697   5.193 -0.1614  0.6416 -0.6554
16062TIP3    H169601   5.707   6.776   5.156  0.5974 -0.4382 -2.2445
16062TIP3    H269602   5.633   6.649   5.118 -1.7842  0.0594  0.4091
16063TIP3   OH269603   5.934   3.857   1.622  0.6253  0.0735 -0.1078
16063TIP3    H169604   5.911   3.874   1.530  0.3570  0.6308  0.0544
16063TIP3    H269605   5.896   3.931   1.670 -0.0386 -0.6898  0.5671
16064TIP3   OH269606   1.536   0.343  14.874  0.1133 -0.2298  0.6079
16064TIP3    H169607   1.618   0.341  14.824  0.2877 -0.2674  0.8937
16064TIP3    H269608   1.542   0.267  14.933 -0.6489 -0.9342 -0.1884
16065TIP3   OH269609   6.356   5.743   4.100  0.1688  0.0370  0.0961
16065TIP3    H169610   6.290   5.811   4.111  1.1674  1.5160 -2.3117
16065TIP3    H269611   6.430   5.773   4.152 -0.1703 -0.4280  0.8773
16066TIP3   OH269612   3.054   1.620   0.333  0.0400 -0.6059 -0.1037
16066TIP3    H169613   3.112   1.550   0.303 -0.0099 -1.7121  2.1665
16066TIP3    H269614   3.106   1.672   0.393 -0.5789 -0.0430 -0.0365
16067TIP3   OH269615   1.133   2.159   5.384  0.5325  0.4078 -0.2342
16067TIP3    H169616   1.111   2.082   5.437 -0.2519  1.4001  0.9440
16067TIP3    H269617   1.216   2.189   5.419 -1.1322  2.5339  2.3171
16068TIP3   OH269618   4.194   0.310   2.262 -0.2544  0.4109  0.4733
16068TIP3    H169619   4.141   0.245   2.217 -0.7844  0.0350  1.6030
16068TIP3    H269620   4.138   0.343   2.332  1.4283 -1.1147  2.6959
16069TIP3   OH269621   1.997   6.742  10.450 -0.6508 -0.0668 -0.0236
16069TIP3    H169622   1.929   6.691  10.407  0.2190 -2.2118  1.0047
16069TIP3    H269623   2.079   6.697  10.428  0.1410  0.7644  1.0941
16070TIP3   OH269624   2.229   2.668   2.904  0.2409 -0.1422 -0.8949
16070TIP3    H169625   2.164   2.670   2.833  0.8986 -0.3367 -1.5101
16070TIP3    H269626   2.313   2.656   2.859  0.9767  2.2036 -0.2893
16071TIP3   OH269627   2.274   5.598   4.059 -0.3770  0.3016 -0.0777
16071TIP3    H169628   2.229   5.625   4.139 -0.9853 -0.5223 -0.1273
16071TIP3    H269629   2.366   5.589   4.084 -0.6132 -0.2681  0.6170
16072TIP3   OH269630   7.013   0.958   3.747  0.1318 -0.3393 -0.2940
16072TIP3    H169631   6.961   0.925   3.820  0.0036  1.6136  0.5524
16072TIP3    H269632   6.995   0.897   3.675  1.5337 -3.3184  1.6694
16073TIP3   OH269633   6.836   3.314   3.005 -0.3026 -0.0499 -0.3723
16073TIP3    H169634   6.812   3.337   2.915 -0.5243  1.4658  0.0560
16073TIP3    H269635   6.756   3.279   3.043 -0.1814 -0.7946 -0.7816
16074TIP3   OH269636   4.953   1.314   0.358  0.2563  0.6700  0.3337
16074TIP3    H169637   4.881   1.354   0.407 -0.5133  0.5017 -0.6198
16074TIP3    H269638   4.992   1.252   0.419 -0.1162  1.0917  1.0152
16075TIP3   OH269639   5.169   1.492   3.612  0.2590 -0.5405 -0.0608
16075TIP3    H169640   5.251   1.534   3.639 -0.7145  0.4604  1.4662
16075TIP3    H269641   5.159   1.519   3.520  2.2517 -1.7471 -0.7029
16076TIP3   OH269642   0.634   4.944   0.916  0.0908 -0.1872  0.0375
16076TIP3    H169643   0.638   4.852   0.889  0.1221  0.0137 -0.6482
16076TIP3    H269644   0.630   4.993   0.834  0.7626  0.4596  0.3905
16077TIP3   OH269645   6.296   2.083  12.896 -0.1223 -0.1945  0.1905
16077TIP3    H169646   6.316   2.147  12.964 -0.2615  0.4720 -0.3848
16077TIP3    H269647   6.298   2.133  12.814  1.0177 -1.1770 -0.4041
16078TIP3   OH269648   0.546   5.821   2.295  0.0864 -0.7100  0.5969
16078TIP3    H169649   0.501   5.846   2.215 -0.9263 -1.3065  0.9579
16078TIP3    H269650   0.510   5.736   2.317  2.1079 -1.6751  0.3967
16079TIP3   OH269651   4.848   1.867  14.486  0.8124 -0.6014  0.5383
16079TIP3    H169652   4.898   1.833  14.411 -0.3480 -0.4685 -0.3350
16079TIP3    H269653   4.852   1.962  14.475  0.8873 -0.5711  0.8270
16080TIP3   OH269654   5.533   0.198   3.942  0.0131  0.0110 -0.4599
16080TIP3    H169655   5.444   0.187   3.909 -0.7637  1.6747  0.9268
16080TIP3    H269656   5.587   0.198   3.863 -1.3848  0.3950 -1.4670
16081TIP3   OH269657   1.494   3.382   3.542 -0.5004 -0.3894 -0.0393
16081TIP3    H169658   1.551   3.416   3.611 -0.9912 -0.6088  0.4777
16081TIP3    H269659   1.410   3.367   3.585 -0.4532 -1.7194 -0.3835
16082TIP3   OH269660   6.791   6.003  13.984  0.3531  0.1682 -0.2344
16082TIP3    H169661   6.792   6.084  13.933 -0.0684 -1.2591 -2.6842
16082TIP3    H269662   6.699   5.974  13.982  0.8800 -1.5680 -1.5191
16083TIP3   OH269663   5.678   4.096   3.564  0.6523 -0.0377  0.0811
16083TIP3    H169664   5.688   4.191   3.575  0.1490 -0.1450  1.7451
16083TIP3    H269665   5.719   4.059   3.642 -0.7568 -1.0878  0.3457
16084TIP3   OH269666   5.532   1.250  12.942  0.2085 -0.6330  0.5238
16084TIP3    H169667   5.507   1.225  13.031  0.0756  2.1185  1.3366
16084TIP3    H269668   5.593   1.181  12.915  0.7255 -1.2570  2.9614
16085TIP3   OH269669   6.686   5.062   1.747  0.3079  0.2739  0.1378
16085TIP3    H169670   6.599   5.100   1.755  0.4091  0.7367 -0.8497
16085TIP3    H269671   6.732   5.091   1.826 -0.5304 -0.2834  0.8484
16086TIP3   OH269672   3.443   5.362   3.453  0.0194 -0.1486  0.3916
16086TIP3    H169673   3.438   5.274   3.491 -0.3650 -0.4944 -0.4311
16086TIP3    H269674   3.455   5.420   3.528  1.6925 -1.0177  0.8375
16087TIP3   OH269675   0.387   0.134  15.148  0.2629 -0.2992  0.1803
16087TIP3    H169676   0.389   0.078  15.226 -0.9085  0.1255  0.5461
16087TIP3    H269677   0.393   0.073  15.074  0.6949 -0.7638  0.5907
16088TIP3   OH269678   4.674   2.067  13.443  0.4430  0.2677  0.0122
16088TIP3    H169679   4.682   2.050  13.349 -0.0286 -0.6296  0.1225
16088TIP3    H269680   4.618   2.144  13.449 -1.0662 -0.7574 -0.4133
16089TIP3   OH269681   4.083   3.745   4.722 -0.3585  0.4335  0.1893
16089TIP3    H169682   4.178   3.739   4.727 -0.3166  0.5428 -0.4158
16089TIP3    H269683   4.059   3.802   4.796 -0.0002  0.0413  0.6175
16090TIP3   OH269684   3.417   3.833   5.308  0.1368  0.2335  0.1588
16090TIP3    H169685   3.411   3.829   5.213  0.1354  0.6424  0.1406
16090TIP3    H269686   3.337   3.879   5.335  0.4804  0.7603  0.3022
16091TIP3   OH269687   4.346   3.080  11.276  0.0614 -0.6850 -0.4469
16091TIP3    H169688   4.349   3.079  11.180 -0.3093 -2.6345 -0.4702
16091TIP3    H269689   4.263   3.038  11.298  1.7973 -3.8548  0.7071
16092TIP3   OH269690   2.706   6.328  13.935 -0.0351 -0.1159  0.2584
16092TIP3    H169691   2.740   6.244  13.963  0.2366  0.1843  0.8316
16092TIP3    H269692   2.623   6.337  13.982  0.6160  0.5721  1.3144
16093TIP3   OH269693   5.743   2.521  13.564  0.6025  0.3735  0.2243
16093TIP3    H169694   5.804   2.545  13.633  0.2783 -0.6521  0.8886
16093TIP3    H269695   5.708   2.436  13.591  0.6697 -0.1832 -1.3172
16094TIP3   OH269696   7.073   5.249   2.861 -0.2511 -0.0083  0.3337
16094TIP3    H169697   7.056   5.338   2.892  1.0078  0.1944  0.5091
16094TIP3    H269698   6.995   5.199   2.886 -0.0372  0.5425  2.2522
16095TIP3   OH269699   3.831   3.972   2.836  0.0501  0.5924  0.0431
16095TIP3    H169700   3.911   3.955   2.787  1.0882  0.0902  1.8221
16095TIP3    H269701   3.828   4.067   2.846  0.1331  0.6495 -0.4848
16096TIP3   OH269702   1.987   3.533   5.239 -0.4022  0.3888 -0.4988
16096TIP3    H169703   1.925   3.589   5.194 -1.1157  0.3202  0.3670
16096TIP3    H269704   1.939   3.452   5.256  1.1616 -1.2949 -3.3820
16097TIP3   OH269705   0.379   4.474  12.237 -0.2139 -0.1738  0.7401
16097TIP3    H169706   0.355   4.383  12.225 -0.9820  0.0095  0.8054
16097TIP3    H269707   0.295   4.521  12.241  0.1693  0.5687  0.4199
16098TIP3   OH269708   3.571   6.127  14.263  0.1800  0.1017 -0.2611
16098TIP3    H169709   3.635   6.107  14.332  0.0807 -0.2037 -0.2536
16098TIP3    H269710   3.606   6.203  14.219  0.8807 -0.4489 -0.6677
16099TIP3   OH269711   2.480   4.773   5.767 -0.1203 -0.4779 -0.1450
16099TIP3    H169712   2.538   4.806   5.836  0.6282  0.8280 -1.3398
16099TIP3    H269713   2.479   4.678   5.779 -0.2613 -0.2556  1.8335
16100TIP3   OH269714   0.063   0.705   4.306 -0.1580 -0.0428  0.7030
16100TIP3    H169715   0.131   0.741   4.363  2.3168 -1.8095 -0.9165
16100TIP3    H269716   0.050   0.773   4.239  3.3049 -1.2384 -1.4223
16101TIP3   OH269717   3.280   0.521   5.349 -0.1764 -0.0230  0.2955
16101TIP3    H169718   3.342   0.594   5.341 -0.1568 -0.2550 -2.8820
16101TIP3    H269719   3.194   0.562   5.344 -0.1724 -0.1494 -0.9725
16102TIP3   OH269720   2.268   5.022   3.251  0.4680  0.1987 -0.1262
16102TIP3    H169721   2.214   4.945   3.234 -0.4137  1.1800 -2.2156
16102TIP3    H269722   2.268   5.031   3.347  0.5723 -2.3203  0.1634
16103TIP3   OH269723   6.361   4.028   4.162 -0.4044 -0.2053  0.7843
16103TIP3    H169724   6.456   4.034   4.173  0.1632 -0.9945 -2.6040
16103TIP3    H269725   6.326   4.089   4.228  2.3190 -0.7228  2.9071
16104TIP3   OH269726   1.410   6.310   2.209  0.1170  0.8089  0.0950
16104TIP3    H169727   1.418   6.227   2.163 -2.0984  1.1491 -0.9985
16104TIP3    H269728   1.394   6.285   2.300 -1.6386 -0.0427 -0.4044
16105TIP3   OH269729   5.819   3.934  11.791 -0.6600  0.1813 -0.0418
16105TIP3    H169730   5.763   3.968  11.721  1.7859  4.1488 -0.3528
16105TIP3    H269731   5.767   3.947  11.871 -2.3097 -1.6562 -0.7201
16106TIP3   OH269732   7.066   4.591   2.987  0.5812  0.2911 -0.6734
16106TIP3    H169733   7.109   4.640   2.917  0.6546  0.6463 -0.3850
16106TIP3    H269734   7.050   4.656   3.056  2.2454 -0.3962  0.4346
16107TIP3   OH269735   6.834   5.362   3.969 -0.5363  0.3258 -0.6007
16107TIP3    H169736   6.801   5.273   3.957  0.3691  0.0320 -1.0564
16107TIP3    H269737   6.897   5.373   3.897  0.1560  0.9388  0.0803
16108TIP3   OH269738   4.798   4.769   0.900 -0.0362 -0.1445 -0.6090
16108TIP3    H169739   4.778   4.778   0.807  0.0325 -0.0022 -0.6102
16108TIP3    H269740   4.894   4.767   0.904 -0.0450 -0.8014 -0.6004
16109TIP3   OH269741   3.721   2.883   0.969  0.5693  0.2210  0.1288
16109TIP3    H169742   3.703   2.945   1.039 -0.5938 -0.6777  0.6634
16109TIP3    H269743   3.712   2.935   0.889  0.6226  0.9705  0.5968
16110TIP3   OH269744   1.911   5.466   3.913  0.0648 -0.0070 -0.1503
16110TIP3    H169745   1.844   5.535   3.917 -0.7512 -0.7870 -0.0548
16110TIP3    H269746   1.876   5.396   3.968  1.8805  0.3171  1.5096
16111TIP3   OH269747   5.490   4.946   3.563  0.3709 -0.1365  0.0350
16111TIP3    H169748   5.474   4.873   3.623 -0.5753 -1.0080 -1.2347
16111TIP3    H269749   5.426   5.012   3.588 -1.0667 -1.1021 -0.9390
16112TIP3   OH269750   5.942   3.334   4.924  0.9557 -0.0312  0.7827
16112TIP3    H169751   5.974   3.264   4.867  0.5179  0.4322 -0.0462
16112TIP3    H269752   6.021   3.385   4.945  0.9731  0.4081 -0.2814
16113TIP3   OH269753   5.814   2.689   0.837 -0.6601 -0.6790  0.4762
16113TIP3    H169754   5.757   2.710   0.911 -0.3219  0.7302  0.3793
16113TIP3    H269755   5.806   2.765   0.779  2.4181  0.3329  1.1815
16114TIP3   OH269756   6.584   4.290   2.651 -0.3395  0.7246  0.0480
16114TIP3    H169757   6.646   4.339   2.705 -0.3255  2.1327 -1.1722
16114TIP3    H269758   6.592   4.329   2.564  0.3012 -2.0441 -1.2483
16115TIP3   OH269759   2.396   1.707   3.853  0.0482 -0.3263  0.2494
16115TIP3    H169760   2.345   1.778   3.890 -0.0955  0.2827 -1.0668
16115TIP3    H269761   2.374   1.706   3.760  1.4485 -0.8749 -0.1177
16116TIP3   OH269762   1.315   5.405   1.684  0.2183 -0.0597  0.1274
16116TIP3    H169763   1.291   5.361   1.766  1.0838 -0.1691  0.3312
16116TIP3    H269764   1.270   5.355   1.616 -0.4605 -0.0035  0.5347
16117TIP3   OH269765   6.068   6.719   3.915  0.1658 -0.8077  0.1391
16117TIP3    H169766   6.072   6.718   4.010  1.5076 -1.5682  0.1129
16117TIP3    H269767   6.149   6.764   3.889 -1.2303  1.3923 -0.6431
16118TIP3   OH269768   1.064   3.456   4.120 -0.5902  0.7929 -0.4128
16118TIP3    H169769   1.102   3.483   4.204 -0.4518  1.1204 -0.5778
16118TIP3    H269770   0.991   3.399   4.143 -0.2182  0.4486 -0.0797
16119TIP3   OH269771   1.584   6.815   0.544 -0.6840 -0.5744 -0.0144
16119TIP3    H169772   1.497   6.851   0.561 -1.1209 -1.3270 -0.6444
16119TIP3    H269773   1.573   6.720   0.552  0.3956 -0.6203  1.3422
16120TIP3   OH269774   5.944   6.767   4.440  0.3875 -0.6731 -0.1909
16120TIP3    H169775   5.863   6.819   4.445 -1.1661 -2.9793  0.1514
16120TIP3    H269776   6.014   6.832   4.437 -1.4203  1.4287  0.4366
16121TIP3   OH269777   1.232   2.862   5.052  0.1049  0.3637 -0.4556
16121TIP3    H169778   1.318   2.838   5.017  0.1061  0.3451 -0.4404
16121TIP3    H269779   1.251   2.934   5.112 -0.1273  1.6726 -1.9086
16122TIP3   OH269780   0.027   1.301   3.257 -0.8921 -0.1350  0.4268
16122TIP3    H169781  -0.030   1.245   3.205  1.0074 -0.2045 -1.7438
16122TIP3    H269782   0.057   1.246   3.329 -1.1899 -1.0579 -0.1444
16123TIP3   OH269783   5.809   2.042  12.700 -0.4718  0.3643 -0.1094
16123TIP3    H169784   5.851   1.965  12.662  0.8061  1.7043 -1.5782
16123TIP3    H269785   5.731   2.008  12.744  1.4136 -2.0999  1.6497
16124TIP3   OH269786   1.231   3.457   4.552  0.3755 -0.5777  0.4918
16124TIP3    H169787   1.188   3.374   4.570 -2.7192  0.1593 -2.4027
16124TIP3    H269788   1.291   3.438   4.481 -0.0099 -0.4680  0.1291
16125TIP3   OH269789   0.994   3.010  15.019  0.1643  0.2228  0.1833
16125TIP3    H169790   0.901   3.028  15.009 -0.1115 -1.0911  0.1503
16125TIP3    H269791   0.998   2.916  15.038  1.4381  0.3952  0.8695
16126TIP3   OH269792   7.087   0.509   2.726 -0.4128  0.2427 -0.2542
16126TIP3    H169793   7.022   0.564   2.681 -2.4742 -0.2670  1.8993
16126TIP3    H269794   7.073   0.421   2.689  0.7081  0.5348 -1.4393
16127TIP3   OH269795   3.722   5.050  11.903 -0.0628 -0.4730  0.3465
16127TIP3    H169796   3.696   5.140  11.924  1.1825 -0.5805  2.6960
16127TIP3    H269797   3.641   5.008  11.873 -0.6698  1.3855 -0.7977
16128TIP3   OH269798   2.503   0.571   2.298  0.0060 -0.0945 -0.4397
16128TIP3    H169799   2.587   0.612   2.279 -0.0487  1.5582  2.3164
16128TIP3    H269800   2.445   0.644   2.320 -0.9276 -1.3973  1.8210
16129TIP3   OH269801   2.741   4.443  15.479  0.4324 -0.4475  0.4252
16129TIP3    H169802   2.738   4.405  15.566  2.7198 -0.2561  0.6558
16129TIP3    H269803   2.834   4.462  15.464 -0.0775  0.8868 -1.4664
16130TIP3   OH269804   5.306   0.902   3.584  0.0685 -0.3310  0.5880
16130TIP3    H169805   5.277   0.992   3.573 -1.6203 -0.3798  3.5757
16130TIP3    H269806   5.281   0.858   3.503  0.6174  1.7560 -0.7806
16131TIP3   OH269807   3.416   1.213   1.781 -0.6325  0.2779 -0.1680
16131TIP3    H169808   3.485   1.215   1.715  0.2112 -1.1688  0.6178
16131TIP3    H269809   3.416   1.300   1.820  0.1077  0.5747 -0.8286
16132TIP3   OH269810   0.847   6.962   0.688 -0.0951 -0.6417 -0.1936
16132TIP3    H169811   0.898   6.896   0.734  0.8260  0.1128 -0.0898
16132TIP3    H269812   0.811   7.017   0.758 -0.8332 -1.0199 -0.2774
16133TIP3   OH269813   3.262   5.122   1.219 -0.2815  0.2141  0.4549
16133TIP3    H169814   3.202   5.090   1.151 -0.7931  0.6120  0.7197
16133TIP3    H269815   3.210   5.123   1.299  0.3994 -0.5223  0.9204
16134TIP3   OH269816   3.699   1.642   1.439  0.4690  0.1598  0.5060
16134TIP3    H169817   3.778   1.634   1.386  1.2343  1.6432  1.3565
16134TIP3    H269818   3.639   1.578   1.402  1.2569  0.5636 -1.6049
16135TIP3   OH269819   1.220   6.202  15.086  0.7827  0.7502 -0.1036
16135TIP3    H169820   1.275   6.244  15.152 -1.2275  1.3872  1.2484
16135TIP3    H269821   1.137   6.249  15.090 -0.4067 -1.1466 -0.9469
16136TIP3   OH269822   2.343   1.975   3.770  0.2052 -0.4124  0.0632
16136TIP3    H169823   2.252   1.980   3.798  0.1454 -0.7072 -0.0732
16136TIP3    H269824   2.370   2.066   3.756  0.6044 -0.1394  2.2422
16137TIP3   OH269825   5.910   0.880   4.600 -0.8215 -0.2370 -0.0716
16137TIP3    H169826   5.838   0.867   4.538 -0.4689 -0.0033 -0.5374
16137TIP3    H269827   5.926   0.794   4.637 -0.2312 -0.6376 -1.2083
16138TIP3   OH269828   0.024   2.551   0.619  0.4785  0.5936  0.0515
16138TIP3    H169829   0.095   2.604   0.583 -0.0150  1.5731  0.4776
16138TIP3    H269830   0.017   2.476   0.559  2.9985 -0.4788  0.9474
16139TIP3   OH269831   6.924   3.885   1.624  0.1676  0.8074 -0.4937
16139TIP3    H169832   6.925   3.844   1.710  1.5573  0.1124 -0.8207
16139TIP3    H269833   7.007   3.933   1.618  0.9194 -0.5744 -2.0817
16140TIP3   OH269834   6.774   1.463  14.799  0.3126  0.2344 -0.1776
16140TIP3    H169835   6.853   1.513  14.818  0.1294  1.2078 -1.8539
16140TIP3    H269836   6.745   1.495  14.714 -0.7550 -1.5620 -0.5300
16141TIP3   OH269837   3.023   3.828   0.016 -0.1286 -0.2733  0.1002
16141TIP3    H169838   3.009   3.840  -0.078  0.8624 -0.8374 -0.1349
16141TIP3    H269839   3.092   3.891   0.038 -2.0548  1.6886  1.0094
16142TIP3   OH269840   3.991   6.526   0.834 -0.2634 -0.1495  0.3643
16142TIP3    H169841   3.984   6.431   0.841  0.7970 -0.1745  1.5740
16142TIP3    H269842   3.922   6.551   0.773 -0.6308 -1.6788  0.1072
16143TIP3   OH269843   3.698   1.149  12.969  0.4572  0.4054 -0.3330
16143TIP3    H169844   3.748   1.230  12.977 -0.2555  1.0411 -1.7953
16143TIP3    H269845   3.757   1.089  12.923  0.6662  0.3860 -0.0432
16144TIP3   OH269846   1.161   6.926   1.404 -0.0151  0.0148 -0.4520
16144TIP3    H169847   1.074   6.965   1.412 -0.9198 -1.2614 -2.9657
16144TIP3    H269848   1.198   6.967   1.325  0.0070 -2.2712 -1.6979
16145TIP3   OH269849   4.429   5.837   4.568  0.0355  0.2152  0.2552
16145TIP3    H169850   4.491   5.817   4.638 -0.6041 -0.4452  0.6504
16145TIP3    H269851   4.483   5.871   4.497  1.0403 -1.7224  0.0443
16146TIP3   OH269852   6.366   0.648  12.920 -0.4693  0.7432  0.0405
16146TIP3    H169853   6.404   0.718  12.867 -0.3430  0.3225 -0.4341
16146TIP3    H269854   6.277   0.677  12.939 -0.8070  0.5194 -1.1373
16147TIP3   OH269855   7.120   4.822  10.849  0.1742  0.4270  0.0973
16147TIP3    H169856   7.087   4.822  10.938 -1.1921  0.0788 -0.3908
16147TIP3    H269857   7.112   4.732  10.820  1.9950  0.2267  0.0899
16148TIP3   OH269858   3.856   0.088   4.758  0.5266  0.2006 -0.0065
16148TIP3    H169859   3.810   0.130   4.831 -0.4041 -2.3688  1.0284
16148TIP3    H269860   3.813   0.123   4.680 -0.2345  1.0898  0.7796
16149TIP3   OH269861   2.396   5.116   0.447 -0.1343  0.4329  0.3905
16149TIP3    H169862   2.420   5.085   0.534  0.3001  1.4370  0.6498
16149TIP3    H269863   2.463   5.182   0.427 -0.3989  0.4131 -0.5804
16150TIP3   OH269864   0.557   7.008   1.156  0.0693  0.6082  0.3799
16150TIP3    H169865   0.485   6.944   1.155  0.1705  0.4753 -1.1139
16150TIP3    H269866   0.631   6.962   1.117  0.0365  1.7302 -1.0955
16151TIP3   OH269867   3.154   2.947  14.012 -0.2539  0.4563 -0.5822
16151TIP3    H169868   3.192   3.024  14.056  1.3433 -0.3488 -0.4818
16151TIP3    H269869   3.095   2.910  14.077  0.7001  0.3210  0.2375
16152TIP3   OH269870   6.448   1.042  14.871 -0.0132  0.1993  0.1772
16152TIP3    H169871   6.405   0.967  14.830 -0.2546  0.4828 -0.0847
16152TIP3    H269872   6.378   1.103  14.891  0.2939  0.8157 -0.5741
16153TIP3   OH269873   5.805   4.655   4.454  0.3440  0.4187 -0.2285
16153TIP3    H169874   5.843   4.654   4.542 -0.9502 -1.5299  0.3918
16153TIP3    H269875   5.829   4.740   4.418  4.4548 -0.2666  0.4018
16154TIP3   OH269876   1.847   3.446   2.354  0.6135  0.0013 -0.1459
16154TIP3    H169877   1.789   3.406   2.419  0.4110  0.3312 -0.1189
16154TIP3    H269878   1.924   3.473   2.405  1.7118 -2.2261 -0.5021
16155TIP3   OH269879   2.316   2.346   1.621 -0.5065  0.6251 -0.0203
16155TIP3    H169880   2.224   2.341   1.648 -0.3230 -1.1729  0.4180
16155TIP3    H269881   2.312   2.366   1.527 -1.3473  0.6474  0.0108
16156TIP3   OH269882   0.341   4.003   1.777 -0.2449 -0.0219 -0.1210
16156TIP3    H169883   0.383   4.085   1.802 -0.4630 -0.0115  0.2203
16156TIP3    H269884   0.336   4.007   1.681 -2.2640  1.3965 -0.0156
16157TIP3   OH269885   2.729   4.905   4.576  0.3303  0.3032 -0.6863
16157TIP3    H169886   2.676   4.831   4.548  1.3301 -1.3561  1.5257
16157TIP3    H269887   2.679   4.945   4.647  0.3230  1.0679 -1.1116
16158TIP3   OH269888   0.406   2.333  12.233 -0.4203  0.1262  0.5243
16158TIP3    H169889   0.419   2.426  12.251 -0.9286 -0.0374  1.9501
16158TIP3    H269890   0.484   2.305  12.187  0.5478  0.8998  1.6388
16159TIP3   OH269891   6.705   4.967   5.584 -0.8464  0.2225 -0.2105
16159TIP3    H169892   6.644   5.039   5.601  0.5785  1.4837 -0.1974
16159TIP3    H269893   6.748   4.991   5.502  1.3522  0.6554  0.9867
16160TIP3   OH269894   0.513   5.582   1.991  0.4411 -0.6187  0.4275
16160TIP3    H169895   0.558   5.664   2.012  0.6001 -1.0052  1.6652
16160TIP3    H269896   0.583   5.518   1.985  0.3638 -0.5940 -1.0092
16161TIP3   OH269897   0.297   1.303   2.869  0.2788  0.4047 -0.1552
16161TIP3    H169898   0.349   1.377   2.840 -0.2062  1.5354  1.6923
16161TIP3    H269899   0.295   1.310   2.965  1.4771 -2.8675  0.2469
16162TIP3   OH269900   3.834   0.898  13.013  0.4867  0.1074 -0.1841
16162TIP3    H169901   3.893   0.845  12.961  0.1750 -1.5503  1.0808
16162TIP3    H269902   3.860   0.881  13.104 -0.7130  0.8190  0.3185
16163TIP3   OH269903   3.497   3.408   3.397  0.5753  0.2017 -0.3535
16163TIP3    H169904   3.446   3.486   3.419 -1.6824 -1.4845  0.8227
16163TIP3    H269905   3.581   3.420   3.442  0.4382  2.0959 -0.5414
16164TIP3   OH269906   1.547   7.048   3.576 -0.1349  0.1679 -0.0815
16164TIP3    H169907   1.616   7.009   3.523  0.9248  0.6702  0.8956
16164TIP3    H269908   1.590   7.115   3.628 -1.0045 -0.6395  1.7953
16165TIP3   OH269909   1.564   6.420   2.466 -0.2067  0.6791 -0.2175
16165TIP3    H169910   1.581   6.473   2.544 -1.0936 -1.4285  1.5044
16165TIP3    H269911   1.504   6.472   2.413  1.5949  2.8084 -0.2919
16166TIP3   OH269912   5.608   5.123   3.258  0.5293  0.0184 -0.2927
16166TIP3    H169913   5.672   5.092   3.194  0.6904 -0.0467 -0.1013
16166TIP3    H269914   5.571   5.044   3.295  1.2826  0.0458  0.5365
16167TIP3   OH269915   1.934   3.695   1.637 -0.2148 -1.1281  0.3967
16167TIP3    H169916   1.883   3.675   1.559 -3.8341  0.4853  2.1353
16167TIP3    H269917   1.953   3.789   1.629  1.7886 -1.4988  0.2683
16168TIP3   OH269918   4.099   0.291  12.348 -0.1020  0.0963  0.2923
16168TIP3    H169919   4.117   0.367  12.294 -0.9362  0.4651  0.5126
16168TIP3    H269920   4.177   0.280  12.402 -0.0624  0.9328  0.4118
16169TIP3   OH269921   1.438   6.707  14.827 -0.3990 -0.4027  0.4625
16169TIP3    H169922   1.387   6.754  14.760 -0.2059  0.5899  0.9950
16169TIP3    H269923   1.375   6.689  14.896 -0.9701 -2.7712 -0.5795
16170TIP3   OH269924   5.169   1.670   2.364  0.2049 -0.5836 -0.2087
16170TIP3    H169925   5.144   1.616   2.289  0.5167  0.2732 -0.9501
16170TIP3    H269926   5.247   1.626   2.399 -0.2281 -1.2628 -0.0786
16171TIP3   OH269927   0.443   1.528   4.621  0.2066 -0.1650 -0.8059
16171TIP3    H169928   0.490   1.557   4.698 -0.0395  1.1656 -1.1231
16171TIP3    H269929   0.447   1.432   4.624 -0.1113 -0.1599  1.0403
16172TIP3   OH269930   0.493   4.144   0.032 -0.3442 -0.0007 -0.8828
16172TIP3    H169931   0.465   4.226   0.072  1.4478  0.8568 -1.2985
16172TIP3    H269932   0.513   4.086   0.105 -0.5545  0.2979 -0.5890
16173TIP3   OH269933   4.802   3.167   0.606 -0.9434  0.2702 -0.2365
16173TIP3    H169934   4.799   3.215   0.688  0.0942  0.5558 -0.3447
16173TIP3    H269935   4.855   3.089   0.626  1.4654  1.5429 -1.1714
16174TIP3   OH269936   0.198   1.791   2.090 -0.6436 -0.9408  0.3865
16174TIP3    H169937   0.259   1.864   2.098 -0.7399 -0.9636  1.4492
16174TIP3    H269938   0.253   1.713   2.102 -1.1532 -0.9175  3.6299
16175TIP3   OH269939   3.436   4.709   5.346  0.1404  0.8247  0.2219
16175TIP3    H169940   3.523   4.741   5.324 -0.0991  0.9992 -0.5209
16175TIP3    H269941   3.447   4.661   5.428  1.2178 -0.4616 -0.6429
16176TIP3   OH269942   5.965   2.545   2.482  0.1910  0.2020  0.7447
16176TIP3    H169943   5.909   2.594   2.422  0.7085 -0.8141 -0.6124
16176TIP3    H269944   6.053   2.581   2.467  0.1916  0.5821  1.5918
16177TIP3   OH269945   6.851   2.435  15.004  0.3226  0.2110 -0.3142
16177TIP3    H169946   6.906   2.406  14.931 -0.3772  1.5589 -1.4387
16177TIP3    H269947   6.770   2.463  14.962 -0.4049  0.2590  1.0898
16178TIP3   OH269948   0.227   3.160   0.092  0.2977 -0.2887  0.3998
16178TIP3    H169949   0.222   3.094   0.160  0.8810  0.2113  0.9462
16178TIP3    H269950   0.181   3.236   0.128  0.2778 -0.1509  0.0876
16179TIP3   OH269951   3.563   2.188   0.378  0.0796 -0.2431 -0.4473
16179TIP3    H169952   3.475   2.220   0.360  0.1620 -0.6714 -1.7387
16179TIP3    H269953   3.619   2.265   0.368  0.0008 -0.2589 -1.0539
16180TIP3   OH269954   6.980   3.623   3.579 -0.1124 -0.0163  0.4217
16180TIP3    H169955   7.014   3.702   3.538  0.8450 -0.7115 -0.1664
16180TIP3    H269956   6.997   3.636   3.673  2.1095 -0.4327  0.1509
16181TIP3   OH269957   3.231   5.655  13.774  0.3214  0.2442  0.2488
16181TIP3    H169958   3.279   5.730  13.736  0.3359  1.7166  2.9005
16181TIP3    H269959   3.294   5.616  13.835 -0.4901 -0.4706  0.6391
16182TIP3   OH269960   3.639   3.274   5.120  0.2367  0.1796 -0.0651
16182TIP3    H169961   3.668   3.341   5.181  0.0616  1.0670 -0.9225
16182TIP3    H269962   3.544   3.270   5.130  0.1685  0.5732 -0.5072
16183TIP3   OH269963   1.427   4.434   3.024  0.2046 -0.1790 -0.5336
16183TIP3    H169964   1.347   4.391   3.055  0.8661 -1.6820 -0.8093
16183TIP3    H269965   1.489   4.426   3.096  0.8681 -1.2280 -1.1888
16184TIP3   OH269966   6.016   2.784   4.705 -0.6961  0.3860  0.2058
16184TIP3    H169967   6.020   2.794   4.610  0.1111 -0.4270  0.1355
16184TIP3    H269968   5.935   2.736   4.720  0.3337 -1.6881 -0.3357
16185TIP3   OH269969   5.759   6.393   1.933  0.7284  0.4136 -0.0002
16185TIP3    H169970   5.741   6.330   2.004 -0.6201 -0.2234 -0.8588
16185TIP3    H269971   5.802   6.342   1.865  1.0271  0.7776 -0.0889
16186TIP3   OH269972   0.420   1.123   3.708 -0.5185 -0.7417  0.7906
16186TIP3    H169973   0.384   1.044   3.668 -1.9718 -0.6232  1.7594
16186TIP3    H269974   0.358   1.192   3.686  0.4313  0.0215  0.4396
16187TIP3   OH269975   5.612   5.869   4.892 -0.4186 -0.6992 -0.2124
16187TIP3    H169976   5.610   5.802   4.825  0.7068  1.0294 -2.0714
16187TIP3    H269977   5.649   5.825   4.969  0.2744 -2.2055 -1.3597
16188TIP3   OH269978   4.813   3.263  13.783  0.0447  0.2912  0.3331
16188TIP3    H169979   4.725   3.291  13.806 -1.0714 -0.0120 -3.0512
16188TIP3    H269980   4.869   3.337  13.804 -1.2948  1.2010  0.7857
16189TIP3   OH269981   5.788   3.174  14.832  0.0747 -0.4871  0.3117
16189TIP3    H169982   5.696   3.149  14.819  0.7328 -1.4117 -4.5862
16189TIP3    H269983   5.835   3.127  14.763  4.1792  0.6218  2.0666
16190TIP3   OH269984   4.550   1.378  15.380  0.2198  0.5921 -0.1065
16190TIP3    H169985   4.473   1.375  15.437 -0.0048  0.5888 -0.4044
16190TIP3    H269986   4.533   1.453  15.322  0.3611  0.4888 -0.2808
16191TIP3   OH269987   3.916   6.367   4.516  0.5354 -0.3623 -0.0978
16191TIP3    H169988   3.975   6.440   4.533 -0.3288  0.4676 -0.5935
16191TIP3    H269989   3.946   6.298   4.576  1.1719  0.4904  0.5969
16192TIP3   OH269990   3.558   0.739   3.306 -0.2703  0.1736 -0.0264
16192TIP3    H169991   3.568   0.830   3.278 -0.7636  0.2339 -0.0164
16192TIP3    H269992   3.642   0.716   3.344 -0.0671  0.5541 -0.2432
16193TIP3   OH269993   1.333   2.475  14.455  0.1947  0.1245 -0.3517
16193TIP3    H169994   1.284   2.438  14.382  1.0811 -0.4558 -0.6659
16193TIP3    H269995   1.329   2.569  14.441 -1.1747  0.1203 -0.1338
16194TIP3   OH269996   0.866   4.518   4.926  0.2001 -0.1541 -0.2216
16194TIP3    H169997   0.920   4.535   5.004  1.1801  1.4890 -1.2079
16194TIP3    H269998   0.929   4.490   4.859 -0.3115  0.7259 -1.0877
16195TIP3   OH269999   2.627   5.647  11.921 -0.0827 -0.6421  0.2136
16195TIP3    H170000   2.716   5.630  11.950  0.6498  2.0341 -0.1731
16195TIP3    H270001   2.601   5.726  11.969 -1.2760  0.0710 -1.5041
16196TIP3   OH270002   3.162   2.079   4.973  0.1299 -0.4391  0.1020
16196TIP3    H170003   3.245   2.033   4.963  0.0223 -0.3641 -1.2601
16196TIP3    H270004   3.107   2.045   4.902  0.2333  2.2101 -1.3265
16197TIP3   OH270005   1.609   0.184  12.999  0.3700  0.0734 -0.6298
16197TIP3    H170006   1.628   0.112  13.059 -0.4005  1.6005  1.5671
16197TIP3    H270007   1.627   0.148  12.912 -0.5953 -2.9800  0.2962
16198TIP3   OH270008   0.678   5.491  13.025  0.0324  0.3772 -0.4114
16198TIP3    H170009   0.612   5.471  12.958 -0.2001  0.7808 -0.3034
16198TIP3    H270010   0.711   5.578  13.001  1.0393 -0.1203 -0.8764
16199TIP3   OH270011   4.651   6.625   4.097 -0.0494 -0.0957  0.1721
16199TIP3    H170012   4.680   6.626   4.006 -0.0869  1.0458  0.1585
16199TIP3    H270013   4.706   6.559   4.139  0.8892  0.3091 -0.3931
16200TIP3   OH270014   4.435   4.470   0.170  0.5974 -0.2403  0.3123
16200TIP3    H170015   4.470   4.523   0.098 -1.4074  0.7035 -0.0181
16200TIP3    H270016   4.435   4.529   0.245 -0.2748 -0.2166  0.2992
16201TIP3   OH270017   0.952   6.672  12.364  0.3454 -0.2381 -0.5428
16201TIP3    H170018   0.891   6.621  12.417  0.3634 -0.0120 -0.3029
16201TIP3    H270019   0.977   6.613  12.293  0.9880 -0.8487  0.1786
16202TIP3   OH270020   1.717   4.596   2.919  0.0563 -0.2406 -0.1817
16202TIP3    H170021   1.720   4.672   2.860 -0.1432  0.8861  1.1909
16202TIP3    H270022   1.639   4.612   2.973  1.3567 -0.1264  1.7522
16203TIP3   OH270023   4.788   1.692   5.141  0.2572  0.2483 -0.4441
16203TIP3    H170024   4.698   1.676   5.114 -0.2435  1.1931  0.6123
16203TIP3    H270025   4.807   1.625   5.206 -0.8730  2.0293  1.8550
16204TIP3   OH270026   0.171   5.105   3.925  0.0677  0.6775 -0.3687
16204TIP3    H170027   0.263   5.082   3.936  0.1820  1.2208 -0.1588
16204TIP3    H270028   0.124   5.022   3.936  0.3015  0.8375  2.6665
16205TIP3   OH270029   5.183   5.531  12.088  0.6738  0.0643  0.0437
16205TIP3    H170030   5.172   5.485  12.005 -0.9742 -0.2088  0.3874
16205TIP3    H270031   5.224   5.467  12.146 -0.8156 -0.7180  0.2632
16206TIP3   OH270032   1.653   5.416   0.548  0.0750 -0.1504  0.1119
16206TIP3    H170033   1.604   5.335   0.535  0.5909 -0.5138  0.4027
16206TIP3    H270034   1.660   5.454   0.460 -1.9001  0.6047  0.2516
16207TIP3   OH270035   0.495   4.950   4.350  0.6605  0.4049  0.1445
16207TIP3    H170036   0.400   4.946   4.363  0.7336 -0.9369  0.4055
16207TIP3    H270037   0.515   5.043   4.352 -0.7806  0.7688 -0.8991
16208TIP3   OH270038   4.943   4.399   3.140 -0.2019 -0.4089 -0.6157
16208TIP3    H170039   4.988   4.450   3.072  0.0920 -0.8473 -0.7491
16208TIP3    H270040   4.977   4.310   3.131  1.8477  0.0129  1.7636
16209TIP3   OH270041   3.810   2.629   4.715 -0.1247 -0.2777 -0.1537
16209TIP3    H170042   3.718   2.650   4.700  0.1810  2.2597  0.9609
16209TIP3    H270043   3.809   2.561   4.783 -1.1821  0.2120  0.3412
16210TIP3   OH270044   2.454   3.175  14.984  0.1720  0.3017  0.0182
16210TIP3    H170045   2.413   3.211  14.906 -0.0380  0.0379  0.0070
16210TIP3    H270046   2.536   3.225  14.993 -0.4715  1.3275  0.4444
16211TIP3   OH270047   2.095   1.627  10.173  0.1090 -0.6524  0.9458
16211TIP3    H170048   2.160   1.608  10.240  0.2197  0.5827  1.2210
16211TIP3    H270049   2.144   1.629  10.091  0.4144  0.1671  1.1384
16212TIP3   OH270050   6.814   3.641   3.991  0.0293  0.0721  0.0203
16212TIP3    H170051   6.794   3.594   3.910 -1.0683  2.0204 -0.9032
16212TIP3    H270052   6.872   3.712   3.964 -0.1724  0.6072  0.9651
16213TIP3   OH270053   6.320   4.663   5.068  0.2452 -0.9974 -0.2832
16213TIP3    H170054   6.242   4.614   5.042 -0.4534 -0.9204  1.5177
16213TIP3    H270055   6.365   4.683   4.986  0.0414 -3.7563 -1.1741
16214TIP3   OH270056   0.200   5.729   4.400  0.1240 -0.2718 -0.1343
16214TIP3    H170057   0.133   5.680   4.447 -0.8149  1.2472  0.1829
16214TIP3    H270058   0.169   5.819   4.401  1.2510  0.1766 -1.6460
16215TIP3   OH270059   0.550   0.893   0.633 -0.0329 -0.0530  0.1675
16215TIP3    H170060   0.623   0.870   0.690  0.8374 -1.0489 -1.2981
16215TIP3    H270061   0.486   0.824   0.647  0.1993 -0.3223 -0.1069
16216TIP3   OH270062   4.471   6.856   3.261  0.3655  0.2361 -0.2070
16216TIP3    H170063   4.559   6.834   3.292  1.4068  2.3019 -1.5028
16216TIP3    H270064   4.468   6.821   3.172  0.3529  1.2019 -0.6016
16217TIP3   OH270065   6.974   4.551   3.309  0.2109 -0.4966 -0.1271
16217TIP3    H170066   7.049   4.595   3.349  0.4905 -1.4290  0.3958
16217TIP3    H270067   7.002   4.460   3.298 -0.1632 -0.4644 -1.6668
16218TIP3   OH270068   6.664   6.319  13.696  0.1263  0.3181 -0.3539
16218TIP3    H170069   6.756   6.320  13.668  0.4090  0.3613  0.5412
16218TIP3    H270070   6.640   6.226  13.695  0.6300  0.1533  0.7744
16219TIP3   OH270071   0.659   4.855   3.108 -0.0361  0.1838  0.2134
16219TIP3    H170072   0.598   4.827   3.176 -0.3125 -0.5712 -0.3379
16219TIP3    H270073   0.705   4.775   3.082 -0.6674  0.2621 -1.2263
16220TIP3   OH270074   0.189   5.497   1.495 -0.5281  0.2806 -0.0682
16220TIP3    H170075   0.125   5.461   1.434  0.2460  0.5680 -1.0800
16220TIP3    H270076   0.251   5.425   1.510 -0.6797  0.2305  0.3498
16221TIP3   OH270077   3.803   6.779   5.048 -0.0864 -0.7474  0.4911
16221TIP3    H170078   3.784   6.818   5.133  0.5820 -1.2804  0.8978
16221TIP3    H270079   3.897   6.794   5.036 -0.2755 -0.2415 -0.3783
16222TIP3   OH270080   3.407   1.266  14.390 -0.0446  0.6753 -0.2514
16222TIP3    H170081   3.484   1.240  14.440 -0.9525 -0.2721  0.7019
16222TIP3    H270082   3.418   1.223  14.305 -0.4623 -1.1404  0.5642
16223TIP3   OH270083   3.278   6.113   1.096 -0.4808 -0.0323  0.1414
16223TIP3    H170084   3.288   6.063   1.015  0.5764  1.3619 -0.6526
16223TIP3    H270085   3.318   6.058   1.163  2.5623  0.4651 -1.0487
16224TIP3   OH270086   4.886   4.072   4.647  0.3203  0.4528  0.1001
16224TIP3    H170087   4.868   4.074   4.741  1.6762  2.9136  0.3728
16224TIP3    H270088   4.801   4.091   4.606  0.3363  2.8384  1.0093
16225TIP3   OH270089   1.069   3.366   2.552  0.4298  0.1022  0.3429
16225TIP3    H170090   1.129   3.318   2.609  0.5733 -1.1966 -0.8433
16225TIP3    H270091   1.060   3.310   2.474 -0.0831  1.6250 -0.7307
16226TIP3   OH270092   1.103   5.017   1.080 -0.0575 -0.1419 -0.1527
16226TIP3    H170093   1.150   4.965   1.145 -0.1896 -0.0621  0.0077
16226TIP3    H270094   1.018   4.973   1.072 -0.0009 -0.2139 -0.3491
16227TIP3   OH270095   2.834   3.352   3.881 -0.6291 -0.6968  0.4023
16227TIP3    H170096   2.854   3.352   3.788  0.0025 -3.4070  0.4597
16227TIP3    H270097   2.917   3.329   3.924 -1.2475 -0.9673  1.5082
16228TIP3   OH270098   4.855   6.621   3.898  0.0886  0.2751 -0.4188
16228TIP3    H170099   4.835   6.559   3.828  1.1776  1.3981 -1.7659
16228TIP3    H270100   4.931   6.582   3.942  0.4292  0.3722 -0.9124
16229TIP3   OH270101   6.088   4.000  11.844  0.5878 -0.3268  0.1584
16229TIP3    H170102   6.000   3.975  11.816  0.8488 -1.9796  0.7027
16229TIP3    H270103   6.125   4.046  11.768 -0.7882  0.5395 -0.0127
16230TIP3   OH270104   3.656   6.527   3.135  0.0424 -0.3955 -0.0297
16230TIP3    H170105   3.656   6.443   3.180 -1.6362 -0.3570  0.1064
16230TIP3    H270106   3.659   6.593   3.205  0.2391 -0.3378 -0.0910
16231TIP3   OH270107   6.085   2.377   3.330 -0.0455 -0.3977  0.2648
16231TIP3    H170108   6.001   2.367   3.287 -0.6201 -0.2509  1.3213
16231TIP3    H270109   6.126   2.452   3.287 -0.4254 -0.4998 -0.2838
16232TIP3   OH270110   5.402   5.256   1.756 -0.0311 -0.0922  0.8798
16232TIP3    H170111   5.360   5.170   1.755 -0.9603  0.3477 -0.6452
16232TIP3    H270112   5.488   5.240   1.717 -0.5440 -0.1892 -0.2491
16233TIP3   OH270113   4.742   2.532   4.999  0.0939 -0.5299  0.2615
16233TIP3    H170114   4.764   2.446   4.962  1.6675 -0.6298  1.3125
16233TIP3    H270115   4.811   2.548   5.063  0.0778  1.7278 -0.2131
16234TIP3   OH270116   0.861   1.098   5.928  0.1682 -0.6641  0.2611
16234TIP3    H170117   0.911   1.059   6.000 -1.8183  0.9046  2.6449
16234TIP3    H270118   0.795   1.032   5.906  0.0214 -0.6686  0.7151
16235TIP3   OH270119   2.020   5.819  11.056  0.0616  0.3186  0.2338
16235TIP3    H170120   1.934   5.779  11.043 -0.5192  1.8745 -1.0640
16235TIP3    H270121   2.021   5.845  11.148 -0.5585 -0.3856  0.4460
16236TIP3   OH270122   4.985   2.567  14.527  0.0392  0.2440 -0.0597
16236TIP3    H170123   5.061   2.508  14.525  0.1932  0.4280 -2.0835
16236TIP3    H270124   4.932   2.536  14.600  0.3471 -2.1525 -0.7591
16237TIP3   OH270125   2.056   1.206   4.581 -0.2183  0.1709  0.0881
16237TIP3    H170126   2.082   1.277   4.640  0.0361 -0.3725  0.6486
16237TIP3    H270127   1.993   1.156   4.633 -0.6028  0.1463 -0.4045
16238TIP3   OH270128   6.428   3.880   1.610 -0.0260 -0.5121  0.0365
16238TIP3    H170129   6.480   3.801   1.621  0.9590 -0.0556 -1.0044
16238TIP3    H270130   6.398   3.876   1.519  0.8022  0.7155 -0.3193
16239TIP3   OH270131   7.062   0.691   0.979 -0.7486 -0.4709 -0.3415
16239TIP3    H170132   7.067   0.787   0.982  0.3298 -0.4956 -0.7547
16239TIP3    H270133   7.023   0.672   0.893 -0.7455 -0.4071 -0.3571
16240TIP3   OH270134   5.299   0.828   1.518 -1.3092 -0.4969  0.3713
16240TIP3    H170135   5.260   0.743   1.498 -1.5000 -0.8978  2.2614
16240TIP3    H270136   5.344   0.854   1.438 -2.3791 -1.7467 -0.6630
16241TIP3   OH270137   3.326   5.365   0.548  0.4304  0.0113 -0.4425
16241TIP3    H170138   3.274   5.365   0.628  0.5403  0.5706 -0.3674
16241TIP3    H270139   3.352   5.274   0.536 -0.1615 -0.1869 -0.2170
16242TIP3   OH270140   0.403   1.094   4.070  0.1348  0.1653 -0.2507
16242TIP3    H170141   0.475   1.056   4.120 -2.3529  0.5156  4.0529
16242TIP3    H270142   0.437   1.178   4.038  1.9598 -0.2283  0.5485
16243TIP3   OH270143   4.482   4.903  14.490 -0.3225 -0.3057 -0.5438
16243TIP3    H170144   4.558   4.960  14.504 -0.3906 -0.2160 -0.5339
16243TIP3    H270145   4.408   4.954  14.523 -0.3458 -0.5154 -0.2686
16244TIP3   OH270146   2.868   1.672   2.964 -0.4851 -0.1004 -0.2370
16244TIP3    H170147   2.784   1.647   3.001  0.1963  0.0568  1.4887
16244TIP3    H270148   2.856   1.763   2.936 -1.4610 -0.6940 -1.9183
16245TIP3   OH270149   6.807   4.964   0.783 -0.0269  0.5443  0.6647
16245TIP3    H170150   6.816   4.973   0.688 -1.9903 -0.1625  0.3634
16245TIP3    H270151   6.775   4.874   0.796 -0.9982  1.0355  1.8748
16246TIP3   OH270152   5.949   0.448   5.087  0.1410  0.0777  0.1800
16246TIP3    H170153   5.862   0.449   5.046  0.5694  0.1425 -0.7663
16246TIP3    H270154   5.942   0.382   5.155  0.4466 -2.8991 -2.4571
16247TIP3   OH270155   0.600   2.660  14.775 -0.4526 -0.4892  1.0524
16247TIP3    H170156   0.674   2.677  14.833  1.1790  2.0582 -1.5142
16247TIP3    H270157   0.558   2.745  14.763 -2.9402 -1.5883  1.2211
16248TIP3   OH270158   5.706   2.334   5.002  0.4306 -0.2185 -0.0012
16248TIP3    H170159   5.673   2.389   4.931  1.6787  0.1951 -0.2987
16248TIP3    H270160   5.731   2.396   5.070  2.0353 -0.3502 -0.4135
16249TIP3   OH270161   6.846   2.110  12.549 -0.0108 -0.5262 -0.6191
16249TIP3    H170162   6.911   2.079  12.486 -0.4925  0.0029 -1.3886
16249TIP3    H270163   6.889   2.099  12.634  0.8121 -0.8535 -1.0614
16250TIP3   OH270164   3.536   3.331   3.960 -0.0540 -0.7572  0.0460
16250TIP3    H170165   3.470   3.357   4.024  1.9385  1.0089  1.5127
16250TIP3    H270166   3.523   3.390   3.886  3.1501  3.6505  2.5424
16251TIP3   OH270167   5.290   0.465  13.951  0.8076  0.2086  0.3524
16251TIP3    H170168   5.323   0.540  14.000 -1.1982  0.3785  1.5478
16251TIP3    H270169   5.310   0.485  13.859  0.7379  1.9682  0.6975
16252TIP3   OH270170   2.358   1.161  10.751  0.8215 -0.0049  0.0715
16252TIP3    H170171   2.316   1.118  10.676 -0.5851  1.0140  0.2493
16252TIP3    H270172   2.288   1.175  10.814  1.2388  2.4349  0.0792
16253TIP3   OH270173   4.646   6.419  13.968 -0.0659  0.2426 -0.1564
16253TIP3    H170174   4.683   6.490  13.915 -1.1328  1.0060  0.0873
16253TIP3    H270175   4.574   6.385  13.915  0.5605 -0.8137 -0.3567
16254TIP3   OH270176   1.818   6.886  13.624  0.5431  0.3345 -0.2611
16254TIP3    H170177   1.835   6.935  13.705  0.6057  0.3720 -0.2967
16254TIP3    H270178   1.732   6.916  13.595  0.6575  0.5510 -0.3762
16255TIP3   OH270179   0.289   2.450  14.900 -0.0490 -0.2302  0.1931
16255TIP3    H170180   0.296   2.536  14.860 -0.9117 -1.5664 -3.2100
16255TIP3    H270181   0.371   2.405  14.877  0.9067 -0.0609  2.9126
16256TIP3   OH270182   6.976   0.578   2.383 -0.3038 -0.3065 -0.0488
16256TIP3    H170183   7.057   0.572   2.332 -1.6071  2.1522 -2.6952
16256TIP3    H270184   6.985   0.659   2.433 -1.7265  0.9841 -1.7523
16257TIP3   OH270185   6.568   5.820   4.302 -0.1588  0.0161  0.3948
16257TIP3    H170186   6.493   5.870   4.333  0.3144  1.1670 -0.2644
16257TIP3    H270187   6.639   5.884   4.295  0.3031 -0.6078 -1.0825
16258TIP3   OH270188   0.252   3.866   3.906 -0.0793  0.7413  0.0677
16258TIP3    H170189   0.243   3.822   3.822 -0.5027 -0.5611  0.7620
16258TIP3    H270190   0.227   3.957   3.889 -1.8989  0.1239 -0.8399
16259TIP3   OH270191   3.990   0.603  10.328 -0.1925 -0.1333 -0.0484
16259TIP3    H170192   4.076   0.623  10.291  1.4852  1.2299  4.0601
16259TIP3    H270193   3.946   0.688  10.333 -0.2918 -0.2424  1.1617
16260TIP3   OH270194   0.413   2.551   1.769 -0.5527  0.1658 -0.1480
16260TIP3    H170195   0.371   2.493   1.705 -1.1475 -0.6006  0.8873
16260TIP3    H270196   0.375   2.637   1.752  0.8977  0.4507 -2.1994
16261TIP3   OH270197   0.760   3.270   4.756  0.0575  0.0306  0.0855
16261TIP3    H170198   0.776   3.243   4.846 -2.0357  0.0062  0.5099
16261TIP3    H270199   0.831   3.331   4.736  0.1196  0.6786  2.0416
16262TIP3   OH270200   6.777   0.293   0.079 -0.8266  0.8697  0.3318
16262TIP3    H170201   6.847   0.229   0.090  2.4628  3.7973 -1.6948
16262TIP3    H270202   6.697   0.241   0.079  1.2066 -2.6829  3.0109
16263TIP3   OH270203   0.273   1.867  15.227  0.3968  0.1654  0.0288
16263TIP3    H170204   0.215   1.942  15.235  2.0924  1.4139  1.1491
16263TIP3    H270205   0.324   1.884  15.148  0.5217 -0.0162  0.0688
16264TIP3   OH270206   0.122   4.797  14.289 -0.2797 -0.0026 -0.7370
16264TIP3    H170207   0.210   4.760  14.281 -0.4875 -0.7183  0.1169
16264TIP3    H270208   0.136   4.889  14.312  0.2456  0.4149 -2.5827
16265TIP3   OH270209   1.914   0.558   5.300  0.5136 -0.8898  0.0228
16265TIP3    H170210   1.863   0.527   5.374  1.4150  1.3831  1.7034
16265TIP3    H270211   1.963   0.481   5.270 -0.3199 -1.9859  1.3932
16266TIP3   OH270212   2.214   3.486  14.896  0.0801 -0.0478  0.0005
16266TIP3    H170213   2.132   3.459  14.855  0.1123 -1.5806  0.8831
16266TIP3    H270214   2.277   3.418  14.870  1.2068  1.2872 -0.9713
16267TIP3   OH270215   0.903   7.043   5.487 -0.3691 -0.0685 -0.3075
16267TIP3    H170216   0.933   7.084   5.568 -0.1885  0.4110 -0.6184
16267TIP3    H270217   0.886   6.952   5.512  2.4919 -0.7057 -0.3897
16268TIP3   OH270218   1.958   4.748   2.724 -0.2256  0.0115 -0.5495
16268TIP3    H170219   2.044   4.773   2.692 -0.1874 -1.5664 -1.8152
16268TIP3    H270220   1.935   4.816   2.787  2.3396 -0.0442  0.5539
16269TIP3   OH270221   2.435   0.116   0.942 -0.1759 -0.7527 -0.5619
16269TIP3    H170222   2.514   0.137   0.992 -0.1565  1.1674 -1.3160
16269TIP3    H270223   2.468   0.062   0.869  0.3317 -0.5595 -0.4831
16270TIP3   OH270224   3.939   6.787  11.769  0.1715 -0.3331 -0.5647
16270TIP3    H170225   3.851   6.827  11.767  0.3323  0.0142 -2.7696
16270TIP3    H270226   3.998   6.857  11.742  0.8568 -1.1964 -1.3554
16271TIP3   OH270227   2.391   3.919  13.784 -0.0788  0.1981  0.0438
16271TIP3    H170228   2.321   3.923  13.850  0.2323  1.5617  0.3175
16271TIP3    H270229   2.465   3.879  13.830 -0.0020  0.7418  0.3989
16272TIP3   OH270230   5.391   0.261   3.229 -0.2752 -0.6956  0.2616
16272TIP3    H170231   5.433   0.322   3.169 -1.5265 -0.5002 -0.4517
16272TIP3    H270232   5.462   0.207   3.262  0.4642 -0.7027 -1.2719
16273TIP3   OH270233   0.693   4.400   4.402 -0.0301 -0.3279  0.3081
16273TIP3    H170234   0.624   4.335   4.414 -0.7184  0.4904  0.8962
16273TIP3    H270235   0.755   4.383   4.473 -0.9099  0.5077  1.3138
16274TIP3   OH270236   6.252   1.106  14.615  0.6756 -0.6653 -0.4578
16274TIP3    H170237   6.228   1.019  14.647  0.0003 -0.3270 -0.0190
16274TIP3    H270238   6.259   1.160  14.694 -2.4520  0.5416 -0.8861
16275TIP3   OH270239   5.380   3.023   3.172 -0.1607 -0.2820  0.0466
16275TIP3    H170240   5.404   3.006   3.081 -0.8273 -0.5818 -0.0796
16275TIP3    H270241   5.363   2.936   3.209  0.9759 -0.2350  0.7127
16276TIP3   OH270242   2.898   4.208   0.611 -0.0477  0.0422  0.2317
16276TIP3    H170243   2.946   4.149   0.669 -0.6748 -1.3149 -0.5929
16276TIP3    H270244   2.867   4.152   0.539 -0.2864  1.4586 -0.8100
16277TIP3   OH270245   5.690   4.881   2.829  0.2383  0.3892  0.3309
16277TIP3    H170246   5.616   4.936   2.802 -0.3301 -0.4877  0.0612
16277TIP3    H270247   5.758   4.899   2.765 -0.5643 -0.5291 -0.8216
16278TIP3   OH270248   5.050   5.567   2.844 -0.2725 -0.6343 -0.2440
16278TIP3    H170249   4.996   5.549   2.921  0.8552  0.4030  0.8294
16278TIP3    H270250   5.040   5.661   2.829  0.0174 -0.7173 -0.9703
16279TIP3   OH270251   2.211   0.756   1.358  0.5387 -0.3708 -0.2781
16279TIP3    H170252   2.220   0.662   1.377 -0.0743 -0.4365 -0.3035
16279TIP3    H270253   2.189   0.795   1.443 -1.4847 -0.5687 -0.6739
16280TIP3   OH270254   1.927   1.315   0.863 -0.4239  0.6121  0.6884
16280TIP3    H170255   1.949   1.261   0.939 -0.1960  0.4223  0.4882
16280TIP3    H270256   2.011   1.346   0.830 -0.4270 -0.2651 -0.1894
16281TIP3   OH270257   4.802   4.547   5.269 -0.1473 -0.1865  0.5023
16281TIP3    H170258   4.857   4.480   5.310  2.5854  0.6217 -1.5266
16281TIP3    H270259   4.826   4.628   5.313 -0.0603  0.1097 -0.0833
16282TIP3   OH270260   6.779   3.039   4.274 -0.4449 -0.0770  0.1331
16282TIP3    H170261   6.838   2.998   4.210 -0.5288  1.3038 -0.8695
16282TIP3    H270262   6.692   3.030   4.235 -0.4634  1.0135 -0.0977
16283TIP3   OH270263   1.834   0.886   2.449 -0.1023  0.3940 -0.7463
16283TIP3    H170264   1.881   0.830   2.387 -1.5557 -0.4802 -1.0884
16283TIP3    H270265   1.773   0.936   2.394 -0.0281  1.0680 -0.2329
16284TIP3   OH270266   2.481   1.356  13.903  0.1299 -0.4246 -0.2826
16284TIP3    H170267   2.555   1.381  13.848  0.4932 -1.6188 -0.3654
16284TIP3    H270268   2.517   1.353  13.992 -0.2823  0.7800 -0.0459
16285TIP3   OH270269   0.398   2.153   1.998 -0.3161  0.0355 -0.2921
16285TIP3    H170270   0.405   2.116   2.086 -1.8737 -1.8597 -0.8965
16285TIP3    H270271   0.443   2.090   1.941  1.1860  1.5316 -0.8245
16286TIP3   OH270272   4.868   0.594  14.735 -0.8591  0.1468 -0.2827
16286TIP3    H170273   4.908   0.527  14.790 -1.7698 -2.1530 -2.2513
16286TIP3    H270274   4.941   0.650  14.709 -0.2658  0.6933  2.3385
16287TIP3   OH270275   0.822   5.026   2.129  0.3635 -0.2491 -0.0407
16287TIP3    H170276   0.834   5.065   2.216  0.6697 -1.2919  0.4038
16287TIP3    H270277   0.770   5.090   2.081 -1.5909 -0.4958  1.5716
16288TIP3   OH270278   0.872   2.509  14.731  0.5727  0.5423 -0.7302
16288TIP3    H170279   0.802   2.454  14.694  0.9913 -0.7868  0.3790
16288TIP3    H270280   0.860   2.594  14.689 -1.1358  0.0801 -1.2620
16289TIP3   OH270281   4.228   0.674   6.020 -0.9782 -0.1246  0.2447
16289TIP3    H170282   4.245   0.749   6.077 -1.5588  1.2748 -1.3307
16289TIP3    H270283   4.283   0.691   5.942 -1.5578 -1.0332 -0.3747
16290TIP3   OH270284   3.411   4.998   5.881 -0.2429  0.3488  0.0820
16290TIP3    H170285   3.429   4.941   5.807  1.5065  1.1302 -0.1620
16290TIP3    H270286   3.490   5.052   5.889 -1.2284  1.7052  1.2219
16291TIP3   OH270287   4.005   4.325   2.381  0.0694 -0.2861 -0.0299
16291TIP3    H170288   4.010   4.413   2.344  0.3087 -0.4473 -0.3949
16291TIP3    H270289   3.914   4.299   2.370  0.6796 -1.5461 -3.4512
16292TIP3   OH270290   6.262   2.841  15.217 -0.2456 -0.1895  0.6319
16292TIP3    H170291   6.233   2.786  15.144  2.2623 -2.1057  0.9359
16292TIP3    H270292   6.206   2.813  15.291 -0.5623 -0.6346  0.2282
16293TIP3   OH270293   3.306   0.903   3.030 -0.2705  0.0317 -0.2388
16293TIP3    H170294   3.247   0.876   2.959 -0.7725  0.0317  0.1704
16293TIP3    H270295   3.305   0.998   3.027 -0.7303  0.0437  0.1128
16294TIP3   OH270296   3.529   6.974  10.329 -0.1041  0.2345 -0.3185
16294TIP3    H170297   3.465   6.955  10.398 -2.1903  0.4867 -2.0768
16294TIP3    H270298   3.534   7.069  10.327  1.0986  0.1948  0.4620
16295TIP3   OH270299   0.370   4.797   3.375 -0.1272  0.4354 -0.4753
16295TIP3    H170300   0.420   4.815   3.455 -1.7048  2.6822  0.0923
16295TIP3    H270301   0.285   4.838   3.390 -0.9763 -0.3410 -2.7611
16296TIP3   OH270302   0.962   2.947   3.078 -0.2418 -0.5225  0.2669
16296TIP3    H170303   0.870   2.929   3.059 -0.4240 -0.0411  0.6545
16296TIP3    H270304   0.960   3.003   3.156  0.3145  0.7724 -0.6115
16297TIP3   OH270305   3.505   1.845   0.250 -0.5869 -0.0409  0.3001
16297TIP3    H170306   3.592   1.814   0.273  0.2885  1.7886 -0.3153
16297TIP3    H270307   3.490   1.919   0.310 -1.5871 -0.1530  0.2027
16298TIP3   OH270308   0.757   4.884   2.590  0.1744  0.4727  0.2319
16298TIP3    H170309   0.798   4.968   2.610  1.8648 -0.1262 -0.5622
16298TIP3    H270310   0.743   4.885   2.496  0.6546 -0.3157  0.1397
16299TIP3   OH270311   3.808   2.866  13.315 -0.1780  0.0568 -0.0517
16299TIP3    H170312   3.867   2.811  13.262  0.7148  1.0137 -0.0841
16299TIP3    H270313   3.738   2.891  13.254 -1.2583 -1.9817  0.2755
16300TIP3   OH270314   0.470   4.217   4.471 -0.6362 -0.2052  0.4233
16300TIP3    H170315   0.421   4.197   4.391  0.3913 -0.5548 -0.1362
16300TIP3    H270316   0.416   4.182   4.541 -1.1414 -0.6781 -0.1893
16301TIP3   OH270317   0.102   6.376  10.790  0.3812 -0.3165  0.2030
16301TIP3    H170318   0.164   6.388  10.718  0.2101 -2.8834 -0.4882
16301TIP3    H270319   0.048   6.301  10.763 -1.8351  0.6567  1.6012
16302TIP3   OH270320   5.873   1.123   1.391  0.5027 -0.6263  0.2456
16302TIP3    H170321   5.947   1.078   1.432  0.7594 -1.3193 -0.9217
16302TIP3    H270322   5.838   1.179   1.460  0.7019 -1.9797  1.5158
16303TIP3   OH270323   4.602   3.531   3.309 -0.0160 -0.3427 -0.0232
16303TIP3    H170324   4.586   3.556   3.218 -0.3518  0.3111  0.2075
16303TIP3    H270325   4.697   3.524   3.316  0.1395  1.3477 -0.0021
16304TIP3   OH270326   4.813   3.529   2.074  0.5837  0.4338 -0.1400
16304TIP3    H170327   4.736   3.502   2.124  1.0931  0.6097  0.7673
16304TIP3    H270328   4.825   3.459   2.010 -0.1237  0.2334 -0.0653
16305TIP3   OH270329   4.753   3.207   2.815 -0.0796 -0.5047 -0.2860
16305TIP3    H170330   4.731   3.288   2.862 -1.2811 -0.4891 -0.8375
16305TIP3    H270331   4.809   3.159   2.876 -0.2660  0.2503  0.5043
16306TIP3   OH270332   5.557   4.741  12.407 -0.3263 -0.0424 -0.2965
16306TIP3    H170333   5.522   4.786  12.331 -0.1250  1.4479  0.4646
16306TIP3    H270334   5.537   4.798  12.481 -1.2600 -1.8494  0.9145
16307TIP3   OH270335   4.988   6.651   3.382  0.3433 -0.1115 -0.2769
16307TIP3    H170336   5.053   6.712   3.415 -0.4710  0.8183 -0.3646
16307TIP3    H270337   5.039   6.578   3.346  1.3486  0.9241 -0.9901
16308TIP3   OH270338   3.113   0.237   5.301  0.1403 -0.0133 -0.0034
16308TIP3    H170339   3.126   0.298   5.229  0.1828  0.5217  0.4518
16308TIP3    H270340   3.033   0.267   5.345  1.0555  0.7295  1.2125
16309TIP3   OH270341   0.151   6.517   5.471 -0.0172 -0.0335 -0.3605
16309TIP3    H170342   0.173   6.578   5.542  0.6165 -1.3573  0.6101
16309TIP3    H270343   0.069   6.476   5.499 -0.6031  0.5478 -1.1531
16310TIP3   OH270344   3.216   5.870   2.054  0.5199 -0.1552 -0.1367
16310TIP3    H170345   3.178   5.833   1.975 -1.6009  2.2730 -0.4015
16310TIP3    H270346   3.269   5.944   2.023  0.6926  0.0582  0.6358
16311TIP3   OH270347   0.546   5.351   3.958 -0.2637  0.2150  0.0266
16311TIP3    H170348   0.507   5.381   3.876  0.0989  0.2907 -0.1194
16311TIP3    H270349   0.534   5.256   3.957 -0.3612  0.2281 -0.0594
16312TIP3   OH270350   2.453   4.528   2.924 -0.3551 -0.5888 -0.2320
16312TIP3    H170351   2.519   4.556   2.987 -0.0767 -2.2910  0.2829
16312TIP3    H270352   2.395   4.604   2.915  0.2966  0.1078  1.1161
16313TIP3   OH270353   2.357   0.404  10.543 -1.0162  0.4171 -0.3482
16313TIP3    H170354   2.331   0.372  10.457  2.3423  1.0636 -1.7595
16313TIP3    H270355   2.409   0.333  10.581 -0.6214  0.9718  0.1710
16314TIP3   OH270356   3.684   1.806   2.461 -0.1439 -0.2572 -0.3455
16314TIP3    H170357   3.758   1.791   2.518 -1.6700  1.6135  2.3253
16314TIP3    H270358   3.677   1.901   2.453 -0.8780 -0.4152 -2.5345
16315TIP3   OH270359   6.487   4.550   2.530 -0.2081  0.2508  0.1700
16315TIP3    H170360   6.463   4.528   2.620  0.3734 -1.2942 -0.0318
16315TIP3    H270361   6.454   4.640   2.518 -0.6911  0.3161  1.7589
16316TIP3   OH270362   0.496   7.080  14.649 -0.0439  0.8394  0.9847
16316TIP3    H170363   0.582   7.068  14.609 -0.4620 -0.0681  0.3514
16316TIP3    H270364   0.464   7.163  14.612 -0.6807 -0.2662 -1.0724
16317TIP3   OH270365   2.055   3.323  15.121 -0.0085  0.5012  0.7306
16317TIP3    H170366   2.087   3.395  15.066 -0.3282 -0.9465 -1.4627
16317TIP3    H270367   2.079   3.244  15.073  0.6407 -0.9254  3.2481
16318TIP3   OH270368   0.725   3.081  14.890  0.0318  0.3264  0.2543
16318TIP3    H170369   0.703   3.036  14.971  0.5969 -1.6484 -0.6110
16318TIP3    H270370   0.702   3.173  14.905 -3.4289 -0.5931  1.3179
16319TIP3   OH270371   1.038   1.807   4.389 -0.1066 -0.2881 -0.0455
16319TIP3    H170372   1.017   1.715   4.406  1.9422 -1.0393 -1.1660
16319TIP3    H270373   0.986   1.830   4.313 -0.8488 -0.4215  0.4148
16320TIP3   OH270374   5.683   0.419   5.011  0.0003 -0.6386  0.2110
16320TIP3    H170375   5.639   0.339   5.041  0.2454 -1.0074 -0.4010
16320TIP3    H270376   5.682   0.413   4.916  0.7046 -0.2901  0.1710
16321TIP3   OH270377   6.990   1.829  11.287 -0.0788  0.0949  0.0085
16321TIP3    H170378   7.062   1.885  11.319 -1.9315  1.3619  2.2911
16321TIP3    H270379   6.972   1.770  11.360  1.2053 -3.0514 -2.0230
16322TIP3   OH270380   6.399   1.213  12.407  0.1556 -0.1846 -0.4316
16322TIP3    H170381   6.327   1.170  12.454 -0.1130 -0.4538 -1.0834
16322TIP3    H270382   6.382   1.307  12.420 -0.2238 -0.2483 -0.4428
16323TIP3   OH270383   4.148   1.848   1.552 -0.3438 -0.5592 -0.1267
16323TIP3    H170384   4.173   1.929   1.507 -1.1851  0.5195  1.2791
16323TIP3    H270385   4.227   1.794   1.548 -0.5835 -0.8747 -3.5113
16324TIP3   OH270386   6.218   3.936   2.010 -0.3140  1.0872 -0.4491
16324TIP3    H170387   6.153   3.872   1.981 -1.0499  1.4873  0.2459
16324TIP3    H270388   6.175   3.980   2.084  1.0138  0.8950  0.4731
16325TIP3   OH270389   1.259   3.978   0.025 -0.1301  0.2118 -0.3872
16325TIP3    H170390   1.251   3.927   0.105  2.3615 -1.4160 -1.0702
16325TIP3    H270391   1.262   3.913  -0.045  0.3081  1.4380 -1.5584
16326TIP3   OH270392   3.908   1.045   2.900  0.5516  0.1241  0.0074
16326TIP3    H170393   3.917   1.132   2.940  0.9264  1.1723 -2.1998
16326TIP3    H270394   3.979   0.994   2.938  1.8291  1.5252 -0.3789
16327TIP3   OH270395   5.092   0.759   5.848 -0.0825 -0.6365 -0.5444
16327TIP3    H170396   5.148   0.837   5.846 -0.4526 -0.3766 -0.7614
16327TIP3    H270397   5.035   0.773   5.924  1.3645 -1.7603  0.8448
16328TIP3   OH270398   6.558   4.096   3.068  0.5063  0.6659  0.0734
16328TIP3    H170399   6.605   4.154   3.128 -0.6932  0.6290  1.0748
16328TIP3    H270400   6.544   4.016   3.118 -0.4532  0.6105 -0.2637
16329TIP3   OH270401   7.025   0.921  10.354 -0.5427 -0.2437 -0.0153
16329TIP3    H170402   7.045   0.848  10.296 -0.2569 -0.2789  0.1240
16329TIP3    H270403   7.110   0.945  10.392 -0.5967  0.3062 -0.2325
16330TIP3   OH270404   0.181   6.869   3.780  0.1230 -0.0309  0.5170
16330TIP3    H170405   0.272   6.865   3.810  0.0496 -0.2668  0.7154
16330TIP3    H270406   0.158   6.961   3.786 -0.0429 -0.1270  1.6861
16331TIP3   OH270407   2.762   1.187   5.329  0.5849  0.3226  0.1536
16331TIP3    H170408   2.777   1.103   5.286  1.1795 -0.1728  1.2620
16331TIP3    H270409   2.713   1.165   5.408 -0.7724  1.2442 -0.3979
16332TIP3   OH270410   4.752   1.098  10.572 -0.0710 -0.1963 -0.2246
16332TIP3    H170411   4.792   1.013  10.590 -2.1278 -1.0083  0.8316
16332TIP3    H270412   4.685   1.080  10.507  0.5993  0.9659 -1.2836
16333TIP3   OH270413   0.668   2.050   2.904 -0.0601 -0.0654  0.1919
16333TIP3    H170414   0.719   2.006   2.972 -0.2252  0.3246  0.5755
16333TIP3    H270415   0.658   1.985   2.835  1.7444  0.1517 -0.3122
16334TIP3   OH270416   4.027   5.370   2.912  0.4699  0.2811 -0.3122
16334TIP3    H170417   3.978   5.327   2.981  0.9808  1.3949  0.7881
16334TIP3    H270418   4.059   5.299   2.856  0.7922 -0.7132  1.1069
16335TIP3   OH270419   2.957   3.689   1.214 -0.7839 -0.2665  0.3281
16335TIP3    H170420   2.977   3.683   1.121 -0.1051 -0.6326  0.4912
16335TIP3    H270421   2.885   3.752   1.219 -0.7875 -0.2002 -0.4344
16336TIP3   OH270422   6.243   1.437   2.105  0.0282  0.1208  0.4432
16336TIP3    H170423   6.276   1.525   2.124 -2.0333  0.5613  2.3724
16336TIP3    H270424   6.311   1.397   2.050  2.1217  2.0912  1.4492
16337TIP3   OH270425   0.312   0.525   2.700 -0.0073 -0.2510  0.6423
16337TIP3    H170426   0.342   0.615   2.713 -0.0379  0.1847 -1.8291
16337TIP3    H270427   0.319   0.511   2.605 -1.5190 -2.3143  0.7731
16338TIP3   OH270428   3.683   2.245   2.216 -0.5777 -0.2300 -0.2830
16338TIP3    H170429   3.756   2.214   2.162  0.3325 -1.4753  1.5450
16338TIP3    H270430   3.618   2.175   2.211 -0.1571 -0.7234  0.7935
16339TIP3   OH270431   2.224   4.142  10.631 -0.0296  0.3240 -0.8563
16339TIP3    H170432   2.297   4.202  10.620  0.0880 -0.0168 -2.0738
16339TIP3    H270433   2.172   4.152  10.551 -2.2415  1.7735  0.6503
16340TIP3   OH270434   2.590   5.047   5.572 -0.6025 -0.0743  0.6888
16340TIP3    H170435   2.663   5.033   5.632  0.0423 -1.1476 -0.3074
16340TIP3    H270436   2.591   4.970   5.515 -0.9686  1.0771 -0.9290
16341TIP3   OH270437   3.465   3.647   3.147 -0.2313  0.2916 -0.1339
16341TIP3    H170438   3.377   3.635   3.109 -0.6144  0.7806  0.5677
16341TIP3    H270439   3.471   3.580   3.215  0.6625 -0.9350 -1.3873
16342TIP3   OH270440   4.806   4.053  14.463  0.1176 -0.7409  0.5890
16342TIP3    H170441   4.767   4.138  14.485  0.5041 -0.7860  1.5117
16342TIP3    H270442   4.899   4.063  14.485  0.5523 -0.8023 -1.0817
16343TIP3   OH270443   0.197   4.254  14.716 -0.3034 -0.2328 -0.1128
16343TIP3    H170444   0.164   4.337  14.752  0.1397 -0.2737  0.4029
16343TIP3    H270445   0.160   4.187  14.773  0.8872 -0.2597  0.6699
16344TIP3   OH270446   4.565   3.375   2.427 -0.1789  0.0783 -0.5578
16344TIP3    H170447   4.632   3.375   2.494  0.9646  0.9826 -1.6404
16344TIP3    H270448   4.524   3.462   2.434 -1.2084 -0.4404  0.0499
16345TIP3   OH270449   5.997   3.357   1.954  0.3790 -0.1253  0.2313
16345TIP3    H170450   6.084   3.360   1.913  1.6851 -0.5510  2.7899
16345TIP3    H270451   5.939   3.329   1.883  2.6966 -2.1557 -1.0547
16346TIP3   OH270452   1.515   3.415  14.262  0.3363  0.3127 -0.0616
16346TIP3    H170453   1.463   3.366  14.199  0.5740  0.2175 -0.1856
16346TIP3    H270454   1.599   3.430  14.217  1.0087 -0.9185  0.7313
16347TIP3   OH270455   7.094   4.262  13.163  0.0193  0.2486  0.6206
16347TIP3    H170456   7.168   4.213  13.126 -0.8293 -0.6104  0.0004
16347TIP3    H270457   7.057   4.202  13.228 -1.0600  0.0211 -0.1760
16348TIP3   OH270458   6.058   2.562   4.262 -0.1472 -0.2768 -0.0467
16348TIP3    H170459   6.149   2.585   4.284 -0.4105  1.3195 -0.5107
16348TIP3    H270460   6.054   2.569   4.166 -0.9802  0.6028  0.0362
16349TIP3   OH270461   0.849   0.323   2.614 -0.2470 -0.3973 -0.1477
16349TIP3    H170462   0.781   0.389   2.623  0.4805  0.5742 -1.4348
16349TIP3    H270463   0.912   0.343   2.684  1.0503  1.6760 -1.8002
16350TIP3   OH270464   2.957   4.424   5.274 -0.3892 -0.2801  0.3349
16350TIP3    H170465   3.008   4.457   5.200  1.0329 -0.9698  0.9765
16350TIP3    H270466   3.007   4.349   5.307 -0.9410  0.0534  2.0433
16351TIP3   OH270467   2.739   6.627   2.990 -0.4110 -0.1481  0.3402
16351TIP3    H170468   2.725   6.581   3.072  0.9434  1.2243  1.3995
16351TIP3    H270469   2.732   6.720   3.013  1.0127  0.2977 -0.8612
16352TIP3   OH270470   5.494   3.958   2.123 -0.3187 -0.5354 -0.4940
16352TIP3    H170471   5.468   3.919   2.207  1.8064 -0.8994  0.0745
16352TIP3    H270472   5.412   3.979   2.079 -1.5047 -1.7302  1.0333
16353TIP3   OH270473   4.467   4.919  15.308 -0.4641 -0.6772 -0.2212
16353TIP3    H170474   4.491   4.840  15.260 -1.1199 -0.3550 -1.1072
16353TIP3    H270475   4.388   4.951  15.265 -0.1079  0.5718 -0.0163
16354TIP3   OH270476   5.639   4.020   1.136 -0.0653 -0.1362 -0.0315
16354TIP3    H170477   5.619   3.932   1.106 -0.1720  0.4208 -1.6982
16354TIP3    H270478   5.558   4.069   1.122  0.3479  0.5018 -0.2288
16355TIP3   OH270479   5.067   1.104   0.494  0.1372  0.8957  0.1176
16355TIP3    H170480   5.009   1.042   0.539 -0.4379  1.7562  0.6005
16355TIP3    H270481   5.138   1.121   0.556  0.0871  1.0178  0.1418
16356TIP3   OH270482   4.337   6.999   1.925  0.5038 -0.0260  0.0469
16356TIP3    H170483   4.407   7.021   1.986  0.5719 -1.4089  0.5085
16356TIP3    H270484   4.298   6.919   1.960 -1.2401  0.6227 -0.2761
16357TIP3   OH270485   3.525   6.271   2.143  0.8090 -0.6027  0.3846
16357TIP3    H170486   3.552   6.209   2.211  1.2516 -1.8553 -0.8815
16357TIP3    H270487   3.587   6.256   2.072 -0.3808 -0.1919 -0.7713
16358TIP3   OH270488   5.473   2.728   1.661  0.2937  0.0844 -0.0776
16358TIP3    H170489   5.422   2.761   1.735  0.4686 -0.1825  0.1646
16358TIP3    H270490   5.564   2.738   1.689  0.3834  0.7473 -0.5899
16359TIP3   OH270491   1.992   6.489   4.953 -0.8385 -0.3754 -0.1826
16359TIP3    H170492   1.989   6.396   4.932 -0.7969 -0.2016 -0.9800
16359TIP3    H270493   1.902   6.520   4.941 -0.5440  0.0137 -1.4918
16360TIP3   OH270494   0.179   2.737   5.710 -0.5861  0.1331 -0.5304
16360TIP3    H170495   0.229   2.779   5.640  2.4654  0.3862  1.5928
16360TIP3    H270496   0.221   2.651   5.721 -0.3876  0.4367  1.4727
16361TIP3   OH270497   5.481   3.353  15.035 -0.0425  0.5718 -0.0060
16361TIP3    H170498   5.517   3.410  14.967  0.1031  2.0565  1.2677
16361TIP3    H270499   5.512   3.391  15.117  0.3307 -1.5623  0.8850
16362TIP3   OH270500   1.506   4.974   1.342 -1.0058  0.1450  0.1077
16362TIP3    H170501   1.475   5.040   1.280  0.5986  1.3658  0.5396
16362TIP3    H270502   1.598   4.960   1.318 -0.4217  0.4344  1.9926
16363TIP3   OH270503   3.070   1.085   0.773 -0.8095  0.3441  0.3702
16363TIP3    H170504   3.125   1.159   0.747 -0.0822 -0.2703  0.1105
16363TIP3    H270505   3.058   1.035   0.693 -0.0262 -0.6161  0.8247
16364TIP3   OH270506   6.588   1.303   3.464  0.0509  0.6618  0.3915
16364TIP3    H170507   6.605   1.377   3.522  2.8589 -0.4906  1.2285
16364TIP3    H270508   6.623   1.330   3.379 -1.6386  1.3467 -0.1247
16365TIP3   OH270509   0.722   6.335   0.411 -0.1329 -0.6884 -0.6182
16365TIP3    H170510   0.681   6.343   0.324  0.2708 -1.4531 -0.8858
16365TIP3    H270511   0.649   6.345   0.473 -0.6418 -1.4507 -1.0718
16366TIP3   OH270512   7.155   4.062  15.240 -0.6451 -0.0286 -0.0286
16366TIP3    H170513   7.083   4.100  15.190  1.0875  1.9074 -1.2431
16366TIP3    H270514   7.118   3.985  15.282 -2.5358 -1.1406 -3.3881
16367TIP3   OH270515   6.231   6.992   5.027  0.0286  0.5107  0.7331
16367TIP3    H170516   6.297   6.947   4.973  0.3154 -0.0703  1.5313
16367TIP3    H270517   6.186   7.051   4.967  2.8804  2.7581  0.6113
16368TIP3   OH270518   3.846   1.383  10.159 -0.1965  0.3730  0.3589
16368TIP3    H170519   3.918   1.323  10.177  1.4368  2.4415  1.2499
16368TIP3    H270520   3.795   1.384  10.240 -1.5615 -1.4058 -0.4113
16369TIP3   OH270521   4.280   5.423  14.752  0.1347 -0.2368  0.2371
16369TIP3    H170522   4.375   5.413  14.752  0.2940  1.0933 -0.0532
16369TIP3    H270523   4.262   5.486  14.682 -0.8284  0.5989  1.1961
16370TIP3   OH270524   4.814   2.316  11.110 -0.9693  0.0063 -0.0872
16370TIP3    H170525   4.793   2.256  11.182 -0.3584 -0.0039  0.0924
16370TIP3    H270526   4.887   2.273  11.065 -1.8306 -0.3581 -1.1783
16371TIP3   OH270527   1.350   6.590   2.376  0.1733 -0.0975 -0.0753
16371TIP3    H170528   1.296   6.647   2.321  1.2477  0.1852 -0.8620
16371TIP3    H270529   1.358   6.638   2.459 -0.0453  0.2629 -0.2579
16372TIP3   OH270530   1.084   5.884   4.916 -0.4109 -0.1185  0.1054
16372TIP3    H170531   1.020   5.907   4.849 -1.6688 -1.7628  0.6731
16372TIP3    H270532   1.063   5.940   4.990 -0.0165  0.6054 -0.3187
16373TIP3   OH270533   0.142   4.101   3.787 -0.0812  0.4589  0.3634
16373TIP3    H170534   0.214   4.086   3.726  0.3444  2.4424  0.2866
16373TIP3    H270535   0.068   4.055   3.749  1.2477 -2.2143  0.7888
16374TIP3   OH270536   0.475   1.607  14.585  0.0660 -0.5712 -0.5160
16374TIP3    H170537   0.391   1.571  14.615 -1.0218  0.6454 -1.9590
16374TIP3    H270538   0.476   1.591  14.491  1.6212 -0.8173 -0.4835
16375TIP3   OH270539   1.491   5.236  15.290 -0.0688 -0.2359  0.4088
16375TIP3    H170540   1.576   5.275  15.271 -0.9881  2.2834  0.9562
16375TIP3    H270541   1.457   5.208  15.205  0.8911 -0.3852  0.0652
16376TIP3   OH270542   1.945   0.221  13.242  0.3894 -0.1424  0.0497
16376TIP3    H170543   1.988   0.145  13.203  0.7813  0.0524  0.0963
16376TIP3    H270544   1.851   0.206  13.227  0.5520  0.1585 -1.4128
16377TIP3   OH270545   4.160   5.911  10.730 -0.3603  0.3189  0.1123
16377TIP3    H170546   4.215   5.982  10.762  0.1274 -0.0824  0.1587
16377TIP3    H270547   4.160   5.846  10.800 -0.1389 -0.0920 -0.2661
16378TIP3   OH270548   0.770   1.856   1.997  0.6123  0.9287  0.3523
16378TIP3    H170549   0.710   1.882   1.927 -1.1007 -1.5094  0.7891
16378TIP3    H270550   0.844   1.816   1.951 -0.0998  0.1177 -0.1271
16379TIP3   OH270551   2.895   3.471   4.794 -0.6551  0.0075 -0.1802
16379TIP3    H170552   2.894   3.387   4.749 -0.5681 -0.3591  0.4806
16379TIP3    H270553   2.846   3.530   4.736 -2.0346 -0.8726  0.0217
16380TIP3   OH270554   0.154   3.120  11.021  0.3838  0.0484  0.1211
16380TIP3    H170555   0.076   3.083  11.063  0.6835  1.2067  1.7982
16380TIP3    H270556   0.156   3.211  11.051  1.0767  0.7193 -1.8150
16381TIP3   OH270557   2.808   5.359   3.514  0.2189  0.0614 -0.3288
16381TIP3    H170558   2.831   5.275   3.474  0.6586 -0.3865  0.8115
16381TIP3    H270559   2.827   5.347   3.607 -0.4180  1.1884 -0.0352
16382TIP3   OH270560   5.951   3.728   3.514 -0.0736  0.6321  0.0549
16382TIP3    H170561   5.890   3.714   3.586 -1.2526 -0.9998 -1.1801
16382TIP3    H270562   6.008   3.798   3.544 -1.1172  0.6459  2.1770
16383TIP3   OH270563   2.406   5.473  10.629 -0.3741  0.2049  0.1119
16383TIP3    H170564   2.419   5.567  10.643  2.6536 -0.1621  0.5852
16383TIP3    H270565   2.493   5.435  10.641 -1.2678 -2.5471 -1.2442
16384TIP3   OH270566   0.552   5.469   4.225  0.4066  0.0981  0.7508
16384TIP3    H170567   0.473   5.458   4.172  0.6826 -1.4893  0.6162
16384TIP3    H270568   0.624   5.454   4.164  0.7559 -0.6283  1.3328
16385TIP3   OH270569   3.140   7.072   2.658 -0.2346 -0.0271  0.4676
16385TIP3    H170570   3.073   7.021   2.613 -1.1187  1.8879 -0.5137
16385TIP3    H270571   3.214   7.012   2.666 -0.8407 -1.1610 -1.5929
16386TIP3   OH270572   5.845   6.942   0.903  0.7516 -0.6635  0.2324
16386TIP3    H170573   5.906   6.959   0.976  0.0099  1.2014  0.4678
16386TIP3    H270574   5.759   6.934   0.945  0.5310 -1.1644 -0.2995
16387TIP3   OH270575   3.837   1.790   0.254 -0.0739  0.3141  0.1513
16387TIP3    H170576   3.916   1.737   0.264  1.7283  2.7243 -0.2623
16387TIP3    H270577   3.839   1.818   0.162 -1.4603  0.3985  0.1268
16388TIP3   OH270578   3.727   2.197   4.759  0.4168  0.0932  0.0065
16388TIP3    H170579   3.771   2.282   4.759 -1.3366  1.0534 -0.0620
16388TIP3    H270580   3.686   2.191   4.846 -0.1875 -0.2749 -0.2930
16389TIP3   OH270581   5.565   1.213  11.884  0.3455 -0.2658 -0.3868
16389TIP3    H170582   5.559   1.117  11.885  0.1732 -0.2578 -0.4719
16389TIP3    H270583   5.578   1.235  11.792  2.2199 -0.3004 -0.1754
16390TIP3   OH270584   0.591   4.859   5.652  0.3440 -0.3949  0.1009
16390TIP3    H170585   0.560   4.833   5.739  0.1539 -1.2203 -0.2125
16390TIP3    H270586   0.578   4.782   5.597 -2.3951  1.0193 -1.4165
16391TIP3   OH270587   2.540   4.970   3.708 -0.1501 -0.0316 -0.9494
16391TIP3    H170588   2.518   4.942   3.797  2.2637 -0.5177 -0.4283
16391TIP3    H270589   2.590   5.050   3.720 -1.3584  0.9283 -2.0332
16392TIP3   OH270590   0.802   3.050  13.920  0.1994  0.0627  0.5880
16392TIP3    H170591   0.863   3.001  13.865 -0.6392  0.9082 -1.2042
16392TIP3    H270592   0.734   2.987  13.944  0.1293 -0.1331 -0.1031
16393TIP3   OH270593   3.176   4.001   2.139  0.7202 -0.0496  0.0184
16393TIP3    H170594   3.228   4.075   2.170  0.3412  0.2769 -0.1234
16393TIP3    H270595   3.176   4.010   2.044 -1.9986  1.6419  0.0644
16394TIP3   OH270596   5.868   1.049   0.337 -0.5127 -0.2065  0.5396
16394TIP3    H170597   5.892   1.075   0.248 -0.7357 -0.1418  0.4984
16394TIP3    H270598   5.908   1.116   0.393  2.0026 -1.6980  0.7190
16395TIP3   OH270599   4.900   2.369   4.759  0.0183  0.0719  0.0758
16395TIP3    H170600   4.916   2.350   4.851  1.0843 -1.0630 -0.3181
16395TIP3    H270601   4.947   2.301   4.711 -2.8288 -1.1124 -1.3011
16396TIP3   OH270602   0.310   2.065   3.021 -0.5918  0.5598  0.3894
16396TIP3    H170603   0.278   2.017   2.945  0.9138  0.7338 -0.3958
16396TIP3    H270604   0.362   2.137   2.985 -0.5103  1.1276  1.5726
16397TIP3   OH270605   5.230   5.538   2.481 -0.2481  0.4198  0.0304
16397TIP3    H170606   5.180   5.552   2.400 -0.1820 -0.6336 -0.2160
16397TIP3    H270607   5.183   5.586   2.548 -0.1985  1.4822 -0.6642
16398TIP3   OH270608   3.203   3.483  15.046 -0.2884 -0.0715 -0.2344
16398TIP3    H170609   3.207   3.488  14.950 -0.5112 -0.2870 -0.2566
16398TIP3    H270610   3.112   3.504  15.066  0.2211  2.0935  0.0605
16399TIP3   OH270611   6.723   1.272  13.597 -0.9380  0.4798 -0.0791
16399TIP3    H170612   6.696   1.335  13.664 -1.8990 -0.7596  0.7327
16399TIP3    H270613   6.814   1.296  13.578 -0.2251  0.2028  2.5099
16400TIP3   OH270614   0.641   0.923   5.079  0.2985  0.3275  0.0147
16400TIP3    H170615   0.638   0.953   5.169 -0.7081 -0.7580  0.3573
16400TIP3    H270616   0.618   0.831   5.083 -0.2816  0.3834 -1.4138
16401TIP3   OH270617   1.800   3.166   1.506  0.1590 -0.0294 -0.3311
16401TIP3    H170618   1.749   3.115   1.569  0.5099 -1.3867 -1.1073
16401TIP3    H270619   1.809   3.253   1.546 -0.2032 -0.6584  1.1587
16402TIP3   OH270620   1.214   5.123   4.076 -0.4036  0.4042 -0.1839
16402TIP3    H170621   1.257   5.188   4.132 -0.1667  1.8957 -2.0188
16402TIP3    H270622   1.124   5.118   4.110  0.3072 -0.4881  1.7490
16403TIP3   OH270623   2.938   6.952  13.197  0.4913 -0.2501  0.3507
16403TIP3    H170624   2.860   6.964  13.142  0.9356  0.9366 -0.0587
16403TIP3    H270625   2.911   6.888  13.263  0.2689 -2.5332 -1.8345
16404TIP3   OH270626   3.132   1.410   4.416 -0.0995 -0.6015  0.1526
16404TIP3    H170627   3.163   1.428   4.327 -1.1942 -1.0699 -0.3468
16404TIP3    H270628   3.055   1.465   4.426  0.5619  0.1552  1.1759
16405TIP3   OH270629   2.867   6.939   1.099  0.1370 -0.0803  0.3334
16405TIP3    H170630   2.778   6.935   1.065 -0.3674 -0.5154  1.6613
16405TIP3    H270631   2.915   6.990   1.033 -1.2537  0.8513 -0.0128
16406TIP3   OH270632   6.171   6.748  15.188  0.0196 -0.0391 -0.1226
16406TIP3    H170633   6.084   6.772  15.158  0.4663  0.7574 -0.8240
16406TIP3    H270634   6.224   6.827  15.176  0.6323 -0.2233  1.1489
16407TIP3   OH270635   2.540   6.063   3.713  0.1019 -0.3250 -0.0223
16407TIP3    H170636   2.531   6.043   3.620  0.9297 -0.8076  0.0005
16407TIP3    H270637   2.632   6.049   3.733  0.1186  0.6381  0.6741
16408TIP3   OH270638   3.457   4.973  14.205  0.4415  0.0413  0.4265
16408TIP3    H170639   3.551   4.984  14.188  0.3093 -0.1025 -0.4588
16408TIP3    H270640   3.450   4.882  14.236  0.6999  0.3319  1.3681
16409TIP3   OH270641   5.914   4.622   3.957 -0.7383  0.0101 -0.5112
16409TIP3    H170642   5.857   4.622   4.035  0.2881 -1.5267  0.2930
16409TIP3    H270643   5.865   4.672   3.892 -3.2542 -1.5802 -0.0189
16410TIP3   OH270644   3.066   2.198   0.529  0.4069  0.5894  0.1879
16410TIP3    H170645   3.010   2.123   0.549  0.3527  0.5855  0.0247
16410TIP3    H270646   3.052   2.259   0.601  0.6467  0.3326  0.4566
16411TIP3   OH270647   7.018   0.987   2.913 -0.1192 -0.0098 -0.0525
16411TIP3    H170648   7.104   0.957   2.943 -0.9412 -1.7900  0.6992
16411TIP3    H270649   6.970   1.005   2.994 -2.0716 -3.9911 -0.0912
16412TIP3   OH270650   2.238   6.797   4.423  0.1074 -0.4802 -0.0916
16412TIP3    H170651   2.163   6.737   4.430  1.4596 -2.2812 -0.5589
16412TIP3    H270652   2.259   6.799   4.330  0.7003 -0.0616  0.0468
16413TIP3   OH270653   1.847   6.675   0.022  0.1303 -0.4376 -0.2169
16413TIP3    H170654   1.815   6.714   0.103 -1.3954  1.9509 -1.8102
16413TIP3    H270655   1.838   6.581   0.035 -0.9627 -0.0917  2.0222
16414TIP3   OH270656   5.920   0.307  14.463 -0.5192 -0.2913 -0.2271
16414TIP3    H170657   5.861   0.322  14.536  0.8785 -0.0593  0.9133
16414TIP3    H270658   5.863   0.293  14.388 -1.9960 -0.0755  0.8121
16415TIP3   OH270659   1.400   0.263   4.801  0.2986 -0.1859 -0.0227
16415TIP3    H170660   1.369   0.348   4.831 -0.4938 -0.2418 -0.6718
16415TIP3    H270661   1.327   0.225   4.753  0.9674 -0.8338 -0.5628
16416TIP3   OH270662   2.848   6.000   4.660  0.2472  0.1379 -0.0070
16416TIP3    H170663   2.934   6.026   4.626 -0.6408  0.4382 -2.2249
16416TIP3    H270664   2.849   6.028   4.751  2.2582  0.7139 -0.1415
16417TIP3   OH270665   3.088   3.550   3.693 -0.0112  0.1010  0.1781
16417TIP3    H170666   3.099   3.580   3.603 -1.7445 -1.7727 -0.7534
16417TIP3    H270667   3.063   3.458   3.684  3.4766 -1.2938  2.7327
16418TIP3   OH270668   5.368   7.059   3.360  0.2139 -0.2756  0.3629
16418TIP3    H170669   5.332   7.017   3.438  1.1617 -1.3407  0.2549
16418TIP3    H270670   5.455   7.090   3.387  1.5801 -2.7681 -0.8362
16419TIP3   OH270671   1.814   5.563   1.528 -0.2960  0.2829  0.2802
16419TIP3    H170672   1.762   5.489   1.561  1.2590 -1.0013 -0.0334
16419TIP3    H270673   1.755   5.638   1.534 -1.3680 -0.6272  2.2832
16420TIP3   OH270674   2.558   2.730   5.585 -0.2991 -0.2831  0.1019
16420TIP3    H170675   2.503   2.746   5.661 -1.6866  1.1399 -1.1138
16420TIP3    H270676   2.623   2.801   5.587  0.9151 -1.3828  0.9912
16421TIP3   OH270677   5.600   2.243   0.966  0.2073  0.8033  0.2940
16421TIP3    H170678   5.585   2.175   1.031  0.6815  0.1810 -0.2231
16421TIP3    H270679   5.532   2.229   0.900 -0.2579  1.4153  0.6388
16422TIP3   OH270680   1.133   1.486   3.938  0.3663 -0.4092 -0.1850
16422TIP3    H170681   1.208   1.517   3.989  0.2758 -1.6175  0.7541
16422TIP3    H270682   1.121   1.395   3.967 -0.0660 -0.9696 -1.9521
16423TIP3   OH270683   2.540   0.376   2.093 -0.0130  0.6850 -0.4534
16423TIP3    H170684   2.600   0.312   2.132 -1.4611  0.5612  1.7808
16423TIP3    H270685   2.552   0.455   2.146 -0.6857  1.1689 -1.0068
16424TIP3   OH270686   2.710   3.812   2.835  0.3091 -0.2064 -0.1669
16424TIP3    H170687   2.747   3.896   2.864  0.1020 -0.5377  1.1322
16424TIP3    H270688   2.622   3.834   2.806  0.0895 -0.0252  0.6012
16425TIP3   OH270689   5.773   1.580  14.874 -0.0523 -0.1407  0.6397
16425TIP3    H170690   5.739   1.607  14.959  1.0091 -2.1000  1.7653
16425TIP3    H270691   5.824   1.501  14.893  2.2066  0.7133 -1.4707
16426TIP3   OH270692   4.006   5.324   4.848 -0.2135 -0.3367  0.4363
16426TIP3    H170693   3.933   5.354   4.794 -0.2368 -2.5324 -0.8569
16426TIP3    H270694   4.054   5.405   4.869 -2.6338  1.0743  0.8338
16427TIP3   OH270695   1.135   0.782   4.104 -0.2056 -0.8038 -0.2478
16427TIP3    H170696   1.049   0.792   4.145 -0.5057 -0.3529 -0.9672
16427TIP3    H270697   1.197   0.815   4.169 -0.7619  1.0008 -0.5683
16428TIP3   OH270698   5.958   1.007   1.689  0.2101  0.5843 -0.1288
16428TIP3    H170699   6.020   1.025   1.618 -1.2708 -0.0457 -1.6679
16428TIP3    H270700   5.906   0.933   1.657  0.3102 -0.5687  2.2005
16429TIP3   OH270701   2.272   4.750   3.599 -0.6220 -0.1010 -0.0341
16429TIP3    H170702   2.291   4.710   3.513  2.2285  0.8083  0.0551
16429TIP3    H270703   2.299   4.841   3.589  1.5131 -0.3554  2.2430
16430TIP3   OH270704   5.997   3.795  12.078  0.0029 -0.5848  0.3927
16430TIP3    H170705   6.026   3.850  12.151 -0.6857  1.0711 -0.5210
16430TIP3    H270706   6.057   3.815  12.006 -0.6181 -0.5739 -0.1323
16431TIP3   OH270707   1.510   3.016  13.498 -0.6633 -0.3287 -0.3331
16431TIP3    H170708   1.550   3.053  13.420  2.4080 -2.8674 -0.1502
16431TIP3    H270709   1.574   3.031  13.568 -3.5277  2.3600  2.0263
16432TIP3   OH270710   6.560   2.641   0.209 -0.2232 -0.2658 -0.2876
16432TIP3    H170711   6.609   2.700   0.265 -1.0542  0.9556 -0.7960
16432TIP3    H270712   6.623   2.574   0.182  1.0598  1.0341 -0.6054
16433TIP3   OH270713   1.565   4.010   3.352  0.0549 -0.4011  0.4951
16433TIP3    H170714   1.496   3.964   3.399 -0.2174  1.2343  1.8142
16433TIP3    H270715   1.529   4.025   3.265 -0.2552 -1.7213  0.3890
16434TIP3   OH270716   5.692   5.380  12.661  0.0518  0.1695  0.5910
16434TIP3    H170717   5.715   5.416  12.575  1.1565 -0.4833  0.5945
16434TIP3    H270718   5.705   5.286  12.653 -1.4757 -0.0984  0.9947
16435TIP3   OH270719   4.152   0.782   4.040  0.2081  0.0437  0.4100
16435TIP3    H170720   4.242   0.795   4.011 -0.4699  0.3823 -1.6666
16435TIP3    H270721   4.128   0.866   4.081 -0.1931  1.2088 -2.0402
16436TIP3   OH270722   2.141   2.200   3.280  0.0618  0.2078 -0.4662
16436TIP3    H170723   2.203   2.272   3.273 -0.5561  0.9133  0.8873
16436TIP3    H270724   2.095   2.216   3.363 -1.4285 -0.6727 -1.0863
16437TIP3   OH270725   2.695   2.197   4.962  0.2185 -0.1701  0.2092
16437TIP3    H170726   2.724   2.266   4.902 -0.5913 -0.7995 -0.9437
16437TIP3    H270727   2.680   2.242   5.045  3.4636  0.3655  0.6360
16438TIP3   OH270728   5.035   6.698   4.784  0.1799  0.0000 -0.1530
16438TIP3    H170729   4.981   6.734   4.855 -1.9918  0.4670 -1.9350
16438TIP3    H270730   5.084   6.773   4.751  1.2590 -0.2334  0.8275
16439TIP3   OH270731   1.710   4.859  13.890  0.0091  0.1960  0.4782
16439TIP3    H170732   1.668   4.864  13.976  0.1252 -0.1819  0.5595
16439TIP3    H270733   1.653   4.802  13.838  0.0997  0.1762  0.3993
16440TIP3   OH270734   2.534   2.078   4.027 -0.0336 -0.0783 -0.2044
16440TIP3    H170735   2.441   2.062   4.008  0.4046 -1.8667 -1.1020
16440TIP3    H270736   2.535   2.110   4.117 -1.5906  1.0147 -0.5430
16441TIP3   OH270737   6.741   2.607   2.425  0.2825  0.4177  0.2773
16441TIP3    H170738   6.784   2.524   2.444 -1.1492 -0.6044 -0.6893
16441TIP3    H270739   6.647   2.586   2.429 -0.1025  2.0056  0.0864
16442TIP3   OH270740   4.221   2.697   5.410 -0.1551 -0.0126  0.1684
16442TIP3    H170741   4.302   2.747   5.403 -0.8396  1.1447  0.3585
16442TIP3    H270742   4.212   2.679   5.503 -0.0309 -0.2969  0.1265
16443TIP3   OH270743   2.496   4.505   4.599  0.5712 -0.1600  0.4987
16443TIP3    H170744   2.450   4.424   4.577  0.9605  0.1993 -1.9525
16443TIP3    H270745   2.465   4.528   4.687 -2.2168 -1.0940 -0.1597
16444TIP3   OH270746   4.304   6.905   3.900 -0.5507  0.3637 -0.2234
16444TIP3    H170747   4.363   6.972   3.867  0.8528 -0.9647 -0.5613
16444TIP3    H270748   4.288   6.929   3.992 -0.5552  1.4539 -0.5035
16445TIP3   OH270749   5.541   3.302   3.791 -0.3386 -0.1130 -0.1985
16445TIP3    H170750   5.535   3.396   3.809 -0.8963 -0.2554  0.4022
16445TIP3    H270751   5.586   3.266   3.868 -0.0490 -0.3305 -0.4654
16446TIP3   OH270752   5.085   0.628   1.699 -0.0629  0.1323 -0.2157
16446TIP3    H170753   5.112   0.655   1.786 -1.6107 -0.2000  0.3841
16446TIP3    H270754   4.990   0.626   1.702 -0.1296 -0.4046 -1.7537
16447TIP3   OH270755   2.187   2.417   0.276  0.1692 -0.1508 -0.5895
16447TIP3    H170756   2.116   2.413   0.212  0.9757  0.6767 -1.5684
16447TIP3    H270757   2.233   2.333   0.266 -0.2066 -0.3704 -0.4908
16448TIP3   OH270758   2.655   2.832   2.721  0.5654  0.6086  0.0926
16448TIP3    H170759   2.718   2.779   2.770  0.3944  0.4537  0.1464
16448TIP3    H270760   2.576   2.778   2.716  0.3164  0.9375  0.3321
16449TIP3   OH270761   5.340   4.553   4.456  0.4852 -0.4497  0.6508
16449TIP3    H170762   5.431   4.525   4.446  0.6723  0.1344  0.7242
16449TIP3    H270763   5.313   4.518   4.541 -0.0915 -2.6197 -0.3395
16450TIP3   OH270764   0.014   6.766  14.145  0.4339  0.0038 -0.0038
16450TIP3    H170765   0.006   6.759  14.050  3.8059 -0.7630 -0.3573
16450TIP3    H270766  -0.007   6.857  14.164 -0.2332  0.1850 -1.4713
16451TIP3   OH270767   1.501   6.645   4.537 -0.1978 -0.5091 -0.0006
16451TIP3    H170768   1.569   6.586   4.571 -0.5639 -1.0290 -0.1595
16451TIP3    H270769   1.549   6.709   4.484  0.1780 -0.8239 -0.0434
16452TIP3   OH270770   2.669   3.965   3.125  0.2916 -0.1785  0.1605
16452TIP3    H170771   2.690   3.947   3.216 -0.0426 -1.5759 -0.0198
16452TIP3    H270772   2.706   4.052   3.109 -1.0523  0.8107  2.0646
16453TIP3   OH270773   1.985   3.009  14.444 -0.2863 -0.4452 -0.5799
16453TIP3    H170774   1.898   3.019  14.482  0.0837 -0.7551  0.3676
16453TIP3    H270775   2.019   2.928  14.482  0.9163  0.3418  0.0589
16454TIP3   OH270776   5.355   3.204   1.307  0.7326  0.2134  0.4745
16454TIP3    H170777   5.312   3.143   1.247 -0.7490  1.2134  0.4734
16454TIP3    H270778   5.430   3.155   1.341  0.5563 -1.0125 -0.7873
16455TIP3   OH270779   3.079   5.335  13.110 -0.3246  0.2151 -0.0987
16455TIP3    H170780   3.072   5.289  13.193 -2.2035 -0.1265 -0.3897
16455TIP3    H270781   2.988   5.351  13.084  0.2371  1.4452 -1.4663
16456TIP3   OH270782   2.620   0.515  14.653 -0.2985  0.3492  0.4751
16456TIP3    H170783   2.581   0.463  14.583  1.9944  1.0363 -1.4317
16456TIP3    H270784   2.685   0.457  14.693 -1.7257 -0.1088  2.2853
16457TIP3   OH270785   4.012   4.914   4.210 -0.5070 -0.2589  0.3045
16457TIP3    H170786   4.043   4.839   4.260  0.3203  0.3499  0.7117
16457TIP3    H270787   3.930   4.940   4.253  0.5946  0.7519  1.8722
16458TIP3   OH270788   2.596   4.902  14.121  0.0448 -0.3445  0.6583
16458TIP3    H170789   2.521   4.962  14.120  0.4321  0.1344  0.4218
16458TIP3    H270790   2.565   4.825  14.073 -0.5207 -0.4235  1.1354
16459TIP3   OH270791   0.701   1.018   4.765 -0.7011  0.1005  0.5121
16459TIP3    H170792   0.717   1.051   4.853  1.0568  1.8888 -0.4076
16459TIP3    H270793   0.606   1.011   4.759 -0.8599  0.2338  2.4359
16460TIP3   OH270794   1.361   1.001   5.370 -0.4469 -0.1809 -0.3795
16460TIP3    H170795   1.437   1.042   5.410 -0.6508 -1.5797  1.5983
16460TIP3    H270796   1.397   0.941   5.305  0.4034 -2.1710  1.7429
16461TIP3   OH270797   7.129   1.580   3.437  0.0498 -0.0223 -0.5271
16461TIP3    H170798   7.077   1.522   3.382  0.4604 -2.0726  1.1439
16461TIP3    H270799   7.137   1.661   3.385 -1.2267 -1.1292 -2.5864
16462TIP3   OH270800   7.006   2.139   3.403 -0.4586  0.0339 -0.3950
16462TIP3    H170801   6.993   2.205   3.470  0.0876  0.5699 -0.8077
16462TIP3    H270802   7.090   2.161   3.363  0.3478 -1.6388  0.2891
16463TIP3   OH270803   1.738   4.940   9.982 -0.2703 -0.3957  0.5086
16463TIP3    H170804   1.752   4.871   9.917 -3.8313 -0.4107 -0.4714
16463TIP3    H270805   1.781   5.017   9.944  1.7887 -1.4684  0.5292
16464TIP3   OH270806   0.013   0.704  14.917  0.3324 -0.1034  0.1784
16464TIP3    H170807   0.080   0.648  14.956  1.1731  0.3141 -0.6452
16464TIP3    H270808   0.037   0.792  14.945 -0.6468 -0.0616  0.9717
16465TIP3   OH270809   2.061   1.239   6.180 -0.3442 -0.2002  0.0919
16465TIP3    H170810   2.105   1.324   6.171  2.5090 -1.6229 -0.6652
16465TIP3    H270811   2.116   1.190   6.242 -0.7341 -2.1549 -1.0222
16466TIP3   OH270812   2.490   6.609   0.084  0.1724 -0.2741  0.0300
16466TIP3    H170813   2.563   6.552   0.109  0.9979  0.9946  0.5880
16466TIP3    H270814   2.526   6.667   0.018 -0.7392 -0.5642 -0.7382
16467TIP3   OH270815   6.439   2.172  14.049 -0.2754 -0.7415  0.3170
16467TIP3    H170816   6.347   2.146  14.045 -1.2199  2.4018 -0.6823
16467TIP3    H270817   6.480   2.127  13.975 -1.1205 -1.6733  0.3978
16468TIP3   OH270818   1.201   4.741  15.360  0.0782  0.0301 -0.3617
16468TIP3    H170819   1.174   4.783  15.442 -1.4600 -0.3551 -0.6326
16468TIP3    H270820   1.119   4.726  15.313  0.9668  0.7722 -2.2448
16469TIP3   OH270821   6.628   6.238   2.072  0.9211  0.3656 -0.0010
16469TIP3    H170822   6.557   6.283   2.119  2.5529  2.7341  0.3317
16469TIP3    H270823   6.674   6.189   2.140  0.2040 -0.4087 -0.0581
16470TIP3   OH270824   5.081   3.186   4.527  0.6912  0.0809 -0.0754
16470TIP3    H170825   5.148   3.140   4.478  0.8969 -0.0564  0.3340
16470TIP3    H270826   5.004   3.129   4.522  0.5803  0.2688 -0.5979
16471TIP3   OH270827   3.946   6.898   2.573  0.1041  0.2254 -0.1989
16471TIP3    H170828   3.960   6.964   2.504  1.7531 -0.6267 -0.7274
16471TIP3    H270829   3.903   6.946   2.644  2.0545  2.1018 -0.2030
16472TIP3   OH270830   3.163   0.900   5.301  0.6324  0.1316  0.4373
16472TIP3    H170831   3.190   0.934   5.216  0.3795 -0.7208  0.0117
16472TIP3    H270832   3.234   0.927   5.361  2.8496 -2.5587 -0.7491
16473TIP3   OH270833   0.374   6.300   5.854  0.0484  0.3401  0.2034
16473TIP3    H170834   0.387   6.393   5.837  0.6844  0.2582  0.1983
16473TIP3    H270835   0.386   6.258   5.769  0.2936  0.2052  0.3024
16474TIP3   OH270836   7.141   3.513   4.347 -0.1844 -0.4982  0.3704
16474TIP3    H170837   7.233   3.502   4.372  0.0683  1.1590  0.2340
16474TIP3    H270838   7.095   3.526   4.429 -0.2503 -0.9391  0.4070
16475TIP3   OH270839   5.586   3.710   4.699 -0.0220 -0.0275 -0.7426
16475TIP3    H170840   5.506   3.730   4.748 -1.8203 -1.5579 -2.8717
16475TIP3    H270841   5.591   3.614   4.699  3.0638 -0.0187  1.0896
16476TIP3   OH270842   6.865   6.358   4.425  0.3852 -0.5559 -0.0334
16476TIP3    H170843   6.909   6.305   4.359  0.2350  1.6216 -2.0244
16476TIP3    H270844   6.772   6.335   4.417  0.2763  0.2243 -1.1313
16477TIP3   OH270845   6.648   2.224   1.804  0.5940 -0.3629 -0.1871
16477TIP3    H170846   6.564   2.238   1.759  1.1587  0.8988 -0.8884
16477TIP3    H270847   6.699   2.171   1.743  0.9541  0.3992 -0.5541
16478TIP3   OH270848   0.535   4.523   2.033 -0.5210 -0.1715  0.3507
16478TIP3    H170849   0.507   4.610   2.006 -0.6505  0.0052  1.0378
16478TIP3    H270850   0.563   4.534   2.124  2.9950 -0.0394 -0.5819
16479TIP3   OH270851   2.177   3.360   5.577 -0.1864 -0.1783 -0.0904
16479TIP3    H170852   2.210   3.292   5.518  1.0359 -0.2960  0.7119
16479TIP3    H270853   2.085   3.336   5.591 -0.1430 -0.8818 -0.8924
16480TIP3   OH270854   4.738   6.732   4.950 -0.2371  0.1989 -0.2631
16480TIP3    H170855   4.814   6.781   4.982 -0.4933  0.7901 -0.5447
16480TIP3    H270856   4.705   6.687   5.028  1.2717 -1.2686 -0.4153
16481TIP3   OH270857   4.010   3.174   5.328 -0.1098 -0.6595  0.4037
16481TIP3    H170858   3.993   3.250   5.384  1.6266 -0.5195  0.7984
16481TIP3    H270859   4.072   3.121   5.378  0.0995 -1.4294 -0.6386
16482TIP3   OH270860   1.478   6.344   1.361  0.3314 -0.0446 -0.2928
16482TIP3    H170861   1.574   6.347   1.364  0.3494 -0.3829 -0.4460
16482TIP3    H270862   1.452   6.318   1.449  0.3305  0.9895  0.0297
16483TIP3   OH270863   5.825   5.369   4.595 -0.2775 -0.5476 -0.5045
16483TIP3    H170864   5.878   5.299   4.559  0.2919  0.1019 -0.9523
16483TIP3    H270865   5.824   5.436   4.527 -1.2246 -0.3169 -0.2867
16484TIP3   OH270866   6.376   0.302   3.868  1.1007 -0.3043 -0.1413
16484TIP3    H170867   6.328   0.221   3.886  0.6606 -0.1027 -0.3980
16484TIP3    H270868   6.338   0.335   3.787  1.8500 -0.2772 -0.4914
16485TIP3   OH270869   1.239   7.035   1.174  0.4461 -0.4017  0.1408
16485TIP3    H170870   1.306   7.101   1.156  0.2565 -0.3697 -0.4613
16485TIP3    H270871   1.171   7.052   1.109  0.3766 -1.1702  0.0099
16486TIP3   OH270872   7.148   5.084   1.719  0.0108  0.4550 -0.0901
16486TIP3    H170873   7.081   5.150   1.734 -0.4945 -0.0128 -0.2656
16486TIP3    H270874   7.149   5.032   1.800 -1.9805 -1.4156 -1.1769
16487TIP3   OH270875   2.506   6.677   1.026 -0.3425  0.2652 -0.0424
16487TIP3    H170876   2.412   6.666   1.039 -0.2036 -1.3398 -0.1761
16487TIP3    H270877   2.540   6.695   1.114 -0.6690  0.0094  0.1392
16488TIP3   OH270878   6.193   4.771   4.003 -0.1370  0.3475 -0.5459
16488TIP3    H170879   6.157   4.856   4.028  2.1871  1.3438 -0.3361
16488TIP3    H270880   6.118   4.712   4.004 -1.8148  2.3630 -0.6224
16489TIP3   OH270881   4.047   1.766   4.277 -0.6685 -0.6816  0.1297
16489TIP3    H170882   4.120   1.705   4.270 -0.6264 -0.4394 -4.2639
16489TIP3    H270883   4.085   1.852   4.263 -1.4313 -0.1697  1.0351
16490TIP3   OH270884   2.973   0.842   5.533 -0.2045 -0.4157  0.0746
16490TIP3    H170885   2.962   0.811   5.623  0.4636  1.6075  0.9079
16490TIP3    H270886   2.903   0.906   5.521 -0.3001 -0.6809 -0.8694
16491TIP3   OH270887   2.927   2.871   4.441  0.0675  0.1911  0.5645
16491TIP3    H170888   2.952   2.788   4.399  0.9440  0.9351 -0.4222
16491TIP3    H270889   2.875   2.916   4.375  3.3588  2.3945 -0.7873
16492TIP3   OH270890   0.641   4.627   5.306 -0.1844 -0.0753  0.5217
16492TIP3    H170891   0.627   4.617   5.400 -1.5566 -0.3917  0.2944
16492TIP3    H270892   0.589   4.704   5.282 -1.0209 -0.8615 -0.2307
16493TIP3   OH270893   2.924   6.996   5.315 -0.0285 -0.6218 -0.0364
16493TIP3    H170894   2.871   7.061   5.360  2.7214 -0.3454  3.2692
16493TIP3    H270895   2.988   7.047   5.265  1.5374 -0.6438  1.8113
16494TIP3   OH270896   0.364   6.078   2.667  0.1513  0.6524 -0.3014
16494TIP3    H170897   0.448   6.032   2.665  0.5029  1.2220  0.6664
16494TIP3    H270898   0.305   6.018   2.714  0.0955  0.3865 -0.7058
16495TIP3   OH270899   0.556   5.261   2.723  0.2386 -0.1050  0.6720
16495TIP3    H170900   0.609   5.305   2.656 -1.2209  0.9897  0.1668
16495TIP3    H270901   0.533   5.177   2.683 -0.2257  0.3432 -0.0388
16496TIP3   OH270902   3.068   6.056   4.024 -0.1016  0.2802 -0.1160
16496TIP3    H170903   3.116   6.012   3.953 -0.3647 -0.6268  0.2497
16496TIP3    H270904   3.021   5.985   4.068 -0.1212  0.8687  0.8280
16497TIP3   OH270905   1.818   5.639  12.673 -0.0567 -0.4725 -0.0733
16497TIP3    H170906   1.815   5.548  12.703 -0.6835 -0.7568 -0.9480
16497TIP3    H270907   1.813   5.691  12.753 -0.4097 -1.2124  0.3980
16498TIP3   OH270908   7.108   4.951   4.120 -0.6405  0.8675  0.0684
16498TIP3    H170909   7.183   4.890   4.121 -1.0466  0.3622  0.6761
16498TIP3    H270910   7.082   4.956   4.028 -0.8874 -0.2458  0.0614
16499TIP3   OH270911   0.046   5.284   3.237 -0.2733  0.5017  0.1010
16499TIP3    H170912   0.072   5.361   3.187  0.6242 -2.1123 -3.9216
16499TIP3    H270913  -0.045   5.268   3.212 -0.4445  0.2034  0.8702
16500TIP3   OH270914   4.109   1.042   1.756 -0.3427  0.0100  0.4062
16500TIP3    H170915   4.185   1.049   1.698 -0.2140 -0.5439  0.5002
16500TIP3    H270916   4.086   1.133   1.777  1.2233  0.1816  1.5723
16501TIP3   OH270917   0.310   4.387   2.836  0.0610 -0.0040 -0.0840
16501TIP3    H170918   0.249   4.393   2.909  1.0855  0.6765  0.7365
16501TIP3    H270919   0.278   4.451   2.772 -0.1690  0.2394  0.2735
16502TIP3   OH270920   5.528   1.627   0.585  0.4459  0.2009 -0.3918
16502TIP3    H170921   5.455   1.564   0.582  1.1404 -0.7131  1.0105
16502TIP3    H270922   5.489   1.709   0.557 -0.9112 -0.4780 -0.5951
16503TIP3   OH270923   1.804   2.351  12.854 -0.1227  0.2623 -0.0231
16503TIP3    H170924   1.778   2.319  12.941 -2.6715  2.1645  0.0229
16503TIP3    H270925   1.758   2.293  12.793 -0.1990  0.3502 -0.0492
16504TIP3   OH270926   1.897   5.301   2.351 -0.5505 -0.1565 -0.0894
16504TIP3    H170927   1.935   5.331   2.433 -2.4234  1.2802  0.3359
16504TIP3    H270928   1.815   5.258   2.377 -0.7927 -0.3652 -1.1417
16505TIP3   OH270929   0.447   2.683  13.325 -0.1100 -0.4388 -0.0279
16505TIP3    H170930   0.371   2.725  13.285 -0.3035 -0.5184  0.2585
16505TIP3    H270931   0.475   2.743  13.394  0.2319 -0.2971 -0.2840
16506TIP3   OH270932   2.627   6.719  13.111 -0.4971 -0.5422  0.5578
16506TIP3    H170933   2.708   6.700  13.063  0.4451  1.1697  1.3847
16506TIP3    H270934   2.616   6.813  13.102 -2.5834 -0.7887  0.2380
16507TIP3   OH270935   0.873   5.092   3.841 -0.2158  0.2091  0.1288
16507TIP3    H170936   0.849   5.058   3.927 -1.1646  0.4857 -0.0092
16507TIP3    H270937   0.858   5.019   3.781 -0.1484  0.2028  0.1200
16508TIP3   OH270938   5.858   5.161   5.222  0.2647  0.4373  0.6598
16508TIP3    H170939   5.904   5.121   5.296  1.2560  0.7331  0.2176
16508TIP3    H270940   5.770   5.124   5.226  0.6890 -0.5707  1.2070
16509TIP3   OH270941   6.788   2.179   1.138 -0.2078  0.2948  0.1324
16509TIP3    H170942   6.872   2.136   1.152 -0.5274 -0.4159 -0.0822
16509TIP3    H270943   6.802   2.237   1.063  0.1755  0.4337  0.3088
16510TIP3   OH270944   3.804   2.896   4.846 -0.1476  0.0690  0.2021
16510TIP3    H170945   3.772   2.907   4.935 -0.5502  0.7007 -0.0148
16510TIP3    H270946   3.797   2.802   4.829  0.6002 -0.1600  1.0762
16511TIP3   OH270947   4.484   4.528   4.365 -0.2257  0.4814 -0.2783
16511TIP3    H170948   4.563   4.549   4.315  0.6540  0.5045  1.0485
16511TIP3    H270949   4.507   4.550   4.456 -1.5673 -0.0526  0.2206
16512TIP3   OH270950   2.439   2.661   3.856  0.1589 -0.0373  0.2702
16512TIP3    H170951   2.389   2.626   3.929 -0.9076  0.4322 -0.2027
16512TIP3    H270952   2.488   2.586   3.822 -0.6178 -0.6447  0.4461
16513TIP3   OH270953   5.218   2.652  11.895 -0.1361  0.1768  0.3544
16513TIP3    H170954   5.252   2.581  11.840  0.2234  0.5557  0.0885
16513TIP3    H270955   5.247   2.629  11.983 -1.0460 -0.6385  0.4637
16514TIP3   OH270956   3.940   3.102  13.240 -0.1195 -0.0469 -0.7269
16514TIP3    H170957   3.940   3.079  13.147  1.4623 -1.0089 -0.5251
16514TIP3    H270958   3.884   3.037  13.281  0.9610 -1.0038 -0.7306
16515TIP3   OH270959   4.909   2.268   2.163 -0.4609 -0.2104 -0.1074
16515TIP3    H170960   4.852   2.320   2.106 -1.7719 -1.6542 -0.1657
16515TIP3    H270961   4.986   2.250   2.110 -0.8216  0.1048 -0.7480
16516TIP3   OH270962   3.326   1.060   4.225 -0.4744  0.2999 -0.4114
16516TIP3    H170963   3.364   0.973   4.225  0.0906  0.5159  1.3060
16516TIP3    H270964   3.371   1.107   4.155  1.3908  0.0906  0.5915
16517TIP3   OH270965   1.854   5.136   0.951 -0.4727 -0.5338  0.3625
16517TIP3    H170966   1.807   5.070   0.901 -2.6518  1.5687 -0.5473
16517TIP3    H270967   1.866   5.209   0.890  0.2731  0.6197  1.8041
16518TIP3   OH270968   0.118   1.991   4.176 -0.8656 -0.4261 -0.3587
16518TIP3    H170969   0.138   2.060   4.239  0.6613 -1.2922  0.1509
16518TIP3    H270970   0.025   1.971   4.190 -0.8560  0.2482  0.7429
16519TIP3   OH270971   3.259   1.155  11.559 -0.0015 -0.0232  0.7862
16519TIP3    H170972   3.176   1.181  11.599 -0.3045 -0.3610  0.3888
16519TIP3    H270973   3.279   1.070  11.599  0.4006  0.2837  1.2391
16520TIP3   OH270974   4.604   0.748   1.482  0.2263  0.0158 -0.2124
16520TIP3    H170975   4.698   0.747   1.464 -0.0071  1.1151 -1.6631
16520TIP3    H270976   4.598   0.726   1.575  1.9385  0.2919  0.0057
16521TIP3   OH270977   4.553   1.511   5.003 -0.3188 -0.2985  0.9358
16521TIP3    H170978   4.549   1.475   4.915  1.3473  0.0394  0.6978
16521TIP3    H270979   4.616   1.454   5.049 -0.5253  0.0436  1.6536
16522TIP3   OH270980   3.756   5.431   3.695 -0.6809 -0.1647 -0.1280
16522TIP3    H170981   3.713   5.489   3.758  1.0309  0.1285  0.8130
16522TIP3    H270982   3.817   5.488   3.648 -1.4478 -0.5170 -1.6258
16523TIP3   OH270983   1.659   4.959   2.076  0.1144  0.6952  0.0291
16523TIP3    H170984   1.644   4.897   2.004  2.2423  1.9975 -1.6857
16523TIP3    H270985   1.656   4.906   2.155  2.3820 -1.7717 -1.3702
16524TIP3   OH270986   3.181   3.647   1.355  0.5341  0.7500  0.2038
16524TIP3    H170987   3.104   3.657   1.298  0.6353  1.3244  0.1554
16524TIP3    H270988   3.148   3.666   1.443  0.6013  0.9297  0.1916
16525TIP3   OH270989   2.476   1.041   5.301  0.1553 -0.1185  0.2293
16525TIP3    H170990   2.479   1.021   5.395  1.2538  0.5623  0.3584
16525TIP3    H270991   2.555   0.999   5.265  0.6363  1.0063 -0.0814
16526TIP3   OH270992   4.155   4.595   1.140  0.0574 -0.4374  0.1081
16526TIP3    H170993   4.060   4.600   1.126  0.1302 -0.6626 -0.4887
16526TIP3    H270994   4.192   4.647   1.068  0.4468 -1.7823 -0.6971
16527TIP3   OH270995   3.900   5.281  12.663 -0.4614  0.2572  0.0133
16527TIP3    H170996   3.963   5.280  12.590 -1.4086 -0.7138 -0.8273
16527TIP3    H270997   3.856   5.197  12.657 -1.5748  0.7624  0.8384
16528TIP3   OH270998   1.066   3.381   3.838  0.6841 -0.2189 -0.4266
16528TIP3    H170999   1.048   3.433   3.917 -0.3164 -1.7815  0.4335
16528TIP3    H271000   1.006   3.416   3.772 -0.4725 -0.6856  0.3381
16529TIP3   OH271001   6.042   5.742   1.328  0.3680  0.2116 -0.2780
16529TIP3    H171002   6.013   5.779   1.411 -0.8903  0.3095 -0.7388
16529TIP3    H271003   6.081   5.816   1.281  0.7427  0.2368  0.0706
16530TIP3   OH271004   6.450   1.154   2.006 -0.1034 -0.2223  0.1724
16530TIP3    H171005   6.398   1.136   1.928 -1.3633 -0.8917  1.1208
16530TIP3    H271006   6.478   1.245   1.996  1.0234 -0.7338 -1.7310
16531TIP3   OH271007   5.740   1.221  10.672 -0.8885  0.8300 -0.2229
16531TIP3    H171008   5.668   1.176  10.628 -0.9210 -0.8542  1.4460
16531TIP3    H271009   5.697   1.293  10.720 -0.9726  2.0193 -1.9822
16532TIP3   OH271010   4.980   0.579  10.473  0.3694  0.5248 -0.0021
16532TIP3    H171011   5.036   0.521  10.525  1.7477 -0.4724 -2.4160
16532TIP3    H271012   4.906   0.598  10.530 -0.7601 -4.4511  0.6446
16533TIP3   OH271013   5.936   2.504   4.570  0.3598 -0.5661  0.0639
16533TIP3    H171014   5.971   2.590   4.593 -0.0637 -0.6707  1.1282
16533TIP3    H271015   5.844   2.521   4.549  0.5882 -0.5688 -1.0079
16534TIP3   OH271016   5.997   4.447   2.450  0.1955  0.2867 -0.6172
16534TIP3    H171017   6.023   4.450   2.358  0.5306  0.8556 -0.5066
16534TIP3    H271018   5.945   4.367   2.457  0.2357  0.1939 -1.2817
16535TIP3   OH271019   0.720   0.869  13.192  0.4901  0.4576 -0.3060
16535TIP3    H171020   0.680   0.872  13.105 -0.1065 -0.0779 -0.0643
16535TIP3    H271021   0.653   0.827  13.247  2.3207 -2.8873 -0.4035
16536TIP3   OH271022   4.151   1.137   6.017 -0.1783 -0.2071  0.2404
16536TIP3    H171023   4.217   1.194   5.978 -0.9198 -0.4070 -1.3635
16536TIP3    H271024   4.192   1.050   6.019  0.8257  0.2443  2.3795
16537TIP3   OH271025   2.686   3.039  14.846 -0.2330 -0.1981 -0.3134
16537TIP3    H171026   2.691   3.133  14.862  1.0043 -0.1719 -0.7932
16537TIP3    H271027   2.753   3.000  14.902  0.1906 -0.6542 -1.1144
16538TIP3   OH271028   4.383   3.882   0.199 -0.4835 -0.2278 -0.1449
16538TIP3    H171029   4.324   3.859   0.127 -1.3926  0.8065  0.2501
16538TIP3    H271030   4.407   3.973   0.182  0.7353 -0.5214 -0.0974
16539TIP3   OH271031   0.384   3.175   3.672 -0.1363 -0.7128  0.3838
16539TIP3    H171032   0.333   3.255   3.664  0.1373 -0.5075  0.6793
16539TIP3    H271033   0.319   3.105   3.668 -0.2610 -0.5325 -1.0438
16540TIP3   OH271034   5.761   2.630   2.235  0.1415  0.5389  0.8569
16540TIP3    H171035   5.812   2.570   2.180 -0.8219 -0.0446  0.5687
16540TIP3    H271036   5.680   2.644   2.185 -0.7855 -0.0531  2.1400
16541TIP3   OH271037   4.049   2.978  15.107 -0.4247  0.3680 -0.4716
16541TIP3    H171038   4.061   2.896  15.058  2.6909  0.1958  0.3593
16541TIP3    H271039   4.137   3.016  15.110 -0.7953  1.2563  3.4184
16542TIP3   OH271040   0.369   5.881   1.294  0.3270 -0.3020 -0.5212
16542TIP3    H171041   0.395   5.862   1.203  1.4321 -1.5738  0.0344
16542TIP3    H271042   0.451   5.897   1.340 -0.2729  1.0507  0.1277
16543TIP3   OH271043   3.126   0.023   2.041  0.2452  0.1852 -0.0642
16543TIP3    H171044   3.108  -0.039   1.971 -1.9737 -0.2148  0.7838
16543TIP3    H271045   3.087   0.105   2.011 -0.3101  0.1290  0.4852
16544TIP3   OH271046   7.090   0.495   1.818 -0.2036  0.7078 -0.6183
16544TIP3    H171047   7.018   0.558   1.827 -2.4030 -1.5064 -1.6873
16544TIP3    H271048   7.101   0.458   1.906  1.2845  2.6276  0.0812
16545TIP3   OH271049   0.451   5.492   0.043 -0.0431  0.2305 -1.3974
16545TIP3    H171050   0.523   5.432   0.026 -0.2116 -1.2258  2.1822
16545TIP3    H271051   0.492   5.579   0.038  1.3528 -0.4120 -1.8399
16546TIP3   OH271052   6.660   4.131  12.179 -0.5488 -0.1006 -0.4238
16546TIP3    H171053   6.666   4.175  12.264 -1.7523 -0.8742  0.0972
16546TIP3    H271054   6.737   4.074  12.176 -0.0302  0.5887 -0.2397
16547TIP3   OH271055   1.775   5.651   4.719  0.0489  0.1788  0.0427
16547TIP3    H171056   1.828   5.578   4.752 -1.0121 -0.2957  0.7624
16547TIP3    H271057   1.726   5.613   4.645 -1.8331 -0.4010  1.4961
16548TIP3   OH271058   5.593   1.795  12.332  0.5681  0.7830 -0.2421
16548TIP3    H171059   5.572   1.859  12.399 -2.0659 -0.8887  0.6763
16548TIP3    H271060   5.586   1.710  12.377 -3.0880 -0.5541 -2.8228
16549TIP3   OH271061   3.292   6.829   0.154  0.2270  0.3012  0.1339
16549TIP3    H171062   3.378   6.844   0.194  0.2138 -0.6385  0.5369
16549TIP3    H271063   3.296   6.876   0.070  0.3464  2.1007  1.0905
16550TIP3   OH271064   6.917   6.181  14.171 -0.2379  0.0148 -0.2575
16550TIP3    H171065   6.850   6.244  14.142 -1.4759 -1.1230  0.0153
16550TIP3    H271066   6.942   6.135  14.091  0.4805  0.6549 -0.4138
16551TIP3   OH271067   6.506   6.671  13.447  0.2029  0.4726 -0.3750
16551TIP3    H171068   6.577   6.638  13.391 -0.5600 -0.2964 -0.9116
16551TIP3    H271069   6.433   6.612  13.431 -0.6639  1.4239 -0.0432
16552TIP3   OH271070   5.184   3.215  14.988  0.1747 -0.1392 -0.2509
16552TIP3    H171071   5.136   3.137  15.016  1.3978 -0.8096  0.0656
16552TIP3    H271072   5.120   3.286  14.992 -1.6028 -1.4609 -2.6880
16553TIP3   OH271073   5.566   6.556   2.533  0.5823  0.2614 -0.3689
16553TIP3    H171074   5.640   6.597   2.488  0.1306  0.1911 -1.2117
16553TIP3    H271075   5.500   6.546   2.464  0.9353 -2.5774 -0.4401
16554TIP3   OH271076   0.261   0.859   3.242 -0.0532 -0.3202 -0.2018
16554TIP3    H171077   0.333   0.797   3.253  0.1051  0.2188  2.6255
16554TIP3    H271078   0.297   0.943   3.272 -0.2539  1.3108 -3.9222
16555TIP3   OH271079   6.588   5.848   4.876 -0.2917 -0.1472 -0.0142
16555TIP3    H171080   6.568   5.883   4.789  0.5300  0.9036  0.1936
16555TIP3    H271081   6.522   5.887   4.933 -2.2984 -2.6446 -0.4671
16556TIP3   OH271082   7.042   6.171   1.604  0.2233  0.4997  0.6911
16556TIP3    H171083   6.961   6.220   1.620  0.7999  1.1396  1.7266
16556TIP3    H271084   7.111   6.228   1.636  0.8670 -1.4701  3.0731
16557TIP3   OH271085   0.705   1.911   5.651 -0.2702  0.1028  0.4693
16557TIP3    H171086   0.725   1.947   5.737  0.1544  0.8206  0.0863
16557TIP3    H271087   0.610   1.920   5.642 -0.4145 -0.6597  1.1502
16558TIP3   OH271088   4.366   2.495   0.201 -0.1386 -0.0956  0.1980
16558TIP3    H171089   4.367   2.543   0.284  0.2652 -1.0329  0.7456
16558TIP3    H271090   4.341   2.406   0.225 -1.2728 -0.0870 -0.8578
16559TIP3   OH271091   5.232   6.555   3.279  0.4793 -0.4593 -0.2121
16559TIP3    H171092   5.316   6.544   3.324  1.0193 -1.5520 -1.4346
16559TIP3    H271093   5.237   6.643   3.241  1.4371 -0.8055 -0.9397
16560TIP3   OH271094   4.448   5.194   4.790  0.1531  0.5626 -0.0877
16560TIP3    H171095   4.509   5.170   4.860 -0.6142  2.9708  1.5520
16560TIP3    H271096   4.455   5.123   4.726  0.9018 -1.7984  2.4061
16561TIP3   OH271097   5.810   3.533   5.295 -0.0080 -0.1438  0.4486
16561TIP3    H171098   5.768   3.520   5.380  0.5691 -0.6681  0.6651
16561TIP3    H271099   5.903   3.545   5.316 -0.1178  1.6558  0.0285
16562TIP3   OH271100   1.001   4.275  11.909  0.0276  0.0202 -0.2975
16562TIP3    H171101   0.958   4.228  11.980 -1.6483  1.0461 -0.5943
16562TIP3    H271102   0.931   4.301  11.850  0.9636  2.1649 -0.5700
16563TIP3   OH271103   0.511   0.234  13.957 -0.7020  0.2031  0.0758
16563TIP3    H171104   0.474   0.158  14.001 -1.1782 -0.5438 -1.5409
16563TIP3    H271105   0.436   0.278  13.918 -0.3602  1.1826  0.5035
16564TIP3   OH271106   6.378   4.813   2.527 -0.1590  0.5070  0.0806
16564TIP3    H171107   6.289   4.780   2.519 -0.6498  1.4100  1.4475
16564TIP3    H271108   6.372   4.881   2.594  1.6613  0.1841  0.6247
16565TIP3   OH271109   2.310   7.048  12.564 -0.4467 -0.8076  0.2547
16565TIP3    H171110   2.292   7.015  12.476  1.3819  0.3863 -0.6143
16565TIP3    H271111   2.291   7.142  12.558  0.4876 -0.5714  0.8843
16566TIP3   OH271112   4.029   1.835   5.576 -0.0471 -0.1062  0.4131
16566TIP3    H171113   4.072   1.906   5.529  0.8881 -1.4279 -0.8221
16566TIP3    H271114   3.986   1.877   5.650  0.8206  1.6705 -0.0527
16567TIP3   OH271115   0.243   5.573   5.866 -0.6169  0.3586  0.3967
16567TIP3    H171116   0.159   5.558   5.909 -0.5392  0.0372  0.4446
16567TIP3    H271117   0.299   5.611   5.933 -0.3696 -0.5231  0.7116
16568TIP3   OH271118   1.151   5.662   3.681  0.1619  0.2350 -0.1783
16568TIP3    H171119   1.153   5.567   3.668  0.3874  0.3745 -1.2548
16568TIP3    H271120   1.177   5.674   3.773 -0.0537 -0.7456  0.0239
16569TIP3   OH271121   6.683   7.128   1.215  0.4433  0.1181 -0.4176
16569TIP3    H171122   6.587   7.124   1.215  0.4821 -1.8804 -1.4483
16569TIP3    H271123   6.708   7.109   1.305 -0.1154  0.7241 -0.1267
16570TIP3   OH271124   5.088   5.184  13.188 -0.7458 -0.4555  0.1731
16570TIP3    H171125   5.179   5.157  13.200 -1.0673 -0.9612  1.6332
16570TIP3    H271126   5.084   5.216  13.097  1.5429  2.0958  0.8336
16571TIP3   OH271127   6.839   2.545   2.829 -0.3940  0.6202  0.3394
16571TIP3    H171128   6.896   2.567   2.755 -1.3268 -0.2556 -0.6679
16571TIP3    H271129   6.891   2.567   2.906  1.2146  0.0698 -0.5400
16572TIP3   OH271130   3.494   0.797   4.189 -0.1173  0.1553 -0.1731
16572TIP3    H171131   3.553   0.770   4.258 -0.2620  4.0302  1.7542
16572TIP3    H271132   3.544   0.787   4.108  1.3859 -1.0715  0.8638
16573TIP3   OH271133   0.999   0.791   1.753  0.3221  0.1556 -0.7123
16573TIP3    H171134   0.984   0.875   1.796  1.4493 -0.8834  1.9140
16573TIP3    H271135   0.912   0.766   1.720 -0.2956  1.7129 -0.3594
16574TIP3   OH271136   4.638   0.965   4.674  0.3362  0.3942  0.4625
16574TIP3    H171137   4.565   1.003   4.625  1.8797  2.9330 -0.0769
16574TIP3    H271138   4.614   0.979   4.766 -0.5064 -0.1499  0.3297
16575TIP3   OH271139   4.881   5.574   0.367  0.0150  0.2227 -0.3355
16575TIP3    H171140   4.849   5.488   0.340 -0.5834  0.3731 -0.1293
16575TIP3    H271141   4.970   5.578   0.333 -0.2575 -0.1199 -1.1218
16576TIP3   OH271142   4.372   2.761  15.072  0.1610 -0.2094 -0.2656
16576TIP3    H171143   4.278   2.747  15.059  0.2478 -1.4757  0.3008
16576TIP3    H271144   4.377   2.823  15.145 -0.2612 -1.3139  0.7456
16577TIP3   OH271145   1.012   0.046  13.626 -0.8158  0.6674  0.6691
16577TIP3    H171146   0.940   0.077  13.571  0.3321  0.0930 -1.2447
16577TIP3    H271147   1.072   0.004  13.565  2.1272  2.7932  1.8861
16578TIP3   OH271148   5.788   1.785  11.685  0.4248  0.0832  0.1859
16578TIP3    H171149   5.768   1.727  11.758 -0.3354 -0.4315 -0.4148
16578TIP3    H271150   5.791   1.728  11.609 -1.1185  0.9110 -0.5422
16579TIP3   OH271151   1.871   0.250   3.030  0.5716  0.0962  0.4291
16579TIP3    H171152   1.937   0.317   3.014  0.7506 -0.0427  0.5897
16579TIP3    H271153   1.794   0.299   3.060  0.4514  0.3003 -0.1875
16580TIP3   OH271154   2.104   2.617   0.528  0.4962 -0.3683  0.1565
16580TIP3    H171155   2.190   2.584   0.501  0.9758 -0.9171  2.1819
16580TIP3    H271156   2.118   2.710   0.543  0.9419 -0.5766  1.1249
16581TIP3   OH271157   1.779   4.228   1.554  0.4249  0.2582 -0.0940
16581TIP3    H171158   1.764   4.218   1.648 -1.3868 -2.9325 -0.5986
16581TIP3    H271159   1.854   4.172   1.536  0.2641  0.2325 -0.6873
16582TIP3   OH271160   4.826   3.322   5.153  0.3477 -0.6635 -0.6357
16582TIP3    H171161   4.776   3.359   5.226  0.0450 -1.2293 -0.5533
16582TIP3    H271162   4.916   3.352   5.168  0.1246 -0.0207 -0.5352
16583TIP3   OH271163   6.382   3.696   3.636 -0.2275  0.3285 -0.0257
16583TIP3    H171164   6.404   3.603   3.637 -1.2452  0.0774  0.2712
16583TIP3    H271165   6.297   3.701   3.680 -0.0167  1.4456  0.2898
16584TIP3   OH271166   6.044   2.060   3.445  0.4933  0.6935 -0.5200
16584TIP3    H171167   6.104   1.986   3.447 -0.8547 -0.4282  0.6501
16584TIP3    H271168   6.098   2.134   3.417  2.1134 -0.5052 -0.7002
16585TIP3   OH271169   0.000   3.537   3.072 -0.3932  0.5341  0.4253
16585TIP3    H171170  -0.057   3.461   3.085 -0.0377  0.2938  0.5989
16585TIP3    H271171   0.005   3.578   3.159 -0.9620  1.0284  0.2306
16586TIP3   OH271172   2.061   1.229   3.925 -0.2862  0.6557 -0.3949
16586TIP3    H171173   2.015   1.211   3.843 -0.1457 -0.0172 -0.3360
16586TIP3    H271174   2.107   1.311   3.909 -0.8153  0.8934 -0.7476
16587TIP3   OH271175   5.537   2.999   2.938  0.2190 -0.3873 -0.0261
16587TIP3    H171176   5.592   2.921   2.927 -0.8447 -1.1244 -0.3553
16587TIP3    H271177   5.525   3.032   2.849  0.2902 -0.1237  0.0630
16588TIP3   OH271178   2.219   2.132   5.743 -0.5318 -0.9502 -0.5563
16588TIP3    H171179   2.215   2.097   5.654 -2.1818  0.0679 -0.9211
16588TIP3    H271180   2.172   2.068   5.796  0.7079 -1.7070 -0.3389
16589TIP3   OH271181   1.892   2.813   1.091  0.2918 -0.3188  0.3049
16589TIP3    H171182   1.880   2.751   1.019 -0.4430 -0.3792  0.4726
16589TIP3    H271183   1.934   2.889   1.051  2.0336 -1.2691  0.2704
16590TIP3   OH271184   5.581   1.992  12.955 -0.0884 -0.2717 -0.6265
16590TIP3    H171185   5.536   1.936  12.892 -1.5002 -1.3556  1.2333
16590TIP3    H271186   5.518   2.004  13.026  0.1442  3.7314 -0.8627
16591TIP3   OH271187   1.203   3.051  13.490 -0.0342 -0.1669 -0.4739
16591TIP3    H171188   1.297   3.036  13.502 -0.2427 -1.6574 -0.5428
16591TIP3    H271189   1.165   2.963  13.487 -1.2319  0.3650 -2.0551
16592TIP3   OH271190   4.634   4.219   5.156  0.5553 -0.1770 -0.5909
16592TIP3    H171191   4.650   4.175   5.240 -0.1026  0.6995  0.0092
16592TIP3    H271192   4.547   4.189   5.130  0.3878  0.2420 -0.5181
16593TIP3   OH271193   2.713   4.393   5.863  0.3073 -0.1934 -0.0784
16593TIP3    H171194   2.626   4.420   5.837  0.0772 -1.3022 -0.5158
16593TIP3    H271195   2.772   4.456   5.822 -0.2135 -0.2715 -0.9670
16594TIP3   OH271196   1.667   4.074   4.913  0.0236 -0.0850  0.8002
16594TIP3    H171197   1.741   4.015   4.928  0.3799  0.7144  2.3824
16594TIP3    H271198   1.606   4.055   4.984  0.4250  1.8438  1.7329
16595TIP3   OH271199   0.491   5.722   3.523  0.1954  0.2675  0.5855
16595TIP3    H171200   0.511   5.681   3.607  0.3433  2.3532  1.6368
16595TIP3    H271201   0.406   5.685   3.498  0.8742 -1.5399  0.8446
16596TIP3   OH271202   6.019   0.065   2.556 -0.1151  1.1172  0.3215
16596TIP3    H171203   6.064  -0.019   2.558 -1.5243  0.3218 -0.1912
16596TIP3    H271204   5.932   0.045   2.522 -1.5107  2.3070  2.9594
16597TIP3   OH271205   5.055   3.444   4.369 -0.7474 -0.4730 -0.2507
16597TIP3    H171206   4.965   3.429   4.400 -0.3764  0.8094  1.5710
16597TIP3    H271207   5.102   3.365   4.396 -1.0141 -0.5245  0.0744
16598TIP3   OH271208   3.493   2.999   3.961 -0.2029  0.7138 -0.3041
16598TIP3    H171209   3.560   2.988   4.029 -1.5552 -0.6458  0.8976
16598TIP3    H271210   3.494   2.916   3.913  0.1727  1.3584 -1.4387
16599TIP3   OH271211   0.648   4.155   4.751 -0.0784  0.3689  0.3593
16599TIP3    H171212   0.617   4.101   4.679 -0.9318  0.5088  0.6143
16599TIP3    H271213   0.699   4.094   4.806 -0.1639  0.0625  0.1035
16600TIP3   OH271214   2.388   6.280  14.561  0.0666 -0.1010  0.2200
16600TIP3    H171215   2.421   6.257  14.474 -0.2693 -1.0486  0.3361
16600TIP3    H271216   2.459   6.330  14.600 -0.1186  1.1044 -0.9175
16601TIP3   OH271217   2.958   6.474   1.121 -0.0135  0.4014 -0.3545
16601TIP3    H171218   3.032   6.415   1.134 -0.1503  0.5285  1.1211
16601TIP3    H271219   2.992   6.542   1.063  0.4345 -0.5548 -1.2666
16602TIP3   OH271220   4.081   2.664   4.355 -0.5707  0.2771  0.0930
16602TIP3    H171221   4.043   2.707   4.431  0.0245 -0.5980  0.9084
16602TIP3    H271222   4.050   2.573   4.362  1.3927 -0.4022  0.6314
16603TIP3   OH271223   4.068   7.134  15.303  0.0063 -0.1946 -0.2988
16603TIP3    H171224   4.025   7.157  15.385  2.5959  2.5092  0.5021
16603TIP3    H271225   4.113   7.052  15.322 -0.3359 -0.1799  0.6328
16604TIP3   OH271226   7.025   1.930   4.224  0.1297  0.4113 -0.3409
16604TIP3    H171227   7.025   1.870   4.299 -0.3331  1.2912  0.3800
16604TIP3    H271228   7.015   1.873   4.148  2.8009 -0.7458  0.0346
16605TIP3   OH271229   1.844   5.390   1.180  0.3110 -0.3676 -0.3751
16605TIP3    H171230   1.906   5.324   1.148  0.3210 -0.8911  0.6456
16605TIP3    H271231   1.773   5.338   1.220  0.1543  0.2337  0.1468
16606TIP3   OH271232   6.307   0.906   0.368  0.2484  0.1928 -0.2850
16606TIP3    H171233   6.329   0.971   0.435  0.2989  2.0489 -1.9737
16606TIP3    H271234   6.320   0.953   0.285 -1.8030 -1.3236 -1.5528
16607TIP3   OH271235   0.405   2.341   2.319 -0.1978  0.3530  0.4234
16607TIP3    H171236   0.402   2.399   2.243  0.5838  0.1626  0.2424
16607TIP3    H271237   0.409   2.400   2.394  1.3784  0.5612  0.2091
16608TIP3   OH271238   1.035   6.337   4.167 -0.4332  0.1852 -0.4255
16608TIP3    H171239   0.945   6.356   4.140 -0.7000 -0.4508 -0.0270
16608TIP3    H271240   1.047   6.244   4.146 -0.2097  0.0113  0.4138
16609TIP3   OH271241   5.413   5.755  14.434  0.2612 -0.8498  0.0576
16609TIP3    H171242   5.469   5.829  14.457  0.8385 -1.2761  0.0481
16609TIP3    H271243   5.331   5.772  14.481  0.7003 -0.6527  0.7752
16610TIP3   OH271244   3.490   6.017   1.690  0.3064  0.0209  0.5669
16610TIP3    H171245   3.444   6.066   1.622 -0.2340  2.8817  2.7979
16610TIP3    H271246   3.576   5.996   1.651 -0.2376  0.8919 -1.2025
16611TIP3   OH271247   3.897   6.643   4.098 -0.2904 -1.1972  0.1386
16611TIP3    H171248   3.959   6.706   4.062 -0.6225 -0.9880 -0.0749
16611TIP3    H271249   3.905   6.654   4.193 -1.4890  0.3246  0.1007
16612TIP3   OH271250   2.328   1.102   1.358  0.1226  0.6076 -0.0890
16612TIP3    H171251   2.268   1.069   1.291 -0.2539  0.9080  0.0920
16612TIP3    H271252   2.309   1.196   1.362  0.4833  0.6716  0.0969
16613TIP3   OH271253   6.391   0.465  10.091 -0.5895  0.6523  0.1333
16613TIP3    H171254   6.469   0.419  10.059 -0.6952  0.4043  0.2287
16613TIP3    H271255   6.329   0.395  10.113 -0.2148  0.7619  1.6607
16614TIP3   OH271256   2.067   7.101   4.705 -0.5212  0.2255 -0.0961
16614TIP3    H171257   2.123   7.087   4.629 -0.2536 -0.4586  0.2156
16614TIP3    H271258   1.983   7.061   4.682 -0.1576 -0.7962  0.3035
16615TIP3   OH271259   2.064   2.729  13.111  0.8210  0.2944  0.5068
16615TIP3    H171260   2.125   2.670  13.156  1.2003  0.7879  0.6377
16615TIP3    H271261   2.103   2.743  13.025  0.4669 -0.0580  0.2851
16616TIP3   OH271262   3.326   0.484   2.515  0.5996  0.0359  0.0678
16616TIP3    H171263   3.241   0.519   2.543  0.2645 -1.6958  1.3984
16616TIP3    H271264   3.349   0.535   2.438 -1.0395  1.4096  0.4333
16617TIP3   OH271265   1.464   6.808   3.645 -0.1667  0.2884 -0.2542
16617TIP3    H171266   1.555   6.782   3.629  0.0280  0.4729  0.5434
16617TIP3    H271267   1.458   6.896   3.607 -0.6716 -0.6299 -2.4387
16618TIP3   OH271268   5.045   1.093  15.327  0.0139  0.1832  0.4490
16618TIP3    H171269   5.119   1.060  15.378  2.1019  2.5959 -0.8168
16618TIP3    H271270   5.083   1.117  15.243 -2.3320  1.0901 -0.4183
16619TIP3   OH271271   4.253   6.372   4.538 -0.0960 -0.2420  0.3200
16619TIP3    H171272   4.205   6.291   4.554 -0.3544  0.1500  1.6984
16619TIP3    H271273   4.332   6.364   4.592  0.5522 -0.1477 -0.5976
16620TIP3   OH271274   4.297   5.081   5.522 -0.2365 -0.3897  0.0802
16620TIP3    H171275   4.372   5.128   5.485  1.3617 -1.8624  1.2743
16620TIP3    H271276   4.256   5.039   5.446  0.9309 -0.6076 -0.4577
16621TIP3   OH271277   3.036   6.934  12.357 -0.0861  0.0626 -0.1967
16621TIP3    H171278   3.101   6.872  12.390  1.5910  1.9938  0.3325
16621TIP3    H271279   2.966   6.879  12.322  0.6869 -2.1048  1.4302
16622TIP3   OH271280   6.716   4.162   0.681  0.2093 -0.0560  0.4213
16622TIP3    H171281   6.786   4.220   0.651  1.4485  0.4268  3.8456
16622TIP3    H271282   6.711   4.094   0.614  2.7414  0.8358 -0.8056
16623TIP3   OH271283   1.945   2.357   3.880  0.0901  0.0021  0.6339
16623TIP3    H171284   1.934   2.394   3.793 -0.6860 -0.3143  0.5926
16623TIP3    H271285   1.952   2.434   3.938  2.4636  0.2550  0.1138
16624TIP3   OH271286   2.740   4.899  15.381  0.1300  0.0111 -0.6200
16624TIP3    H171287   2.767   4.831  15.442 -1.3447 -0.4729 -0.4760
16624TIP3    H271288   2.760   4.981  15.426  1.3674 -0.3109 -0.5543
16625TIP3   OH271289   2.923   1.090  14.405 -0.3662  0.3752 -0.2836
16625TIP3    H171290   3.012   1.090  14.370 -0.2233  0.9860  0.0668
16625TIP3    H271291   2.925   1.028  14.478  0.1457  1.4093  0.6182
16626TIP3   OH271292   0.066   2.670  10.777 -0.2079 -0.0626  0.2560
16626TIP3    H171293  -0.024   2.645  10.758 -0.2371  1.0998 -1.4401
16626TIP3    H271294   0.060   2.761  10.806  0.4620  0.4427 -1.0629
16627TIP3   OH271295   1.533   3.168   0.426  0.1982  0.4603 -0.5247
16627TIP3    H171296   1.510   3.191   0.516  3.1817  0.5999  0.3375
16627TIP3    H271297   1.533   3.072   0.425 -1.0917  0.4433 -0.7991
16628TIP3   OH271298   0.254   5.395   0.773 -0.2012  0.2122  0.2166
16628TIP3    H171299   0.311   5.390   0.696  1.6159  1.1787  1.4519
16628TIP3    H271300   0.196   5.469   0.754 -4.0664 -3.1275 -2.8702
16629TIP3   OH271301   2.063   4.250   3.789  0.0076  0.0675  0.1827
16629TIP3    H171302   1.969   4.233   3.800  0.4704 -1.5758  2.2012
16629TIP3    H271303   2.071   4.345   3.790 -1.6189  0.2318  0.0414
16630TIP3   OH271304   0.169   0.362   5.104 -0.1109 -0.1710 -0.2630
16630TIP3    H171305   0.129   0.326   5.183 -0.0555 -2.6875 -1.2721
16630TIP3    H271306   0.128   0.313   5.032 -0.0957  1.9563 -1.8264
16631TIP3   OH271307   5.444   2.707   1.223 -0.0692 -0.0217  0.2479
16631TIP3    H171308   5.353   2.704   1.196 -0.4931 -0.8339  1.6692
16631TIP3    H271309   5.490   2.648   1.162 -0.4031  0.6805 -0.7033
16632TIP3   OH271310   2.779   1.747   0.966 -0.0140 -0.3006 -0.2130
16632TIP3    H171311   2.714   1.813   0.991 -0.0611 -0.4060 -0.0523
16632TIP3    H271312   2.762   1.730   0.874  0.1734  0.1087 -0.3249
16633TIP3   OH271313   1.604   1.887   4.284 -0.0907  0.0413 -0.1083
16633TIP3    H171314   1.602   1.983   4.293  1.5935  0.0161  0.8913
16633TIP3    H271315   1.564   1.854   4.364 -1.2021 -0.1221 -0.7060
16634TIP3   OH271316   5.557   0.110   4.320 -0.1616 -0.4027 -0.2737
16634TIP3    H171317   5.535   0.200   4.296  0.7682 -0.3766 -1.0994
16634TIP3    H271318   5.483   0.080   4.372 -1.7065 -0.0443 -2.1689
16635TIP3   OH271319   0.895   5.496  13.658 -0.1523  0.4468 -0.3382
16635TIP3    H171320   0.812   5.509  13.702  0.1496 -0.2894  0.4890
16635TIP3    H271321   0.872   5.464  13.571 -0.7714 -2.6898  0.8534
16636TIP3   OH271322   0.944   1.967   0.641  0.1984 -0.0232 -0.3268
16636TIP3    H171323   1.036   1.985   0.663  0.1341 -0.9138  0.7990
16636TIP3    H271324   0.947   1.894   0.580  0.2189 -1.3503  1.1847
16637TIP3   OH271325   4.675   6.866   2.154  1.2947  0.2699 -0.1420
16637TIP3    H171326   4.600   6.819   2.117  1.1820  0.8054 -0.6088
16637TIP3    H271327   4.740   6.797   2.171  1.1406 -0.0626 -0.8394
16638TIP3   OH271328   0.676   5.222   2.027  0.1393 -0.0357  0.7246
16638TIP3    H171329   0.678   5.300   2.082  0.1165  0.3760  0.1574
16638TIP3    H271330   0.674   5.256   1.937 -3.7593 -0.5768  0.4574
16639TIP3   OH271331   6.231   4.221   5.813 -0.1336 -0.0728  0.6565
16639TIP3    H171332   6.315   4.256   5.841 -0.5875  1.0635  0.6558
16639TIP3    H271333   6.244   4.126   5.809  1.4839  0.1673 -0.5115
16640TIP3   OH271334   0.773   3.811   3.034  0.9124 -0.6665 -0.2548
16640TIP3    H171335   0.690   3.765   3.018  0.5402 -0.2477  0.4155
16640TIP3    H271336   0.793   3.853   2.951  0.1488 -0.2975 -0.2643
16641TIP3   OH271337   4.904   6.563  14.597 -0.0944  0.2693 -0.2037
16641TIP3    H171338   4.936   6.613  14.671  1.0466 -2.3394  1.2158
16641TIP3    H271339   4.982   6.519  14.562 -0.6954  0.9543 -2.6209
16642TIP3   OH271340   5.051   6.147   2.525 -0.7054 -0.2753 -0.9784
16642TIP3    H171341   4.993   6.139   2.450  0.9066  0.3423 -2.3379
16642TIP3    H271342   5.131   6.186   2.491  0.5212 -1.0307  0.8296
16643TIP3   OH271343   0.214   6.919   2.556  0.0288  0.4482 -0.3007
16643TIP3    H171344   0.151   6.872   2.611  1.0314 -1.0653 -0.3848
16643TIP3    H271345   0.165   6.942   2.477  0.2176 -3.5071 -1.8157
16644TIP3   OH271346   6.885   7.144  14.693  0.5550 -0.8136 -0.3281
16644TIP3    H171347   6.799   7.160  14.654  0.1002 -1.6415  0.3084
16644TIP3    H271348   6.871   7.155  14.787  0.9677 -1.6720 -0.1586
16645TIP3   OH271349   4.521   3.836  14.875  0.2270 -0.6779  0.6616
16645TIP3    H171350   4.566   3.911  14.914 -0.7475  1.8575 -2.6325
16645TIP3    H271351   4.589   3.770  14.864  1.2356 -0.1650  3.1884
16646TIP3   OH271352   4.553   5.829   0.179 -0.3874  0.0103  0.0422
16646TIP3    H171353   4.465   5.801   0.157 -0.0162 -1.2629  0.0890
16646TIP3    H271354   4.559   5.818   0.274 -0.5282  1.1850  0.2088
16647TIP3   OH271355   0.519   4.616  13.048  0.0626  0.1523  0.1925
16647TIP3    H171356   0.545   4.699  13.009 -0.6833 -0.4839 -1.7949
16647TIP3    H271357   0.431   4.600  13.014 -0.0264 -1.1896  0.9725
16648TIP3   OH271358   1.999   0.720   2.321  0.3247  0.2748 -0.4047
16648TIP3    H171359   1.962   0.635   2.298  0.4178 -0.0988  0.7515
16648TIP3    H271360   2.090   0.701   2.344  0.4204  0.7282 -0.4058
16649TIP3   OH271361   2.824   5.718   4.692  0.1723  0.2375  0.1469
16649TIP3    H171362   2.914   5.726   4.724 -0.2639  0.6993  1.3273
16649TIP3    H271363   2.795   5.809   4.679 -0.0880  0.0913 -0.3230
16650TIP3   OH271364   0.685   4.643  15.079 -0.6033 -0.2583  0.0069
16650TIP3    H171365   0.687   4.703  15.153  2.7636 -0.7709  0.4684
16650TIP3    H271366   0.678   4.556  15.118  2.0299 -0.5983 -0.0838
16651TIP3   OH271367   3.144   3.185   1.424 -0.6743 -0.1086  0.1753
16651TIP3    H171368   3.097   3.198   1.342 -2.0366  0.0122  0.9404
16651TIP3    H271369   3.116   3.098   1.454 -0.5787  0.0535  0.7529
16652TIP3   OH271370   5.052   4.474   1.142 -0.0511  0.0396  0.4239
16652TIP3    H171371   5.082   4.523   1.218 -1.6574  0.5204  0.7873
16652TIP3    H271372   5.132   4.441   1.102  0.9283  1.0927  1.4278
16653TIP3   OH271373   3.355   2.381   6.163 -0.6752 -0.7794  0.2059
16653TIP3    H171374   3.380   2.454   6.219  0.2517  0.1035 -1.2618
16653TIP3    H271375   3.282   2.415   6.111 -1.8784 -1.7647  1.2225
16654TIP3   OH271376   0.050   1.566   1.569  0.6246  0.0447  1.0100
16654TIP3    H171377   0.029   1.643   1.517  2.5283  0.1560  0.3427
16654TIP3    H271378  -0.033   1.543   1.612 -0.5649  1.0022 -0.6538
16655TIP3   OH271379   5.977   6.538   4.606 -0.0728  0.0523 -0.3498
16655TIP3    H171380   5.977   6.468   4.540  1.9345 -1.7594  1.4356
16655TIP3    H271381   5.976   6.618   4.555  2.6047 -1.2416 -2.6959
16656TIP3   OH271382   5.796   0.401   1.253  0.1575  0.1784  1.1354
16656TIP3    H171383   5.816   0.325   1.197  0.8257  0.1456  1.4125
16656TIP3    H271384   5.808   0.477   1.196 -1.8610  0.0365  0.4595
16657TIP3   OH271385   2.709   1.018   4.905  0.1050  0.4821  0.2080
16657TIP3    H171386   2.787   0.982   4.946  0.2797  0.7357  0.1058
16657TIP3    H271387   2.638   1.000   4.966  0.3247  0.6622  0.5150
16658TIP3   OH271388   4.002   0.511   2.709 -0.5034 -0.0078 -0.4578
16658TIP3    H171389   3.910   0.537   2.713 -0.8112 -0.6259 -2.5913
16658TIP3    H271390   4.050   0.593   2.724 -1.3882  0.4454 -0.0246
16659TIP3   OH271391   0.786   0.402  13.362  0.2562 -0.2639  0.7125
16659TIP3    H171392   0.705   0.419  13.409 -0.2498 -0.9811  0.1090
16659TIP3    H271393   0.798   0.478  13.305  0.7460  0.4952  1.8079
16660TIP3   OH271394   6.725   2.944   4.936 -0.2177  0.2893 -0.7948
16660TIP3    H171395   6.820   2.930   4.934 -0.3981 -1.1286 -0.6454
16660TIP3    H271396   6.709   2.993   5.016  0.0386 -3.0605  1.5318
16661TIP3   OH271397   3.344   5.613   4.595 -0.5372  0.0140 -0.5131
16661TIP3    H171398   3.293   5.606   4.676 -0.7877 -2.1469 -0.8248
16661TIP3    H271399   3.281   5.597   4.525 -0.0559  0.6037 -1.0997
16662TIP3   OH271400   2.219   6.357   5.350  0.0083 -0.2188 -0.8838
16662TIP3    H171401   2.306   6.318   5.337 -0.4781 -1.0303 -1.9877
16662TIP3    H271402   2.171   6.292   5.402 -0.3067 -0.3643 -1.3427
16663TIP3   OH271403   6.166   5.692  13.047 -0.2814  0.2412  0.1469
16663TIP3    H171404   6.085   5.653  13.081 -0.0996  0.1729  0.5147
16663TIP3    H271405   6.177   5.653  12.961  0.2216 -1.0153  0.7496
16664TIP3   OH271406   4.400   2.251   1.343  0.4788  0.8457 -0.3710
16664TIP3    H171407   4.495   2.253   1.348  0.4834 -0.1346  3.2662
16664TIP3    H271408   4.374   2.342   1.332  1.8959  1.7687  2.8594
16665TIP3   OH271409   0.718   5.271   2.942  0.3378 -0.8794  0.0449
16665TIP3    H171410   0.639   5.289   2.890  0.0319 -0.9026  0.4929
16665TIP3    H271411   0.685   5.251   3.029  0.8924  0.0042  0.4740
16666TIP3   OH271412   4.509   0.146   2.809  0.8138 -0.3196  0.1500
16666TIP3    H171413   4.512   0.158   2.714  3.6616 -2.2062 -0.0938
16666TIP3    H271414   4.427   0.099   2.824 -0.0074  0.5718 -1.2428
16667TIP3   OH271415   1.955   6.381   5.551  0.4091 -0.4569  0.1253
16667TIP3    H171416   1.967   6.329   5.630  0.5503 -1.1225 -0.3252
16667TIP3    H271417   1.955   6.317   5.479  1.3236  0.2343 -0.5112
16668TIP3   OH271418   0.403   4.341   5.914  0.4718  0.1388 -0.6201
16668TIP3    H171419   0.438   4.400   5.981 -1.6926  1.5693 -0.6702
16668TIP3    H271420   0.398   4.395   5.835  0.0436 -0.6166 -1.1222
16669TIP3   OH271421   1.265   0.482   2.951 -0.0028  0.6416 -0.1074
16669TIP3    H171422   1.258   0.569   2.991 -1.0037  0.1720  0.8120
16669TIP3    H271423   1.334   0.491   2.886  0.8988  1.7599  0.9403
16670TIP3   OH271424   1.674   0.517   2.077  0.1554 -0.4017  0.3567
16670TIP3    H171425   1.713   0.431   2.061  0.4771 -0.4736  1.4629
16670TIP3    H271426   1.585   0.498   2.106  0.7005 -0.4669  2.1024
16671TIP3   OH271427   2.102   1.828   3.136  0.3109  0.3489  0.1360
16671TIP3    H171428   2.101   1.867   3.223  0.5780  0.4654  0.0899
16671TIP3    H271429   2.033   1.762   3.138 -1.4383  2.0742 -0.3814
16672TIP3   OH271430   2.934   2.587  14.857  0.0897  0.2013  0.4594
16672TIP3    H171431   2.910   2.621  14.943 -2.1974 -0.0704  0.0146
16672TIP3    H271432   2.860   2.530  14.834  0.8490 -0.0433 -1.5018
16673TIP3   OH271433   5.598   3.091   3.305 -0.6426 -0.5512  0.4544
16673TIP3    H171434   5.589   3.096   3.401  0.7122  1.5893  0.5501
16673TIP3    H271435   5.508   3.084   3.273 -1.0716 -2.3204  1.8820
16674TIP3   OH271436   4.487   1.393   0.871 -0.4590 -0.2433  0.1033
16674TIP3    H171437   4.477   1.484   0.898 -1.5554  0.0978 -1.3386
16674TIP3    H271438   4.462   1.342   0.948 -0.1294  0.6562  0.8218
16675TIP3   OH271439   1.298   4.727  13.949 -0.0729 -0.4580  0.1469
16675TIP3    H171440   1.322   4.657  13.888 -1.5898 -1.5775  0.7721
16675TIP3    H271441   1.206   4.711  13.969 -0.5568  1.9238  0.0830
16676TIP3   OH271442   6.012   6.074   1.166 -0.3947  0.1578  0.0470
16676TIP3    H171443   6.035   6.148   1.221 -0.2759  0.3100 -0.2032
16676TIP3    H271444   5.922   6.092   1.137  0.5437  1.6353 -2.2642
16677TIP3   OH271445   3.779   5.332  14.665  0.0411  0.1016 -0.3791
16677TIP3    H171446   3.803   5.327  14.757  0.2958  2.4228 -0.2539
16677TIP3    H271447   3.683   5.327  14.665 -0.0752  1.6800  0.2219
16678TIP3   OH271448   3.966   6.248   3.104 -0.8286 -0.1172 -0.5645
16678TIP3    H171449   4.032   6.308   3.139 -0.1479 -1.4573  0.5724
16678TIP3    H271450   3.944   6.191   3.178 -0.8301 -1.7848 -1.7848
16679TIP3   OH271451   5.557   0.606   2.613 -0.5693  0.1745 -0.0351
16679TIP3    H171452   5.511   0.526   2.639  0.5144  0.0888  1.7405
16679TIP3    H271453   5.502   0.677   2.644 -0.5304  0.0967  0.2132
16680TIP3   OH271454   1.072   6.202  14.416 -0.1345  0.2527 -0.5967
16680TIP3    H171455   1.150   6.174  14.463 -0.4833 -2.3601 -1.4235
16680TIP3    H271456   0.999   6.181  14.475 -0.3276  0.8847 -0.6039
16681TIP3   OH271457   1.042   2.907  13.700 -0.5934 -0.2741  0.1598
16681TIP3    H171458   1.082   2.992  13.681 -0.0020 -0.5797  0.0100
16681TIP3    H271459   0.977   2.896  13.631  0.4650 -0.6731 -0.8073
16682TIP3   OH271460   5.717   5.481   4.187  0.0015 -0.4141  0.0799
16682TIP3    H171461   5.801   5.479   4.140 -0.2343  0.5283 -0.4140
16682TIP3    H271462   5.660   5.533   4.131 -0.8833 -0.9411  0.4744
16683TIP3   OH271463   0.184   1.108   2.728  0.0352 -0.2327 -0.1469
16683TIP3    H171464   0.209   1.182   2.784 -0.9567 -1.1597  1.6340
16683TIP3    H271465   0.244   1.111   2.654  1.3060  1.1652  0.8989
16684TIP3   OH271466   6.356   7.109   0.099 -0.0632  0.5537  0.1590
16684TIP3    H171467   6.320   7.162   0.028 -0.2951  1.6537  1.0607
16684TIP3    H271468   6.303   7.133   0.175  0.5477 -0.1738  0.8241
16685TIP3   OH271469   2.899   5.357  15.260  0.8381 -0.5236 -0.3173
16685TIP3    H171470   2.969   5.419  15.279 -0.2544  0.5404  0.3664
16685TIP3    H271471   2.834   5.407  15.212 -0.5369 -0.8435  1.1473
16686TIP3   OH271472   0.720   6.283   3.791 -0.5823 -0.2148  0.1219
16686TIP3    H171473   0.746   6.311   3.703 -1.9343 -0.6849 -0.4640
16686TIP3    H271474   0.665   6.206   3.776 -1.5319  0.1936  1.3053
16687TIP3   OH271475   5.762   0.141  14.906  0.2516 -0.0525  0.2322
16687TIP3    H171476   5.744   0.232  14.885  0.1822 -0.3763 -1.2164
16687TIP3    H271477   5.808   0.144  14.990 -2.0950  1.1140  1.5866
16688TIP3   OH271478   7.096   0.201   2.722 -0.6427  0.1489  0.5448
16688TIP3    H171479   7.188   0.229   2.720 -0.7333  0.6148 -3.2350
16688TIP3    H271480   7.099   0.111   2.754  1.4689 -0.6581 -1.6453
16689TIP3   OH271481   2.270   4.454   4.137 -0.3460 -0.5896  0.0058
16689TIP3    H171482   2.342   4.515   4.154 -0.4840 -0.4900  0.2505
16689TIP3    H271483   2.207   4.505   4.086  0.6805 -1.2937 -2.0776
16690TIP3   OH271484   4.408   0.702   0.552 -0.2343  0.5364 -0.1350
16690TIP3    H171485   4.361   0.638   0.605  0.3193 -0.6844 -1.0792
16690TIP3    H271486   4.372   0.693   0.464  1.2895  0.0041 -0.7405
16691TIP3   OH271487   2.776   4.712   1.083 -0.1969 -0.1512  0.1743
16691TIP3    H171488   2.732   4.774   1.141 -0.6757  0.0401 -0.3868
16691TIP3    H271489   2.836   4.665   1.141  2.3152  2.7307  0.1768
16692TIP3   OH271490   4.821   2.500   3.090 -0.6089 -0.6767 -0.2365
16692TIP3    H171491   4.886   2.442   3.129  0.2820 -2.7995 -4.3360
16692TIP3    H271492   4.737   2.461   3.115 -0.2314 -0.5423  1.3733
16693TIP3   OH271493   0.369   6.968   0.076 -0.1017  0.1301 -0.0245
16693TIP3    H171494   0.295   6.923   0.035  1.0211 -1.1064 -0.8122
16693TIP3    H271495   0.379   6.925   0.161  0.1720 -0.2416 -0.2400
16694TIP3   OH271496   3.872   5.369   4.114 -0.9920  0.0704  0.2535
16694TIP3    H171497   3.852   5.427   4.188 -0.1431  0.2861  0.3171
16694TIP3    H271498   3.947   5.318   4.143  0.7407  1.6485 -1.2121
16695TIP3   OH271499   1.488   6.506   4.823 -0.4636  0.5278  0.2498
16695TIP3    H171500   1.435   6.524   4.746  0.4514  0.7988 -0.3320
16695TIP3    H271501   1.441   6.548   4.895 -0.2354  2.1682 -0.5044
16696TIP3   OH271502   1.856   5.915   3.102  0.0059  0.5735  0.3734
16696TIP3    H171503   1.827   5.999   3.137  0.6136  0.2875  1.6461
16696TIP3    H271504   1.923   5.886   3.163  0.8063 -0.1890 -0.8225
16697TIP3   OH271505   5.925   0.724   5.184 -0.5228 -0.4165 -0.2047
16697TIP3    H171506   6.009   0.679   5.184 -0.0500  0.3684  1.9370
16697TIP3    H271507   5.877   0.686   5.258 -1.2294  0.5994 -0.1207
16698TIP3   OH271508   2.037   1.224  13.055  0.4364 -0.0902  0.3626
16698TIP3    H171509   1.955   1.273  13.048 -0.2592 -1.4837 -2.4158
16698TIP3    H271510   2.025   1.171  13.134 -1.9907 -1.2278 -0.6399
16699TIP3   OH271511   3.312   3.123  13.363  0.5519 -0.1098  0.3422
16699TIP3    H171512   3.405   3.135  13.379  0.5742 -0.4288  0.4584
16699TIP3    H271513   3.282   3.207  13.328  0.4621  0.7171  2.2623
16700TIP3   OH271514   5.187   6.285   2.829  0.3383  0.1228  0.1639
16700TIP3    H171515   5.194   6.300   2.735 -0.5120  1.3168  0.2667
16700TIP3    H271516   5.252   6.217   2.848  1.0548  0.4159 -1.1525
16701TIP3   OH271517   1.519   1.847   1.453  0.2461 -0.4884 -0.4982
16701TIP3    H171518   1.612   1.826   1.455  0.1283 -1.0350 -0.7663
16701TIP3    H271519   1.506   1.902   1.530  0.7312 -0.6467 -0.2968
16702TIP3   OH271520   5.983   0.419   2.927 -0.2994 -0.1081  0.1014
16702TIP3    H171521   6.050   0.364   2.967 -2.1147 -1.1291  1.9031
16702TIP3    H271522   5.960   0.374   2.846 -1.1084 -1.6028  1.1085
16703TIP3   OH271523   1.988   3.747  14.822 -0.6116  0.0095  0.1494
16703TIP3    H171524   1.995   3.751  14.918  0.7784 -1.7440  0.1891
16703TIP3    H271525   2.079   3.754  14.792 -1.1687  2.4222 -1.2020
16704TIP3   OH271526   3.255   5.939   1.321 -0.2117 -0.2890  0.0640
16704TIP3    H171527   3.315   5.873   1.287 -0.2097 -0.7019  0.8533
16704TIP3    H271528   3.307   5.991   1.382 -0.5056 -0.3069  0.3387
16705TIP3   OH271529   1.195   5.256   1.116 -0.3596  0.1038 -0.2542
16705TIP3    H171530   1.169   5.167   1.094  0.2659 -0.8700  2.5761
16705TIP3    H271531   1.123   5.291   1.168 -0.6166  1.3152 -1.3678
16706TIP3   OH271532   3.487   3.150   5.402 -0.0271 -0.2195 -0.0360
16706TIP3    H171533   3.430   3.089   5.355  0.3958 -1.0284  0.4830
16706TIP3    H271534   3.576   3.118   5.385  0.2484  0.6725 -0.3425
16707TIP3   OH271535   4.533   2.396   2.535  0.4889 -0.2887  0.0938
16707TIP3    H171536   4.629   2.400   2.532  0.4642  0.2831 -2.3358
16707TIP3    H271537   4.512   2.309   2.499  0.1615  1.4773 -4.7868
16708TIP3   OH271538   4.027   1.086   3.258 -0.5038 -0.0986  0.0264
16708TIP3    H171539   4.066   1.172   3.244  0.8931 -0.5025  1.2558
16708TIP3    H271540   4.078   1.028   3.202  0.0859 -0.4792  0.9381
16709TIP3   OH271541   0.940   0.012   3.260 -0.9618  0.5209  0.2159
16709TIP3    H171542   0.991  -0.007   3.338 -1.1865  2.0434  0.7567
16709TIP3    H271543   1.003   0.005   3.188 -0.6499 -0.4214  0.5619
16710TIP3   OH271544   5.042   5.288  14.388  0.4955 -0.4442 -0.4429
16710TIP3    H171545   5.105   5.218  14.370  0.3194 -0.2786 -1.7927
16710TIP3    H271546   5.094   5.368  14.386  1.0992 -0.6001  3.1390
16711TIP3   OH271547   5.622   2.363   2.251 -0.4337 -0.3961  0.1293
16711TIP3    H171548   5.667   2.447   2.263 -1.0308 -0.2024  1.0545
16711TIP3    H271549   5.687   2.308   2.207  0.4308  0.1295  0.7141
16712TIP3   OH271550   4.109   0.340   4.441 -0.1596  0.0934  0.1729
16712TIP3    H171551   4.041   0.403   4.415 -1.0970 -0.6382  0.7714
16712TIP3    H271552   4.074   0.256   4.413  0.7753 -0.2469 -0.0080
16713TIP3   OH271553   6.549   7.084   4.886 -0.4410 -0.4035  0.2063
16713TIP3    H171554   6.626   7.130   4.852  2.8540 -4.5034  1.1936
16713TIP3    H271555   6.501   7.151   4.935  2.4008  2.4778 -0.5947
16714TIP3   OH271556   6.520   6.620   0.640  0.1124 -0.1836 -0.0465
16714TIP3    H171557   6.452   6.642   0.702  0.7651  1.8472  0.0024
16714TIP3    H271558   6.515   6.524   0.632 -2.3983 -0.1394  0.2829
16715TIP3   OH271559   6.139   2.617  10.189  0.0407  0.7375 -0.7153
16715TIP3    H171560   6.081   2.546  10.216 -0.7448 -0.4750 -4.9158
16715TIP3    H271561   6.082   2.693  10.179  0.3437  1.2053  0.8787
16716TIP3   OH271562   1.982   1.991   0.156  0.4076  0.2798  0.0533
16716TIP3    H171563   2.037   2.006   0.079  0.8081 -0.3026  0.2144
16716TIP3    H271564   2.029   1.924   0.206 -0.5680 -0.3984  0.0844
16717TIP3   OH271565   3.835   0.251   1.201 -0.6449  0.1829 -0.4857
16717TIP3    H171566   3.856   0.160   1.181  2.3424  0.7763 -0.5281
16717TIP3    H271567   3.921   0.293   1.214 -1.9686  2.6686  0.9667
16718TIP3   OH271568   5.360   3.527   0.860  0.3206 -0.7254  0.0343
16718TIP3    H171569   5.384   3.520   0.767 -0.2611  0.9637 -0.2752
16718TIP3    H271570   5.431   3.482   0.906 -0.1674 -3.0187 -1.2662
16719TIP3   OH271571   5.284   5.960   2.880  0.1713  0.4266  0.1952
16719TIP3    H171572   5.269   5.913   2.961  0.6751 -0.3201 -0.1369
16719TIP3    H271573   5.379   5.968   2.873  0.3920 -2.2966 -1.8216
16720TIP3   OH271574   3.268   6.188   4.216  0.5273  0.9413 -0.3212
16720TIP3    H171575   3.317   6.262   4.181 -0.9182  2.6102  1.0405
16720TIP3    H271576   3.206   6.165   4.147  1.9896 -0.0565 -1.3559
16721TIP3   OH271577   5.716   4.341   5.189 -0.3526  0.1716 -0.2077
16721TIP3    H171578   5.630   4.338   5.149 -1.8839 -0.4515  2.8489
16721TIP3    H271579   5.701   4.321   5.281  3.1390 -0.5144  0.3773
16722TIP3   OH271580   7.034   1.599   2.379  0.3479  0.1250  0.1176
16722TIP3    H171581   6.988   1.519   2.355  0.2210  0.4756 -0.8314
16722TIP3    H271582   7.043   1.593   2.474  1.3648 -1.5590 -0.0463
16723TIP3   OH271583   5.928   3.072   4.584 -0.1639 -0.6440 -0.0233
16723TIP3    H171584   5.993   3.101   4.648  2.6435 -2.0944 -2.0224
16723TIP3    H271585   5.923   3.144   4.521 -0.8529 -0.3681  0.3338
16724TIP3   OH271586   0.613   6.954   2.681  0.2064 -0.3954 -0.1335
16724TIP3    H171587   0.682   6.983   2.740 -0.3887 -0.5560  0.6641
16724TIP3    H271588   0.652   6.882   2.631  0.8510  0.0292 -0.2581
16725TIP3   OH271589   1.388   5.572   4.750  0.4353  0.4673 -0.1755
16725TIP3    H171590   1.298   5.562   4.782  0.5111  0.0389 -0.0892
16725TIP3    H271591   1.417   5.655   4.786  0.6681 -0.2023  1.2397
16726TIP3   OH271592   2.617   1.917   4.493 -0.4537 -0.0360  0.3627
16726TIP3    H171593   2.543   1.942   4.439  0.9388  1.5406 -0.9423
16726TIP3    H271594   2.634   1.993   4.548  0.9850  0.1721 -0.3172
16727TIP3   OH271595   4.379   2.154   3.123  1.0414  0.3144  0.2260
16727TIP3    H171596   4.382   2.065   3.087 -1.6572 -0.1304  0.8403
16727TIP3    H271597   4.420   2.146   3.209  0.2674 -0.5194  0.5418
16728TIP3   OH271598   2.832   6.925   1.922 -0.8753  0.3542  0.1838
16728TIP3    H171599   2.781   6.845   1.916 -0.1091 -0.5503  3.5118
16728TIP3    H271600   2.820   6.955   2.012  2.8202  1.1413  0.6033
16729TIP3   OH271601   6.809   2.737   0.934  0.1532 -0.1250  0.2865
16729TIP3    H171602   6.898   2.716   0.904 -0.1691  0.0341 -0.8169
16729TIP3    H271603   6.817   2.826   0.971  0.4089 -0.0300  0.0044
16730TIP3   OH271604   5.346   0.864  11.704 -0.5675 -0.1277  0.3453
16730TIP3    H171605   5.289   0.800  11.748 -0.7667  1.3131  2.3199
16730TIP3    H271606   5.319   0.948  11.740  1.1558  0.8550 -0.5578
16731TIP3   OH271607   6.350   5.945   4.373  0.1987 -0.6333  0.2118
16731TIP3    H171608   6.305   5.993   4.303  0.9076  0.5684  0.5584
16731TIP3    H271609   6.321   5.987   4.453  0.7962 -0.8315  0.5335
16732TIP3   OH271610   2.194   2.797  12.050  0.4155 -0.2481 -0.6044
16732TIP3    H171611   2.129   2.729  12.069  0.3969 -0.4361 -1.2967
16732TIP3    H271612   2.257   2.792  12.122  0.9878 -1.7031 -1.1729
16733TIP3   OH271613   1.413   0.424   1.124 -0.3730  0.5281  0.2047
16733TIP3    H171614   1.455   0.479   1.059  0.8058  0.2537  0.7057
16733TIP3    H271615   1.426   0.470   1.207  0.1892 -0.2506  0.5595
16734TIP3   OH271616   4.423   2.669   1.695  0.1682  0.5012 -0.1815
16734TIP3    H171617   4.400   2.591   1.745  3.9110  0.2507  1.4769
16734TIP3    H271618   4.364   2.737   1.728 -1.5958 -1.0647  0.0068
16735TIP3   OH271619   5.763   0.930  12.588 -0.2989 -0.3080 -0.3518
16735TIP3    H171620   5.772   0.901  12.679 -0.1508  0.2635 -0.1785
16735TIP3    H271621   5.735   1.021  12.595 -0.8851 -0.4412 -0.8838
16736TIP3   OH271622   6.801   3.395   1.551  0.0130 -0.2625 -0.8603
16736TIP3    H171623   6.760   3.309   1.560 -1.6315  0.4174 -1.4528
16736TIP3    H271624   6.747   3.453   1.604  0.5791  0.5663 -1.1768
16737TIP3   OH271625   4.564   0.669   2.246 -0.2284 -0.0595 -0.6036
16737TIP3    H171626   4.506   0.745   2.254 -0.8683 -0.6848  1.5216
16737TIP3    H271627   4.504   0.595   2.236  0.1978 -0.5941  0.5367
16738TIP3   OH271628   4.809   5.258   2.605 -0.4125 -0.2649 -0.0019
16738TIP3    H171629   4.787   5.167   2.583 -0.8931 -0.3027  0.6067
16738TIP3    H271630   4.798   5.263   2.700  0.4580  0.2046  0.0846
16739TIP3   OH271631   3.646   7.013   1.031  0.2236  0.4173  0.1967
16739TIP3    H171632   3.639   7.098   0.987  1.1372  1.4929  2.0188
16739TIP3    H271633   3.586   6.956   0.983 -2.3836  2.7418  0.4411
16740TIP3   OH271634   4.794   3.191   0.911 -0.6866  0.1055  0.0642
16740TIP3    H171635   4.823   3.254   0.977 -0.2007  0.0769 -0.1193
16740TIP3    H271636   4.698   3.188   0.920 -0.7385  1.0883 -0.1246
16741TIP3   OH271637   0.831   2.904   1.572 -0.0403  0.0606  0.6169
16741TIP3    H171638   0.913   2.938   1.608  0.8351  0.7596 -1.8118
16741TIP3    H271639   0.827   2.813   1.603  1.0468  0.3616  1.7304
16742TIP3   OH271640   4.489   3.691   4.479 -0.5253 -0.1479  0.2093
16742TIP3    H171641   4.464   3.674   4.570 -1.9852  0.5534 -0.0306
16742TIP3    H271642   4.476   3.608   4.434  1.0603 -0.7444  0.7871
16743TIP3   OH271643   1.385   6.038   3.970 -0.4503  0.2826  0.1420
16743TIP3    H171644   1.343   6.033   3.884 -1.3534 -0.4847  0.6140
16743TIP3    H271645   1.387   6.132   3.990  1.7983  0.6994 -1.6646
16744TIP3   OH271646   4.444   5.780  14.287  0.2014  0.5019 -0.6367
16744TIP3    H171647   4.532   5.773  14.249 -0.5910 -0.9071 -2.3322
16744TIP3    H271648   4.414   5.689  14.295 -1.2100  0.9721 -0.3429
16745TIP3   OH271649   0.989   1.773   3.520  0.0576 -0.1765  0.1929
16745TIP3    H171650   0.955   1.706   3.461  2.0137 -0.4737 -0.6997
16745TIP3    H271651   0.996   1.852   3.466  0.6485 -0.1046  0.3574
16746TIP3   OH271652   6.448   4.516   2.798  0.5246  0.3608  0.0915
16746TIP3    H171653   6.491   4.580   2.855  0.3877  0.1802  0.4036
16746TIP3    H271654   6.421   4.446   2.858 -0.7184  0.7372 -0.0060
16747TIP3   OH271655   5.302   5.227   3.519 -0.6233 -0.3027  0.2475
16747TIP3    H171656   5.273   5.205   3.431 -0.4989  1.0250 -0.1441
16747TIP3    H271657   5.223   5.223   3.572 -0.9893  0.4021 -0.2362
16748TIP3   OH271658   6.806   3.046  14.387 -0.2501 -1.1513 -0.2120
16748TIP3    H171659   6.746   2.982  14.349 -0.3585 -1.6098  0.7092
16748TIP3    H271660   6.849   3.086  14.311 -1.4795 -1.0275 -0.8746
16749TIP3   OH271661   1.504   1.981   1.173  0.5706 -0.3551  0.9262
16749TIP3    H171662   1.531   1.962   1.263  0.3666 -0.8844  0.8831
16749TIP3    H271663   1.446   1.908   1.150 -1.5839  1.1684  1.3161
16750TIP3   OH271664   5.023   3.092  15.425 -0.1970 -0.2391  0.4638
16750TIP3    H171665   4.986   3.175  15.453  0.1703  0.2334 -0.4193
16750TIP3    H271666   4.952   3.029  15.438 -1.0137  0.4876 -0.3006
16751TIP3   OH271667   2.039   1.519  15.257  0.0807  0.1398  0.3561
16751TIP3    H171668   1.966   1.523  15.318 -0.0186  1.9735  0.1858
16751TIP3    H271669   2.075   1.431  15.268 -2.4800 -1.0219  0.0086
16752TIP3   OH271670   6.693   3.665   5.314 -0.5972  0.5287  0.6340
16752TIP3    H171671   6.644   3.715   5.248 -0.4781  0.9844  0.8926
16752TIP3    H271672   6.652   3.578   5.312  0.2111  0.1425 -0.9329
16753TIP3   OH271673   0.609   7.049   0.441  0.9611 -0.2194 -0.1625
16753TIP3    H171674   0.589   6.961   0.410 -0.4307 -0.0094  0.0617
16753TIP3    H271675   0.623   7.039   0.535 -2.4963  0.1867  0.5353
16754TIP3   OH271676   3.589   0.442   5.006  0.0275  0.4132 -0.3031
16754TIP3    H171677   3.599   0.527   4.964 -0.0183  0.0820 -0.9853
16754TIP3    H271678   3.640   0.449   5.087  1.6845  0.4246 -1.3015
16755TIP3   OH271679   5.824   1.691   1.807 -0.0795 -0.4801 -0.3417
16755TIP3    H171680   5.830   1.746   1.885 -1.5377 -0.8584  0.0747
16755TIP3    H271681   5.839   1.602   1.838  0.4711 -0.5179 -0.7004
16756TIP3   OH271682   0.151   0.731   1.884 -0.2548 -0.1948 -0.8161
16756TIP3    H171683   0.065   0.749   1.923  0.4559  0.0302  0.7299
16756TIP3    H271684   0.162   0.797   1.816 -0.2897  1.3761  0.6365
16757TIP3   OH271685   1.101   6.806  15.476  0.1478  0.4320 -0.2240
16757TIP3    H171686   1.027   6.858  15.508  1.1086  0.8459  1.4555
16757TIP3    H271687   1.084   6.718  15.507 -0.1853  0.2742 -0.8302
16758TIP3   OH271688   0.193   3.394   4.657  0.0642  0.0100  0.5039
16758TIP3    H171689   0.162   3.396   4.567  0.9171 -0.0677  0.2046
16758TIP3    H271690   0.285   3.369   4.651  0.3384  0.7513  1.3454
16759TIP3   OH271691   4.838   2.182   5.096 -0.5336 -0.1741 -0.0368
16759TIP3    H171692   4.874   2.095   5.082  0.4262 -0.3173  2.7770
16759TIP3    H271693   4.743   2.171   5.085 -0.4040 -1.5494  0.1062
16760TIP3   OH271694   6.865   3.003   3.245 -0.1842 -0.0139 -0.5945
16760TIP3    H171695   6.836   2.942   3.178 -1.3708  1.2309 -1.2545
16760TIP3    H271696   6.858   3.089   3.204  3.2750  0.5100 -0.3648
16761TIP3   OH271697   0.354   2.016  13.739 -0.3603  0.4198  0.0997
16761TIP3    H171698   0.297   2.082  13.779  0.5550  0.8167  0.8053
16761TIP3    H271699   0.295   1.948  13.708 -1.1873  0.6063  1.2157
16762TIP3   OH271700   1.005   5.239   2.552  0.2428 -0.1176 -0.0637
16762TIP3    H171701   0.951   5.181   2.605 -1.4174 -0.1987 -1.7165
16762TIP3    H271702   0.987   5.327   2.586 -1.6959 -0.0480 -1.1299
16763TIP3   OH271703   3.859   3.642   3.478  0.4149  0.2851 -0.1790
16763TIP3    H171704   3.811   3.578   3.531  0.8459  0.3018  0.2352
16763TIP3    H271705   3.810   3.645   3.395 -0.4828  0.5498  0.3459
16764TIP3   OH271706   3.927   6.092   3.669 -0.1762 -0.0383 -0.9237
16764TIP3    H171707   3.951   6.069   3.759 -0.1144  1.9173 -0.3883
16764TIP3    H271708   4.006   6.073   3.618  0.4710  0.6466 -0.2126
16765TIP3   OH271709   2.169   2.855   1.945 -0.1074  0.3375 -0.0778
16765TIP3    H171710   2.091   2.896   1.907  0.5024  1.1817 -0.4664
16765TIP3    H271711   2.240   2.916   1.924  0.4071  0.3738  1.6396
16766TIP3   OH271712   0.635   1.596   3.896 -0.1651  0.3404 -0.6462
16766TIP3    H171713   0.730   1.597   3.908 -0.2903  0.0283  0.4341
16766TIP3    H271714   0.614   1.684   3.866  0.3605  0.6793 -0.0323
16767TIP3   OH271715   3.512   6.502   2.453  0.2882 -0.1730  0.2281
16767TIP3    H171716   3.474   6.523   2.368  1.8261  1.1662 -0.1946
16767TIP3    H271717   3.483   6.573   2.511 -1.1758 -1.3553  0.9909
16768TIP3   OH271718   2.818   4.246   4.705  0.6279  0.3190 -0.8052
16768TIP3    H171719   2.761   4.322   4.712 -0.0723 -0.2805  0.2957
16768TIP3    H271720   2.758   4.172   4.697  1.2746 -0.2506 -0.4993
16769TIP3   OH271721   3.630   6.524   0.856  0.0044  0.0970  0.4935
16769TIP3    H171722   3.537   6.547   0.866 -0.1401 -0.3034  0.1132
16769TIP3    H271723   3.676   6.590   0.907 -0.5428 -0.2624  1.4895
16770TIP3   OH271724   2.885   5.317   3.125 -0.5552 -0.2860  0.0192
16770TIP3    H171725   2.815   5.253   3.113 -0.3058 -0.6916  0.7167
16770TIP3    H271726   2.885   5.368   3.043 -1.8548 -0.0768  0.1378
16771TIP3   OH271727   4.491   6.975  13.866  0.5079 -0.2961  0.0843
16771TIP3    H171728   4.493   6.914  13.940  0.5119  2.1106  2.2098
16771TIP3    H271729   4.454   7.055  13.903 -1.6312  0.3697 -3.1133
16772TIP3   OH271730   2.811   0.271  15.247  0.0609 -0.0510 -0.2344
16772TIP3    H171731   2.720   0.254  15.271  0.1106  0.9444  0.7478
16772TIP3    H271732   2.862   0.249  15.325  0.4325  1.4593 -0.0207
16773TIP3   OH271733   0.443   1.583   5.324 -0.0322  0.2850  0.1094
16773TIP3    H171734   0.371   1.611   5.380 -0.8591  3.4148 -2.2342
16773TIP3    H271735   0.522   1.609   5.371 -0.5501  0.2439  1.0330
16774TIP3   OH271736   1.031   2.691   1.409 -0.3236  0.5748  0.4949
16774TIP3    H171737   1.024   2.754   1.338 -1.4913  0.4248  0.4576
16774TIP3    H271738   1.124   2.667   1.411 -0.2999  0.3937 -1.1523
16775TIP3   OH271739   1.604   5.906   4.119  0.2789 -0.1296 -0.1610
16775TIP3    H171740   1.658   5.974   4.079  0.9379 -0.7599 -0.3668
16775TIP3    H271741   1.521   5.909   4.072  0.1233  0.8453  0.1505
16776TIP3   OH271742   6.261   6.909   2.787 -0.1985  0.0008 -0.1330
16776TIP3    H171743   6.348   6.893   2.750  0.0186  0.3738  0.2037
16776TIP3    H271744   6.252   6.844   2.856 -0.1427  0.0271 -0.1002
16777TIP3   OH271745   0.049   6.084   0.821  0.5235 -0.3945  0.0420
16777TIP3    H171746   0.091   5.999   0.830 -0.5363 -1.2825 -2.3942
16777TIP3    H271747   0.095   6.126   0.748  1.2325  1.3195  1.3880
16778TIP3   OH271748   6.179   5.417   2.301 -0.3219  0.2945  0.5271
16778TIP3    H171749   6.151   5.507   2.289 -3.1549 -0.6694 -0.9293
16778TIP3    H271750   6.122   5.366   2.243  0.7431 -2.4953  1.7679
16779TIP3   OH271751   4.860   2.834   4.553  0.2269  0.7532 -0.4065
16779TIP3    H171752   4.863   2.890   4.631  2.1539  0.1667  0.0136
16779TIP3    H271753   4.774   2.792   4.557  0.3431  0.6143  1.5105
16780TIP3   OH271754   4.788   3.215   1.775  0.1742  0.1339  0.1725
16780TIP3    H171755   4.801   3.139   1.718 -0.4417 -0.1495  0.3929
16780TIP3    H271756   4.876   3.252   1.786  0.5353 -0.7213  0.2906
16781TIP3   OH271757   6.904   0.672   3.294 -0.3862  0.3339  0.0839
16781TIP3    H171758   6.979   0.630   3.251 -0.6864  0.8699 -0.9921
16781TIP3    H271759   6.828   0.620   3.268 -0.2053 -1.7512  3.1800
16782TIP3   OH271760   1.096   1.544   3.658 -0.4620 -0.2505 -0.3600
16782TIP3    H171761   1.148   1.556   3.737  0.4921 -0.8431 -0.8732
16782TIP3    H271762   1.116   1.620   3.604  2.4532 -1.9237 -1.9102
16783TIP3   OH271763   4.074   6.804  10.805  0.4255  0.2588 -0.2094
16783TIP3    H171764   4.038   6.843  10.885  1.6340  1.7325 -0.3352
16783TIP3    H271765   4.016   6.834  10.735  1.4541  2.0786 -0.3295
16784TIP3   OH271766   6.975   0.008   2.042  0.2344  0.5694  1.1019
16784TIP3    H171767   6.975  -0.019   2.134 -0.4298 -4.5832 -0.1182
16784TIP3    H271768   7.056  -0.030   2.006  0.4475  2.4032 -0.5366
16785TIP3   OH271769   1.764   5.486  14.920  0.0281  0.3342 -0.1850
16785TIP3    H171770   1.799   5.567  14.958  0.6279  0.2531 -0.5523
16785TIP3    H271771   1.739   5.511  14.830  3.0925 -0.5750 -1.3905
16786TIP3   OH271772   1.510   3.622   5.127  0.1715 -0.6663  0.3093
16786TIP3    H171773   1.506   3.633   5.032  0.0836  0.7269  0.4479
16786TIP3    H271774   1.426   3.583   5.150  0.4576 -1.6377 -0.2487
16787TIP3   OH271775   0.378   6.873   2.834 -0.2218 -0.4294  0.5089
16787TIP3    H171776   0.283   6.887   2.831 -0.2598 -0.1701  2.2001
16787TIP3    H271777   0.414   6.944   2.780 -0.9482 -0.2198  0.2843
16788TIP3   OH271778   1.727   3.252  11.009  0.2207  0.1592  0.0719
16788TIP3    H171779   1.746   3.266  10.917 -0.1223  1.0929  0.1291
16788TIP3    H271780   1.761   3.331  11.053  3.7993 -1.8103  1.2725
16789TIP3   OH271781   3.981   5.825   5.036 -0.2271  0.4333 -0.0178
16789TIP3    H171782   4.044   5.868   5.094 -0.2806  0.3794  0.0821
16789TIP3    H271783   4.035   5.786   4.967 -0.0065 -0.7995  0.8173
16790TIP3   OH271784   1.072   6.690   2.163 -0.3567  0.2491 -0.2236
16790TIP3    H171785   1.140   6.750   2.134 -0.5132  0.3799 -0.3190
16790TIP3    H271786   1.106   6.603   2.142  0.7011  0.1682  1.5852
16791TIP3   OH271787   4.066   1.977   3.711 -0.3216  1.3009 -0.2729
16791TIP3    H171788   4.162   1.980   3.702  0.1125 -0.1512  2.4836
16791TIP3    H271789   4.040   1.896   3.668 -0.1925  1.3100 -0.3680
16792TIP3   OH271790   2.354   1.296   5.364 -0.1435  0.1338  0.6277
16792TIP3    H171791   2.432   1.242   5.352 -0.5654 -0.3682  0.0468
16792TIP3    H271792   2.289   1.237   5.403 -0.5094  0.3032  0.2880
16793TIP3   OH271793   0.574   4.134  11.699  0.8158  0.1331 -0.4028
16793TIP3    H171794   0.492   4.174  11.729  0.6132 -0.5426 -0.0304
16793TIP3    H271795   0.584   4.164  11.609 -0.6474 -0.9914 -0.9729
16794TIP3   OH271796   7.002   2.249   0.026 -0.0887 -0.2857  0.2276
16794TIP3    H171797   6.974   2.274  -0.062 -0.1514 -1.7996 -0.2073
16794TIP3    H271798   6.924   2.209   0.065 -0.3224  1.1236  1.3153
16795TIP3   OH271799   1.161   4.556   1.783  0.1977  0.3434 -0.2745
16795TIP3    H171800   1.257   4.560   1.781  0.2451 -0.6492 -0.4527
16795TIP3    H271801   1.141   4.490   1.849 -0.4188  1.6773  0.9233
16796TIP3   OH271802   0.235   3.025   3.911  0.1732 -0.4909  0.2229
16796TIP3    H171803   0.246   2.932   3.932  1.0691 -0.3550  0.4081
16796TIP3    H271804   0.150   3.030   3.866 -0.1759 -1.2975  0.7753
16797TIP3   OH271805   0.490   0.261  14.449 -0.4414 -0.2957  0.1425
16797TIP3    H171806   0.430   0.335  14.445 -0.2376 -0.1078  0.4790
16797TIP3    H271807   0.551   0.275  14.378 -0.4171 -0.1536  0.1919
16798TIP3   OH271808   1.885   2.462   3.598  0.1704  0.0382  0.0737
16798TIP3    H171809   1.967   2.472   3.548 -0.4157  0.3676 -0.8570
16798TIP3    H271810   1.816   2.471   3.532 -0.7772  3.3456  1.3120
16799TIP3   OH271811   2.403   5.285   4.627 -0.0019  0.0887  0.0977
16799TIP3    H171812   2.449   5.224   4.685 -0.7963  1.0034  1.7620
16799TIP3    H271813   2.318   5.243   4.610 -0.1193  0.2324  0.3327
16800TIP3   OH271814   2.955   3.130   2.427 -0.8037 -0.5164 -0.3743
16800TIP3    H171815   2.886   3.113   2.491 -0.1570 -0.3049  0.4002
16800TIP3    H271816   2.925   3.207   2.379 -0.2958  0.7087  1.1989
16801TIP3   OH271817   2.780   0.161   4.728 -0.5704  0.5416 -0.3242
16801TIP3    H171818   2.735   0.237   4.690 -3.3784 -1.0577 -0.4431
16801TIP3    H271819   2.774   0.175   4.823  0.0023  1.0313 -0.3549
16802TIP3   OH271820   7.133   1.308   1.031 -0.2376 -0.4077  0.3522
16802TIP3    H171821   7.042   1.304   1.000 -0.6503  0.0300  1.4850
16802TIP3    H271822   7.144   1.398   1.060  0.4853 -0.5353  0.4702
16803TIP3   OH271823   5.975   6.520   2.886  0.0534  0.4020  0.3137
16803TIP3    H171824   5.960   6.429   2.862  0.2896  0.4588 -0.0412
16803TIP3    H271825   6.054   6.518   2.940  0.6920  0.5318 -0.5973
16804TIP3   OH271826   5.884   1.093  14.180 -0.7497  0.3684  0.2711
16804TIP3    H171827   5.864   1.021  14.120 -0.5130  1.7079 -1.5242
16804TIP3    H271828   5.973   1.075  14.210 -0.5938  0.0301 -0.3674
16805TIP3   OH271829   4.456   3.926  11.212  0.5751  0.8193 -0.3674
16805TIP3    H171830   4.390   3.968  11.156  0.0443 -0.3572 -0.6440
16805TIP3    H271831   4.529   3.988  11.212 -0.6650  2.3565  0.3050
16806TIP3   OH271832   3.626   3.759   0.144 -0.1152 -0.5859  0.1826
16806TIP3    H171833   3.549   3.756   0.087 -0.9504  3.1705  0.8595
16806TIP3    H271834   3.591   3.743   0.232  0.4720 -2.1048  0.1662
16807TIP3   OH271835   6.138   6.354   1.582  0.0706 -0.6424  0.0071
16807TIP3    H171836   6.198   6.291   1.542  0.2923  0.6990 -1.8831
16807TIP3    H271837   6.186   6.389   1.657  0.7069 -1.2781 -0.0944
16808TIP3   OH271838   6.813   1.743   2.320 -0.2352  0.4469 -0.2706
16808TIP3    H171839   6.906   1.746   2.345 -0.1019  1.2633 -0.8319
16808TIP3    H271840   6.778   1.828   2.348 -0.9032  0.0087  0.2580
16809TIP3   OH271841   4.597   1.928   3.796 -0.5379 -0.0891 -0.0249
16809TIP3    H171842   4.676   1.927   3.850 -0.7484 -0.0604  0.2880
16809TIP3    H271843   4.576   2.021   3.786 -0.5304 -0.0963 -0.1147
16810TIP3   OH271844   3.431   2.010  15.174  0.2381 -0.0306 -0.1693
16810TIP3    H171845   3.445   2.089  15.226 -0.4184 -0.3867  0.5755
16810TIP3    H271846   3.480   1.941  15.220  0.8187 -0.0645 -0.8208
16811TIP3   OH271847   3.624   0.928   0.591  0.0926 -0.4208 -0.1421
16811TIP3    H171848   3.711   0.917   0.554  1.1856  1.4769  1.6293
16811TIP3    H271849   3.607   0.848   0.640  1.8248 -0.0119  1.2344
16812TIP3   OH271850   5.927   6.201   4.641  0.3603 -0.2881 -0.5105
16812TIP3    H171851   5.894   6.290   4.634 -0.4587 -0.4363  1.0147
16812TIP3    H271852   5.850   6.146   4.626  0.3596 -0.6805  0.8406
16813TIP3   OH271853   6.695   5.161   0.335 -0.3670  0.0702  0.3936
16813TIP3    H171854   6.772   5.123   0.293 -0.1641  1.5878 -0.6842
16813TIP3    H271855   6.621   5.119   0.292 -0.1585  1.3400 -1.3166
16814TIP3   OH271856   6.699   0.619   1.426 -0.2854 -0.0039  0.1907
16814TIP3    H171857   6.685   0.613   1.331 -1.4621 -0.9984  0.4057
16814TIP3    H271858   6.790   0.590   1.438  0.6929  2.3683 -0.8178
16815TIP3   OH271859   3.383   4.710   2.204  0.5617 -0.0455 -0.2141
16815TIP3    H171860   3.471   4.748   2.210  1.2476 -1.4057 -1.1245
16815TIP3    H271861   3.362   4.714   2.111  0.6774 -1.9035 -0.3446
16816TIP3   OH271862   6.331   6.793   2.108 -0.2934 -0.1501 -0.5243
16816TIP3    H171863   6.398   6.835   2.162  0.1207 -0.5850 -0.6930
16816TIP3    H271864   6.381   6.741   2.045 -0.7903 -0.3807 -0.7254
16817TIP3   OH271865   4.874   2.848   0.335 -0.2257  0.5187  0.7182
16817TIP3    H171866   4.787   2.830   0.299 -0.0661 -0.4219  0.7802
16817TIP3    H271867   4.886   2.781   0.402  1.1322 -0.2666 -0.2770
16818TIP3   OH271868   1.484   6.063   4.627  0.1245  0.0519  0.1508
16818TIP3    H171869   1.543   5.990   4.604 -1.5942 -1.7444  1.0999
16818TIP3    H271870   1.403   6.020   4.652 -0.7410  2.3191  1.4559
16819TIP3   OH271871   5.866   0.739  14.961  0.0110 -1.0553  0.0335
16819TIP3    H171872   5.843   0.738  15.054  0.1406  1.0265  0.1299
16819TIP3    H271873   5.947   0.688  14.956  0.5813 -0.2972  1.2451
16820TIP3   OH271874   1.926   1.234  14.072 -0.3717  0.0187  0.2815
16820TIP3    H171875   2.003   1.178  14.067  2.4082  3.5003 -0.2586
16820TIP3    H271876   1.878   1.203  14.148  2.2518 -1.5933  1.4143
16821TIP3   OH271877   2.840   1.603  10.679  0.2959  0.0386  0.1220
16821TIP3    H171878   2.918   1.651  10.651  0.7359  1.3917  3.2667
16821TIP3    H271879   2.767   1.661  10.658  0.5498  0.6558  0.8606
16822TIP3   OH271880   3.765   4.596   3.681 -0.1476  0.1393 -0.2920
16822TIP3    H171881   3.758   4.502   3.697  0.5303 -0.0018 -0.7640
16822TIP3    H271882   3.804   4.603   3.594 -1.0689  0.8643 -0.6710
16823TIP3   OH271883   0.387   6.549   5.742 -0.1017  0.6106  0.3225
16823TIP3    H171884   0.451   6.555   5.671 -1.4067  0.4636 -0.9071
16823TIP3    H271885   0.306   6.585   5.705 -0.8333  0.5030  1.7329
16824TIP3   OH271886   3.842   0.888   1.114  0.5345  0.3292 -0.4597
16824TIP3    H171887   3.921   0.901   1.166 -0.8395  0.6904  1.6169
16824TIP3    H271888   3.842   0.794   1.094  2.3858  0.5959 -2.1082
16825TIP3   OH271889   2.080   1.750  13.035  0.4727  1.0694 -0.2608
16825TIP3    H171890   2.036   1.738  13.119 -1.3484  2.0402 -1.0306
16825TIP3    H271891   2.060   1.670  12.986  1.3595  0.5955  0.1262
16826TIP3   OH271892   3.152   6.726  13.676 -0.8683  0.1177  0.4694
16826TIP3    H171893   3.174   6.807  13.723 -0.9595  0.5799 -0.2748
16826TIP3    H271894   3.234   6.700  13.633 -0.7145 -0.4527  1.0868
16827TIP3   OH271895   1.868   6.702   4.730  0.4018  0.0485  0.1596
16827TIP3    H171896   1.819   6.621   4.718 -1.4367  1.1408 -0.2728
16827TIP3    H271897   1.899   6.699   4.820 -0.8441 -0.5401  0.5986
16828TIP3   OH271898   6.205   0.452   3.648  0.3855 -0.2550 -0.3672
16828TIP3    H171899   6.219   0.546   3.638 -2.0850  0.1878 -0.4733
16828TIP3    H271900   6.120   0.436   3.606 -0.6295 -2.0032  2.1022
16829TIP3   OH271901   5.086   1.988   1.897  0.2370 -0.1262  0.1500
16829TIP3    H171902   5.015   2.048   1.874  1.5537  1.5550  0.2636
16829TIP3    H271903   5.135   2.033   1.965  0.2580 -2.1523  1.5735
16830TIP3   OH271904   5.499   1.041   0.803  0.1592  0.1316  0.0469
16830TIP3    H171905   5.462   0.954   0.789 -1.2320  0.6755  0.1733
16830TIP3    H271906   5.513   1.046   0.897 -0.6372  0.3827  0.1516
16831TIP3   OH271907   5.534   3.996   4.665  0.1407 -0.4462  0.5600
16831TIP3    H171908   5.618   3.971   4.627 -0.5701  1.8514 -3.0197
16831TIP3    H271909   5.477   3.920   4.648  0.5654 -0.5358 -0.6103
16832TIP3   OH271910   3.879   1.285  15.075  0.3227  0.5204 -0.2527
16832TIP3    H171911   3.836   1.297  14.991  0.3584  0.2422 -0.3121
16832TIP3    H271912   3.921   1.200  15.069 -0.1169  0.2601  0.2376
16833TIP3   OH271913   4.096   0.137   0.486 -0.0519 -0.0093  0.5566
16833TIP3    H171914   4.042   0.183   0.550 -0.1252 -2.1352  2.1058
16833TIP3    H271915   4.163   0.092   0.538  0.4063 -1.1267 -0.9230
16834TIP3   OH271916   6.423   4.822   3.531 -0.6913 -0.2210 -0.4942
16834TIP3    H171917   6.460   4.794   3.447 -2.8761 -3.0357 -0.6308
16834TIP3    H271918   6.340   4.863   3.508 -1.2905 -0.9823  0.2794
16835TIP3   OH271919   1.590   1.433   2.586 -0.3727  0.1993  0.0439
16835TIP3    H171920   1.646   1.497   2.541 -0.8511  1.3844  1.0906
16835TIP3    H271921   1.529   1.486   2.637 -1.4441 -1.0914  0.1556
16836TIP3   OH271922   1.001   3.734  14.418  0.2024 -0.7592  0.3138
16836TIP3    H171923   1.031   3.778  14.498 -2.5266  1.4644  0.2862
16836TIP3    H271924   1.057   3.769  14.349  1.5429 -1.4913  0.9850
16837TIP3   OH271925   3.783   1.350   4.278 -0.1068  0.2332  0.1314
16837TIP3    H171926   3.845   1.352   4.206  0.6214 -1.9142  0.6312
16837TIP3    H271927   3.817   1.413   4.341 -1.0127  2.4938 -1.5177
16838TIP3   OH271928   4.027   6.780  12.292  0.0748  0.4442 -0.4687
16838TIP3    H171929   4.105   6.726  12.276 -0.2690  0.0653 -0.8796
16838TIP3    H271930   4.028   6.845  12.221 -0.2415  0.1358 -0.7634
16839TIP3   OH271931   6.622   6.152   3.085 -0.5329  0.3575 -0.5852
16839TIP3    H171932   6.656   6.132   2.998 -1.2368  1.5664 -1.1690
16839TIP3    H271933   6.589   6.242   3.078  1.2433  1.2642  1.4839
16840TIP3   OH271934   4.523   4.337   3.764  0.2312  0.6681  0.3493
16840TIP3    H171935   4.512   4.252   3.721 -0.4314 -0.5670  2.7381
16840TIP3    H271936   4.552   4.396   3.695 -0.8677 -1.1084 -1.7544
16841TIP3   OH271937   0.100   2.519   4.933  0.2811 -0.3891 -0.2212
16841TIP3    H171938   0.092   2.547   4.842 -0.3761 -0.4414 -0.1863
16841TIP3    H271939   0.021   2.554   4.975  1.1028  0.5692  0.5732
16842TIP3   OH271940   5.169   0.606   1.433 -0.4082  0.1553  0.2999
16842TIP3    H171941   5.118   0.588   1.512 -1.0596 -2.7604 -0.6348
16842TIP3    H271942   5.111   0.580   1.361  0.8285  0.9711 -1.0310
16843TIP3   OH271943   2.915   3.265  14.603  0.0722 -0.4137  0.3201
16843TIP3    H171944   2.961   3.305  14.529  0.8154  0.6613  1.3398
16843TIP3    H271945   2.892   3.177  14.572  0.9278 -0.2112 -0.9567
16844TIP3   OH271946   4.569   2.127   5.068  0.3884 -0.1888 -0.5555
16844TIP3    H171947   4.482   2.097   5.093  0.2409 -0.0154 -0.8512
16844TIP3    H271948   4.611   2.050   5.028  0.7180 -0.5358  0.4398
16845TIP3   OH271949   3.538   1.366   4.717 -0.2839 -0.1156  0.4919
16845TIP3    H171950   3.611   1.427   4.702  0.2569 -0.8944 -0.1233
16845TIP3    H271951   3.465   1.423   4.741  0.3182  0.7471  0.3579
16846TIP3   OH271952   4.678   4.043   0.727 -0.2935 -0.0587  0.4648
16846TIP3    H171953   4.659   4.135   0.711 -2.4224 -0.5270 -0.0308
16846TIP3    H271954   4.610   4.014   0.788 -0.4712 -1.5917 -0.4019
16847TIP3   OH271955   0.026   1.573  12.728 -0.4430 -0.4659 -0.3588
16847TIP3    H171956   0.083   1.531  12.792  0.5652  0.9119 -0.3094
16847TIP3    H271957  -0.055   1.591  12.777 -0.3684 -1.0791 -0.0001
16848TIP3   OH271958   1.991   6.810   3.304 -0.1084  0.0207 -0.0231
16848TIP3    H171959   1.968   6.852   3.221 -0.9878 -0.9908 -0.3123
16848TIP3    H271960   1.962   6.720   3.294 -1.0821  0.1016  1.7218
16849TIP3   OH271961   0.571   2.305  10.561  0.1385  0.1110 -0.3979
16849TIP3    H171962   0.584   2.282  10.653  0.2380  0.5252 -0.3050
16849TIP3    H271963   0.480   2.336  10.556  1.2735  4.1732  0.4742
16850TIP3   OH271964   4.227   5.187  12.043  0.2137 -0.5240  0.3597
16850TIP3    H171965   4.292   5.159  11.978  0.0338  0.0731 -0.0817
16850TIP3    H271966   4.276   5.243  12.103  0.5255 -1.5776  1.1235
16851TIP3   OH271967   5.766   0.013  14.155  0.0293 -0.5194  0.5929
16851TIP3    H171968   5.732   0.067  14.226  0.7994  0.0650  0.5272
16851TIP3    H271969   5.688  -0.029  14.118 -0.3920 -0.7837  1.7256
16852TIP3   OH271970   2.512   1.948   3.033  0.4594  0.0995  0.2234
16852TIP3    H171971   2.440   2.004   3.005  1.3662  1.5061  0.6495
16852TIP3    H271972   2.483   1.859   3.008 -0.5032  0.8406 -1.5132
16853TIP3   OH271973   4.978   2.679   4.035  0.3416 -0.4410 -0.2230
16853TIP3    H171974   4.953   2.587   4.047 -1.7703  0.1638  0.5508
16853TIP3    H271975   5.035   2.698   4.109 -0.1321 -0.8598  0.2681
16854TIP3   OH271976   6.427   0.654  13.905  0.3545  0.7439  0.4171
16854TIP3    H171977   6.442   0.740  13.944 -0.4810  0.7147  0.8324
16854TIP3    H271978   6.408   0.597  13.979 -2.3180  0.9065 -0.0413
16855TIP3   OH271979   0.661   6.168   4.223  0.0483  0.0895  0.6486
16855TIP3    H171980   0.700   6.179   4.310  1.1620  0.9315  0.0669
16855TIP3    H271981   0.614   6.085   4.228  1.9337 -1.0041  1.4223
16856TIP3   OH271982   3.910   3.670   5.391  0.2152 -0.4957  0.4253
16856TIP3    H171983   3.963   3.695   5.466 -0.6425 -2.0955  1.6420
16856TIP3    H271984   3.822   3.702   5.412  0.3999  1.0899 -1.0145
16857TIP3   OH271985   6.405   4.293  12.276  0.1904  0.6739  0.3600
16857TIP3    H171986   6.423   4.230  12.346 -1.0593 -0.8301 -0.6064
16857TIP3    H271987   6.345   4.355  12.315 -1.7245 -1.0168  0.2806
16858TIP3   OH271988   5.243   4.704   5.193 -0.4395 -0.0899 -0.1412
16858TIP3    H171989   5.308   4.742   5.253  1.6826 -1.9291 -1.1254
16858TIP3    H271990   5.160   4.709   5.241  0.7419  0.6443  1.9619
16859TIP3   OH271991   3.369   2.610   3.730 -0.5370 -0.0056  0.8281
16859TIP3    H171992   3.399   2.526   3.693 -1.1025 -0.0514  0.4539
16859TIP3    H271993   3.274   2.610   3.715 -0.5435  0.7002  0.8288
16860TIP3   OH271994   0.270   6.401  15.415  0.2994 -0.1203  0.0021
16860TIP3    H171995   0.312   6.384  15.500  0.6235 -1.5659 -0.4232
16860TIP3    H271996   0.320   6.350  15.352 -2.5526 -2.7168 -0.4003
16861TIP3   OH271997   6.586   5.631   1.820  0.4072 -0.8284  0.4740
16861TIP3    H171998   6.598   5.617   1.726 -0.4282 -0.2928  0.2738
16861TIP3    H271999   6.659   5.687   1.845 -0.8479  1.3750 -0.4647
16862TIP3   OH272000   2.658   6.057   4.022  0.6813  0.1574 -0.4789
16862TIP3    H172001   2.666   6.141   4.067  0.7771  0.7063 -1.4912
16862TIP3    H272002   2.715   6.065   3.946 -2.2567  0.7053 -2.7943
16863TIP3   OH272003   5.753   7.022   3.290  0.7560  0.5208  0.3466
16863TIP3    H172004   5.829   7.065   3.251  1.4605  0.1875  1.3102
16863TIP3    H272005   5.685   7.028   3.223  1.7067  0.5801 -0.6425
16864TIP3   OH272006   5.623   3.932   1.512 -0.3108  0.2342 -0.3254
16864TIP3    H172007   5.541   3.943   1.560 -0.6699 -0.9016 -0.6501
16864TIP3    H272008   5.670   4.014   1.527 -2.3279  1.7449 -1.7337
16865TIP3   OH272009   5.286   0.052   2.176 -0.5958  0.1207  0.4204
16865TIP3    H172010   5.224   0.089   2.112 -0.4690  0.2037  0.3447
16865TIP3    H272011   5.333   0.128   2.210  0.7239 -0.0837 -0.8325
16866TIP3   OH272012   3.350   4.542   0.908  0.4488  0.8388 -0.1378
16866TIP3    H172013   3.312   4.478   0.847  0.1861  0.4111  0.4642
16866TIP3    H272014   3.282   4.555   0.974  1.1068  0.5316  0.6160
16867TIP3   OH272015   0.859   1.282   5.704 -0.1716 -0.2997 -0.0393
16867TIP3    H172016   0.863   1.223   5.779 -1.2799  0.2149  0.4585
16867TIP3    H272017   0.783   1.338   5.721 -0.5479 -0.2620 -1.6139
16868TIP3   OH272018   7.042   1.846   1.179 -0.3561  0.0903  0.1481
16868TIP3    H172019   6.981   1.773   1.184 -1.9518  1.3997  0.9840
16868TIP3    H272020   7.053   1.862   1.085  0.5659 -1.6010 -0.0735
16869TIP3   OH272021   6.614   2.098   2.074 -0.3458 -0.0470  0.1212
16869TIP3    H172022   6.640   2.007   2.087  0.7998  0.4020  1.2830
16869TIP3    H272023   6.632   2.116   1.982 -1.5809 -1.2742 -0.3849
16870TIP3   OH272024   2.981   1.986   1.505  0.0372 -0.2328  0.2477
16870TIP3    H172025   2.907   2.044   1.524  1.5733  1.8481  0.2069
16870TIP3    H272026   2.942   1.911   1.461 -2.2218  0.0798  1.5559
16871TIP3   OH272027   6.222   1.697   3.134  0.9499  0.6955  0.0354
16871TIP3    H172028   6.183   1.640   3.201  0.1916  1.7658  0.5398
16871TIP3    H272029   6.308   1.720   3.170  1.2774 -0.1187 -0.1838
16872TIP3   OH272030   6.242   5.005   3.312 -0.3181  0.1992  0.0744
16872TIP3    H172031   6.173   5.032   3.251 -2.2077 -2.1753  1.0114
16872TIP3    H272032   6.257   5.082   3.367  0.5243  1.9809 -2.4354
16873TIP3   OH272033   2.226   0.257   1.712  0.3969 -0.5097  0.1103
16873TIP3    H172034   2.303   0.255   1.769  0.7690  0.6533 -0.3254
16873TIP3    H272035   2.223   0.169   1.674  2.2243 -0.2434 -0.7713
16874TIP3   OH272036   5.940   1.641   3.954 -0.2542  0.1195 -0.7272
16874TIP3    H172037   5.984   1.685   4.027  1.0276  0.1393 -1.4787
16874TIP3    H272038   5.919   1.554   3.987 -1.8016  0.8813  0.4073
16875TIP3   OH272039   5.266   2.019  10.259  0.4180  0.0352 -0.0597
16875TIP3    H172040   5.221   2.098  10.229  0.4310  0.0976  0.0866
16875TIP3    H272041   5.357   2.046  10.270  0.4615 -0.0513 -0.2036
16876TIP3   OH272042   1.299   0.170   5.066 -0.3459  0.0760  0.5401
16876TIP3    H172043   1.210   0.175   5.031 -0.3379 -0.3283  0.4523
16876TIP3    H272044   1.289   0.130   5.152 -0.2615  0.1279  0.5743
16877TIP3   OH272045   3.943   2.409   4.315  0.0406  0.2920  0.0238
16877TIP3    H172046   3.880   2.469   4.274 -0.7691  0.7519  1.8531
16877TIP3    H272047   3.929   2.326   4.270 -2.4976  0.1560  0.8765
16878TIP3   OH272048   6.845   2.257   3.046  0.0987 -0.3249  0.3155
16878TIP3    H172049   6.862   2.290   2.958  1.2429 -0.4255  0.4892
16878TIP3    H272050   6.905   2.305   3.102 -0.1463 -0.7452  0.9459
16879TIP3   OH272051   5.312   6.713   1.988  0.6001  0.1750 -0.3664
16879TIP3    H172052   5.395   6.695   2.032 -0.0688 -0.3000  0.7102
16879TIP3    H272053   5.310   6.809   1.981  1.3853  0.1790 -0.7115
16880TIP3   OH272054   0.002   5.884   3.557 -0.3169  0.1749  1.0203
16880TIP3    H172055   0.054   5.866   3.635 -0.9405 -0.9683  1.1972
16880TIP3    H272056  -0.046   5.803   3.540 -1.2768  0.8612  0.2796
16881TIP3   OH272057   3.045   2.409  10.816  0.8464  0.1759 -0.3207
16881TIP3    H172058   2.987   2.378  10.746  2.0132 -1.3754 -0.6704
16881TIP3    H272059   3.065   2.499  10.793  0.0526  0.1363 -1.2078
16882TIP3   OH272060   2.298   3.690   5.136  0.5566  0.1483  0.4535
16882TIP3    H172061   2.283   3.782   5.156  1.7571  0.4696 -0.0273
16882TIP3    H272062   2.236   3.670   5.065  0.9877  0.8789 -0.1405
16883TIP3   OH272063   1.275   3.159   1.880 -0.4219  0.0865 -0.5507
16883TIP3    H172064   1.332   3.227   1.917 -0.2395 -0.4183  0.1279
16883TIP3    H272065   1.332   3.109   1.822 -0.4085  0.1480 -0.5911
16884TIP3   OH272066   4.066   6.253  13.086 -0.5122 -0.3222  0.0678
16884TIP3    H172067   3.985   6.256  13.138 -0.8396 -2.2711 -0.2420
16884TIP3    H272068   4.095   6.162  13.092  0.2527 -0.2649 -1.9339
16885TIP3   OH272069   6.161   6.801   4.766  0.5212 -0.2742  0.1014
16885TIP3    H172070   6.133   6.748   4.691  0.1521  1.7954 -1.3016
16885TIP3    H272071   6.256   6.788   4.771  0.7427  0.5408 -1.5548
16886TIP3   OH272072   5.461   6.325   1.064 -0.2983 -0.8545 -0.5809
16886TIP3    H172073   5.472   6.303   1.156  0.4772  1.8019  0.0459
16886TIP3    H272074   5.378   6.285   1.039 -1.0590 -0.7462  1.5886
16887TIP3   OH272075   1.809   5.185  14.208  0.7055 -0.0115  0.0899
16887TIP3    H172076   1.847   5.186  14.120  1.2859  1.9058  0.3174
16887TIP3    H272077   1.881   5.160  14.266  0.4290 -0.8625  0.0791
16888TIP3   OH272078   0.903   5.877   4.669 -0.4368 -0.2809  0.0696
16888TIP3    H172079   0.916   5.790   4.631  2.3847 -0.0698  0.3338
16888TIP3    H272080   0.810   5.881   4.690 -1.4039 -1.8307 -3.2833
16889TIP3   OH272081   4.684   1.761  14.679 -0.0588  0.4120 -0.0492
16889TIP3    H172082   4.662   1.849  14.710 -2.4559  0.5769 -1.8601
16889TIP3    H272083   4.749   1.775  14.610  2.1189  0.3988  1.9153
16890TIP3   OH272084   0.983   0.990   0.943 -0.0628 -0.0861  0.4363
16890TIP3    H172085   1.049   0.937   0.989  1.0514  0.1902 -0.7742
16890TIP3    H272086   1.024   1.076   0.936 -0.9821  0.3608  0.5160
16891TIP3   OH272087   2.034   0.400   2.147 -0.1251  0.4563  0.1616
16891TIP3    H172088   2.104   0.450   2.105  0.1612  0.2466  0.3850
16891TIP3    H272089   2.079   0.338   2.203 -0.4838  1.8812  2.1605
16892TIP3   OH272090   0.556   2.686   3.242  0.4428 -0.2854  0.0415
16892TIP3    H172091   0.607   2.755   3.200  0.9112 -1.3000 -1.1095
16892TIP3    H272092   0.552   2.616   3.177 -0.7469 -1.0110  0.8585
16893TIP3   OH272093   0.231   0.633   3.975  0.3506 -0.3634  0.0921
16893TIP3    H172094   0.242   0.714   3.926  1.7725 -1.1362 -0.9424
16893TIP3    H272095   0.284   0.645   4.054 -1.9123  0.8662  1.5590
16894TIP3   OH272096   3.856   5.135   2.087 -0.4991  0.7490  0.2740
16894TIP3    H172097   3.941   5.093   2.095 -1.2503 -0.8917  0.0133
16894TIP3    H272098   3.830   5.120   1.996 -1.7393 -0.1496  0.7484
16895TIP3   OH272099   0.530   4.372   1.736 -0.2943 -0.2580 -0.2398
16895TIP3    H172100   0.529   4.301   1.800 -0.9836 -0.8818 -0.9091
16895TIP3    H272101   0.583   4.440   1.776 -2.5645  0.3456  2.0470
16896TIP3   OH272102   4.627   4.477  13.409  0.4089 -0.0379  0.3001
16896TIP3    H172103   4.593   4.391  13.386 -0.5407  0.7059 -1.1710
16896TIP3    H272104   4.704   4.488  13.353  0.9004 -0.1521  0.9300
16897TIP3   OH272105   5.349   7.020   5.058  0.5320  0.0504 -0.3152
16897TIP3    H172106   5.413   7.072   5.106  1.4402 -1.4970  0.2293
16897TIP3    H272107   5.399   6.980   4.987  0.0005 -0.5347 -0.3696
16898TIP3   OH272108   1.765   1.072   5.771  0.6042  0.1174 -0.2375
16898TIP3    H172109   1.828   1.088   5.841  0.5206  0.8849 -0.3376
16898TIP3    H272110   1.703   1.145   5.776 -1.2529 -1.4481  0.9107
16899TIP3   OH272111   2.641   4.363   3.463 -0.0649 -0.5234  0.0292
16899TIP3    H172112   2.633   4.274   3.497 -1.0009 -0.7806 -0.8219
16899TIP3    H272113   2.552   4.388   3.440  0.4061 -0.0328 -1.3866
16900TIP3   OH272114   1.926   0.941   0.759 -0.3778  0.0886 -0.3818
16900TIP3    H172115   1.924   0.887   0.839 -1.5633 -0.0149 -0.4572
16900TIP3    H272116   1.846   0.993   0.764  0.3941  1.3373 -0.6768
16901TIP3   OH272117   7.080   4.798   3.172 -0.1576 -0.4162  0.6147
16901TIP3    H172118   7.167   4.817   3.135  0.0426 -0.4735  1.0539
16901TIP3    H272119   7.093   4.801   3.267 -0.3596 -1.6519  0.6939
16902TIP3   OH272120   4.548   0.322   5.023 -0.4089  0.9840 -0.3766
16902TIP3    H172121   4.504   0.256   4.970 -1.2079  1.3567 -0.1849
16902TIP3    H272122   4.516   0.405   4.989 -0.0250  1.2588 -0.0782
16903TIP3   OH272123   2.366   5.095   1.460  0.6254  0.4928 -0.6834
16903TIP3    H172124   2.335   5.005   1.454  2.0333 -0.1078  0.3494
16903TIP3    H272125   2.438   5.101   1.397  1.8188  0.2668  0.5898
16904TIP3   OH272126   3.459   2.112   5.714 -0.2185  0.1983  0.1403
16904TIP3    H172127   3.412   2.028   5.709  0.2058 -0.1289  1.2525
16904TIP3    H272128   3.393   2.174   5.745 -1.5285  1.1581 -3.9275
16905TIP3   OH272129   3.573   2.523  15.259 -0.4522  0.2493  0.7365
16905TIP3    H172130   3.658   2.488  15.284  0.2433  1.4507  0.1865
16905TIP3    H272131   3.561   2.599  15.316 -0.3075  1.1336 -0.3744
16906TIP3   OH272132   1.357   6.582   0.201  0.2298  0.7929  0.3949
16906TIP3    H172133   1.311   6.556   0.122 -1.1346  0.2844  1.3102
16906TIP3    H272134   1.407   6.660   0.176  2.4371 -1.1669 -1.7583
16907TIP3   OH272135   3.560   4.116  14.810  0.2041 -0.3906  0.4635
16907TIP3    H172136   3.582   4.165  14.890  2.9660  0.2605 -0.5810
16907TIP3    H272137   3.616   4.038  14.813  0.8501 -0.0286 -1.1007
16908TIP3   OH272138   6.993   2.849   0.644  0.3483 -0.5242  0.5391
16908TIP3    H172139   7.030   2.934   0.670  0.4936 -0.5377  0.3760
16908TIP3    H272140   7.037   2.786   0.701  0.4842 -0.5261  0.4335
16909TIP3   OH272141   4.801   2.293  12.450 -0.8292  0.2696  0.1765
16909TIP3    H172142   4.741   2.237  12.400 -0.1412 -1.2810  1.0067
16909TIP3    H272143   4.888   2.265  12.421 -0.4709  0.8174  0.7138
16910TIP3   OH272144   5.229   4.757   5.998 -0.6340 -0.2498 -0.2548
16910TIP3    H172145   5.185   4.840   6.021  0.0029 -0.3536  1.5099
16910TIP3    H272146   5.316   4.784   5.968 -0.6147 -0.2559 -0.2035
16911TIP3   OH272147   5.668   1.787   4.224 -0.2276  0.3613 -0.2474
16911TIP3    H172148   5.635   1.861   4.173  0.3786  0.1645 -0.9286
16911TIP3    H272149   5.751   1.818   4.261  0.3098 -0.1635 -0.9983
16912TIP3   OH272150   4.004   0.744  13.521 -0.8599  0.2558 -0.4323
16912TIP3    H172151   3.976   0.744  13.613 -0.7520 -0.3042 -0.3951
16912TIP3    H272152   4.099   0.728  13.526 -0.9482 -0.3199 -0.6691
16913TIP3   OH272153   4.132   2.985   5.484  1.1314 -0.1265  0.4161
16913TIP3    H172154   4.089   2.938   5.412 -0.5285  2.8105 -0.6799
16913TIP3    H272155   4.090   2.950   5.563 -1.7495  0.9778 -0.4936
16914TIP3   OH272156   1.863   6.620   5.422  0.4590 -0.2069  0.3893
16914TIP3    H172157   1.955   6.644   5.409  0.1128  0.3723 -1.1513
16914TIP3    H272158   1.866   6.530   5.456  1.5634 -1.5533 -2.9009
16915TIP3   OH272159   5.819   0.898   3.698  0.3037  0.0773 -0.1131
16915TIP3    H172160   5.731   0.869   3.675  0.4502  0.8901 -1.8252
16915TIP3    H272161   5.831   0.869   3.788 -1.7081 -0.0438  0.1518
16916TIP3   OH272162   7.068   3.880   4.241 -0.0531  0.2952 -0.1560
16916TIP3    H172163   7.039   3.890   4.151  2.0784  0.5918 -0.8621
16916TIP3    H272164   7.164   3.876   4.236  0.1552  0.7226  2.1231
16917TIP3   OH272165   1.744   6.761  12.489 -0.1582 -0.3843 -0.2627
16917TIP3    H172166   1.748   6.665  12.491 -0.6989 -0.4233 -0.7306
16917TIP3    H272167   1.816   6.789  12.545  1.5956 -1.0219 -2.0924
16918TIP3   OH272168   5.180   5.624  13.129 -0.6388 -0.0152  0.3019
16918TIP3    H172169   5.091   5.601  13.155 -0.8348  0.1803 -0.1733
16918TIP3    H272170   5.208   5.687  13.195 -2.2609  2.8598 -1.5129
16919TIP3   OH272171   3.685   4.684  13.609 -0.4972  0.1456 -0.3810
16919TIP3    H172172   3.764   4.644  13.572 -1.0377  0.0714 -1.5046
16919TIP3    H272173   3.614   4.626  13.581 -1.1497  1.1986 -0.9485
16920TIP3   OH272174   1.128   7.077   3.089  0.0847 -0.3146  0.2118
16920TIP3    H172175   1.218   7.104   3.108  0.0388 -0.0735  0.0879
16920TIP3    H272176   1.128   7.059   2.994  0.1871 -1.0228  0.3414
16921TIP3   OH272177   4.363   4.293  11.278 -0.0141  0.3165  0.9268
16921TIP3    H172178   4.456   4.313  11.267 -0.0189  0.1461  0.5663
16921TIP3    H272179   4.332   4.360  11.339  0.2209  0.7148  0.6180
16922TIP3   OH272180   5.738   5.789   3.811  0.3070  0.3598 -0.4514
16922TIP3    H172181   5.650   5.821   3.792 -0.9712 -2.4645  0.3080
16922TIP3    H272182   5.753   5.719   3.748  2.4670  1.3846 -1.1958
16923TIP3   OH272183   2.693   2.373   1.200  0.2436 -0.1089 -0.1968
16923TIP3    H172184   2.725   2.336   1.282 -1.2618  0.2601  0.5830
16923TIP3    H272185   2.664   2.297   1.149 -0.1123 -0.2337  0.1890
16924TIP3   OH272186   4.805   5.551   2.210  0.3031  0.0512  0.5249
16924TIP3    H172187   4.774   5.517   2.127 -0.5602  0.4784  0.6622
16924TIP3    H272188   4.795   5.479   2.272 -3.0486  0.9183  1.1851
16925TIP3   OH272189   2.296   3.264   5.133  0.0835 -0.3538 -0.1697
16925TIP3    H172190   2.284   3.244   5.225  0.8350 -2.8616 -0.5533
16925TIP3    H272191   2.388   3.243   5.116  0.7230  2.5538 -0.9753
16926TIP3   OH272192   1.853   0.474   2.374 -0.3766 -0.1646  0.2099
16926TIP3    H172193   1.854   0.454   2.280 -1.1419  1.0546 -0.0890
16926TIP3    H272194   1.941   0.454   2.404  0.5939  1.6314 -1.2724
16927TIP3   OH272195   5.069   4.059  14.519 -0.6322 -0.1299  0.3193
16927TIP3    H172196   5.100   4.116  14.448 -1.9046 -0.0378 -0.1800
16927TIP3    H272197   5.071   4.115  14.597  2.3446 -0.6858  0.7566
16928TIP3   OH272198   5.234   3.862  14.932 -0.3195  0.6139 -0.2770
16928TIP3    H172199   5.319   3.852  14.976 -0.6299 -0.0306  0.1911
16928TIP3    H272200   5.256   3.871  14.840  0.2803  0.7587 -0.1248
16929TIP3   OH272201   2.536   6.328   0.453 -0.0682 -0.0750  0.0314
16929TIP3    H172202   2.582   6.374   0.523  0.6794 -0.1904 -0.3689
16929TIP3    H272203   2.524   6.394   0.384  0.8506 -0.4129 -0.4723
16930TIP3   OH272204   2.728   0.502   3.042  0.1322 -0.8174 -0.0797
16930TIP3    H172205   2.791   0.483   3.111 -0.6833  0.2828  1.0153
16930TIP3    H272206   2.781   0.537   2.970  0.7925  0.0888  0.8207
16931TIP3   OH272207   0.655   2.281   4.615 -0.0817 -0.2521 -0.2255
16931TIP3    H172208   0.604   2.213   4.571  0.6890 -1.1192  0.2012
16931TIP3    H272209   0.616   2.289   4.702 -0.6552  0.4052 -0.5333
16932TIP3   OH272210   1.160   1.270   3.082  0.4755  0.0564  0.8959
16932TIP3    H172211   1.224   1.305   3.020 -0.4513  1.0567  0.4823
16932TIP3    H272212   1.088   1.332   3.080 -0.8022 -1.3699  0.8814
16933TIP3   OH272213   5.150   5.670   0.333  0.0642 -0.4895  0.1113
16933TIP3    H172214   5.203   5.606   0.286  1.0567 -0.4721  1.1793
16933TIP3    H272215   5.210   5.742   0.354 -0.7945  0.3322 -0.1780
16934TIP3   OH272216   3.058   0.969   6.063  0.1906  0.1640 -0.2050
16934TIP3    H172217   3.050   1.016   5.981  1.0058  1.3893  0.3819
16934TIP3    H272218   2.969   0.942   6.085  0.0013 -0.4314 -1.6035
16935TIP3   OH272219   3.775   0.692   4.116 -0.5710 -0.0972  0.3749
16935TIP3    H172220   3.718   0.617   4.135  0.3362 -1.4703 -1.8869
16935TIP3    H272221   3.854   0.653   4.078 -0.6313  2.0281 -2.2815
16936TIP3   OH272222   5.730   2.731   1.769 -0.1687 -0.4979  0.0144
16936TIP3    H172223   5.772   2.734   1.683  0.1903  2.7840  0.1916
16936TIP3    H272224   5.785   2.785   1.825 -2.3044  0.4508  1.3390
16937TIP3   OH272225   5.837   3.181   3.863  0.1940  0.5747 -0.4276
16937TIP3    H172226   5.839   3.089   3.888  0.5726  0.7436  0.1810
16937TIP3    H272227   5.928   3.204   3.848  0.2037  1.1108  0.4130
16938TIP3   OH272228   4.762   1.933   2.622 -0.0063  0.0887 -0.0130
16938TIP3    H172229   4.804   1.988   2.687  0.4628 -0.1344 -0.1263
16938TIP3    H272230   4.781   1.843   2.650 -0.4000 -0.0167 -0.0680
16939TIP3   OH272231   4.015   7.130  13.875  0.3020  0.0781 -0.0818
16939TIP3    H172232   4.000   7.039  13.901  4.6449 -0.3001  1.9057
16939TIP3    H272233   4.047   7.125  13.786 -0.8784 -0.1080 -0.5189
16940TIP3   OH272234   0.541   7.114   0.789  0.1028 -0.4727  0.3092
16940TIP3    H172235   0.528   7.202   0.753  0.3092 -0.6457 -0.1877
16940TIP3    H272236   0.526   7.125   0.883 -1.9646 -0.3070  0.0130
16941TIP3   OH272237   1.070   5.534   1.462 -0.3051 -0.5198  0.0831
16941TIP3    H172238   0.984   5.562   1.430 -0.5896 -1.3926  0.0749
16941TIP3    H272239   1.055   5.450   1.504  0.6613 -1.0283 -0.5336
16942TIP3   OH272240   5.581   4.211   5.525  0.5073  0.6278  0.6386
16942TIP3    H172241   5.542   4.124   5.538  0.5587  0.5169  0.0787
16942TIP3    H272242   5.535   4.267   5.587 -0.5333  0.4873  0.0329
16943TIP3   OH272243   1.640   1.628   1.982  0.5138 -0.4543 -0.4333
16943TIP3    H172244   1.556   1.667   2.009  0.8470  0.8023 -1.1481
16943TIP3    H272245   1.677   1.595   2.063 -0.4513 -0.5791 -0.0250
16944TIP3   OH272246   4.233   7.149   1.716  0.7401 -0.1215 -0.6237
16944TIP3    H172247   4.273   7.069   1.751  0.7152  0.7155  1.5107
16944TIP3    H272248   4.247   7.215   1.785 -1.1831  1.1343 -1.3327
16945TIP3   OH272249   7.015   0.895   5.176  0.0258 -0.2096 -0.4711
16945TIP3    H172250   7.001   0.984   5.144  0.2129 -0.1586 -0.4178
16945TIP3    H272251   7.016   0.904   5.271  1.0416 -0.0964 -0.4708
16946TIP3   OH272252   1.140   6.938   0.346  0.4501  0.2449 -0.0202
16946TIP3    H172253   1.117   6.964   0.257 -2.0781 -1.0715  0.1531
16946TIP3    H272254   1.171   6.848   0.338 -0.5827 -0.1688  0.4981
16947TIP3   OH272255   6.008   3.862   2.859 -0.0536 -0.3748 -0.6252
16947TIP3    H172256   6.007   3.855   2.954  1.2345 -1.2883 -0.6420
16947TIP3    H272257   6.018   3.956   2.842  1.1278 -0.3174  0.2041
16948TIP3   OH272258   1.392   1.282   0.977  0.0328 -0.7042 -0.2847
16948TIP3    H172259   1.390   1.371   0.942 -1.7638 -0.1578  1.0647
16948TIP3    H272260   1.485   1.258   0.975  0.5508  1.1545 -0.7589
16949TIP3   OH272261   6.705   4.132   5.004  0.0707  0.2428  0.3938
16949TIP3    H172262   6.737   4.139   4.914 -0.2825  2.2229  0.3916
16949TIP3    H272263   6.611   4.114   4.995  0.3826 -1.6286  0.4105
16950TIP3   OH272264   5.541   5.943   1.026 -0.3146  0.5724  0.4338
16950TIP3    H172265   5.451   5.940   1.058 -0.3359  0.0333  0.3345
16950TIP3    H272266   5.594   5.913   1.100 -0.1972  1.0875  0.5595
16951TIP3   OH272267   5.710   2.825   4.280 -0.2335 -0.5788  0.2018
16951TIP3    H172268   5.732   2.904   4.231  1.0389 -0.5751  0.7438
16951TIP3    H272269   5.763   2.830   4.359  0.7148 -2.5002 -0.2493
16952TIP3   OH272270   1.629   2.408   3.409 -0.4698  0.4965  0.1700
16952TIP3    H172271   1.648   2.443   3.322 -1.3210  2.9735  0.8900
16952TIP3    H272272   1.537   2.382   3.405 -0.1930 -0.4969  0.0195
16953TIP3   OH272273   1.240   1.638   3.253 -0.1647  0.0948 -0.1608
16953TIP3    H172274   1.331   1.612   3.269 -0.3035 -0.6842 -0.5807
16953TIP3    H272275   1.230   1.721   3.300  0.4836 -0.2958  0.6917
16954TIP3   OH272276   5.359   0.107   2.679 -0.5531 -0.1370  0.7711
16954TIP3    H172277   5.295   0.061   2.733 -1.0722  0.1589  0.4178
16954TIP3    H272278   5.409   0.038   2.637 -0.0414 -0.3734  1.7418
16955TIP3   OH272279   2.866   1.533   4.458  0.5371  0.0517 -0.4846
16955TIP3    H172280   2.798   1.599   4.446  0.3831 -0.3819 -2.4951
16955TIP3    H272281   2.824   1.451   4.431  1.2622 -0.5546  0.1975
16956TIP3   OH272282   1.134   3.570  15.172 -0.0814  0.0053 -0.1153
16956TIP3    H172283   1.148   3.529  15.086  0.3327  0.4641 -0.2748
16956TIP3    H272284   1.214   3.550  15.221 -1.0990 -1.8952  0.8513
16957TIP3   OH272285   6.081   3.903   4.518 -0.1298 -0.3375 -0.0443
16957TIP3    H172286   6.058   3.988   4.556  0.6827  0.0490 -0.3957
16957TIP3    H272287   6.020   3.892   4.445  2.5207  2.0813 -2.9271
16958TIP3   OH272288   2.494   0.658   3.023  0.1875 -0.6103 -0.4941
16958TIP3    H172289   2.476   0.590   3.087  1.4088 -0.8476 -0.3763
16958TIP3    H272290   2.573   0.628   2.978 -1.0236 -0.8116 -2.6276
16959TIP3   OH272291   3.882   0.568   1.263 -0.3010 -0.1835 -0.1325
16959TIP3    H172292   3.926   0.649   1.293 -0.1956 -0.3576  0.1903
16959TIP3    H272293   3.949   0.522   1.213  0.0716 -0.7188  0.8369
16960TIP3   OH272294   6.131   4.095  15.237 -0.1004  0.2268  0.6537
16960TIP3    H172295   6.184   4.019  15.213  1.7640  1.1851  1.4259
16960TIP3    H272296   6.064   4.061  15.295 -0.6923 -1.1305 -0.7810
16961TIP3   OH272297   0.308   5.770   2.517 -0.0784 -1.0462  0.0921
16961TIP3    H172298   0.263   5.772   2.433  0.8215  0.0781 -0.3933
16961TIP3    H272299   0.248   5.813   2.578  0.6538  1.3983 -0.7699
16962TIP3   OH272300   5.257   6.427   4.222 -0.3173  0.2250  0.0666
16962TIP3    H172301   5.316   6.448   4.149  0.5814  1.2329  1.0428
16962TIP3    H272302   5.277   6.494   4.288 -2.5569  0.5862  0.4343
16963TIP3   OH272303   3.389   0.198   1.045 -0.0625  0.8670  0.2256
16963TIP3    H172304   3.305   0.234   1.018 -0.9834 -1.9454 -1.0113
16963TIP3    H272305   3.389   0.208   1.140 -3.7025 -2.4144  0.8510
16964TIP3   OH272306   4.221   6.406   3.939  0.2609  0.0226  0.0453
16964TIP3    H172307   4.248   6.340   3.876  1.2581  0.0807  0.4010
16964TIP3    H272308   4.141   6.370   3.978  1.0116 -1.1809  0.5324
16965TIP3   OH272309   2.611   1.529   4.061  0.0674  0.0093  0.1561
16965TIP3    H172310   2.557   1.575   3.997  0.7908  1.5737  0.6101
16965TIP3    H272311   2.574   1.553   4.146 -0.3825 -1.3903  0.3890
16966TIP3   OH272312   4.062   4.193   5.133 -0.0909  0.3353 -0.4130
16966TIP3    H172313   4.014   4.159   5.209  0.8506 -2.1242 -0.8295
16966TIP3    H272314   4.151   4.205   5.165  0.0883  0.2603 -0.8852
16967TIP3   OH272315   1.580   0.272  14.248 -0.5989  0.2344  0.1014
16967TIP3    H172316   1.596   0.320  14.167 -1.3004  0.6000  0.1655
16967TIP3    H272317   1.627   0.321  14.315  0.1696 -0.1959 -0.1100
16968TIP3   OH272318   1.134   5.041   2.338  0.1973 -0.0332 -0.0639
16968TIP3    H172319   1.092   5.114   2.383  0.3200  0.6961 -1.0842
16968TIP3    H272320   1.065   4.975   2.329 -0.4339  0.6908 -0.7156
16969TIP3   OH272321   4.976   5.031   0.697  0.1454 -0.1359  0.3690
16969TIP3    H172322   5.037   5.093   0.657  0.4388 -2.1151 -2.5728
16969TIP3    H272323   5.032   4.970   0.745  0.3069 -0.6157 -0.4082
16970TIP3   OH272324   5.632   6.059   4.084 -0.1276 -0.0280 -0.3711
16970TIP3    H172325   5.667   6.011   4.159  2.0591 -0.7518 -1.7723
16970TIP3    H272326   5.557   6.006   4.055 -0.0733 -0.5350  0.3680
16971TIP3   OH272327   3.865   2.001   4.594 -0.3614 -0.1520  0.4281
16971TIP3    H172328   3.842   2.060   4.666 -1.2939 -0.8139  0.7015
16971TIP3    H272329   3.934   1.945   4.630 -1.0137 -0.6614  0.9182
16972TIP3   OH272330   5.066   0.481   3.220 -0.1376 -0.3014 -0.0746
16972TIP3    H172331   5.110   0.463   3.136 -0.3178  0.5202 -0.3549
16972TIP3    H272332   5.035   0.571   3.212 -1.5187 -0.7142  0.2822
16973TIP3   OH272333   5.687   6.024   3.065 -0.1516 -0.2448  0.3872
16973TIP3    H172334   5.597   6.049   3.089 -0.3727  1.2794 -1.6727
16973TIP3    H272335   5.742   6.089   3.108 -0.3470  0.8597 -0.9412
16974TIP3   OH272336   2.795   1.211   4.406  0.4657  0.5333  0.1147
16974TIP3    H172337   2.764   1.257   4.327 -1.5561 -1.5975 -0.4313
16974TIP3    H272338   2.823   1.126   4.374 -0.6683 -0.4826  1.7075
16975TIP3   OH272339   2.842   2.792   1.586 -0.0207 -0.5950 -0.3628
16975TIP3    H172340   2.750   2.778   1.607 -0.3557 -1.1951 -2.0844
16975TIP3    H272341   2.846   2.787   1.491  1.4965  1.2890 -0.4545
16976TIP3   OH272342   0.299   2.179  13.188 -0.4558 -0.3176  0.7158
16976TIP3    H172343   0.267   2.211  13.103  0.9816 -1.2395 -0.2218
16976TIP3    H272344   0.378   2.228  13.205  0.6386 -1.8389  0.2624
16977TIP3   OH272345   5.147   2.236  11.451 -0.4954  0.1435 -0.6221
16977TIP3    H172346   5.134   2.324  11.487  0.4778  0.3685 -0.8074
16977TIP3    H272347   5.184   2.186  11.523  0.7256  0.3905 -1.0597
16978TIP3   OH272348   3.461   3.081   3.396  0.1161 -0.4357  0.4366
16978TIP3    H172349   3.465   3.159   3.452  1.4217  0.1675 -0.4523
16978TIP3    H272350   3.478   3.008   3.455 -0.0038  0.0526  1.0898
16979TIP3   OH272351   6.565   2.324   4.419  0.5381 -0.1542 -0.4890
16979TIP3    H172352   6.634   2.378   4.381 -0.0003 -0.4386 -1.9308
16979TIP3    H272353   6.489   2.340   4.363  0.0047 -1.3882 -0.1413
16980TIP3   OH272354   2.547   1.361   3.864 -0.6317  0.4150  0.7955
16980TIP3    H172355   2.491   1.332   3.936 -1.0526 -0.1140  0.2600
16980TIP3    H272356   2.559   1.455   3.879 -1.0439  0.3825  1.3340
16981TIP3   OH272357   1.768   3.574  14.747 -0.3716  0.1999  0.2648
16981TIP3    H172358   1.721   3.652  14.777  0.8222  1.7233 -1.5839
16981TIP3    H272359   1.716   3.541  14.675 -0.8853 -0.7788  1.0593
16982TIP3   OH272360   3.679   3.715  13.534 -0.6372 -0.6291  0.3574
16982TIP3    H172361   3.702   3.725  13.442 -0.7981  1.6826  0.4951
16982TIP3    H272362   3.750   3.759  13.581 -0.6637 -1.5931  1.3338
16983TIP3   OH272363   6.377   5.585  11.276  0.1269  0.0981 -0.3776
16983TIP3    H172364   6.383   5.539  11.360 -2.0873  1.0564  0.4022
16983TIP3    H272365   6.424   5.530  11.214 -1.5351 -2.7339  0.6840
16984TIP3   OH272366   0.177   1.407   3.550 -0.0844  0.6942  0.0436
16984TIP3    H172367   0.134   1.328   3.517  1.2566  0.1043 -0.3510
16984TIP3    H272368   0.114   1.478   3.533 -0.5711 -0.0208 -1.2202
16985TIP3   OH272369   3.261   5.524   3.316  0.1938  0.2340 -0.0145
16985TIP3    H172370   3.323   5.463   3.357  0.9194  0.6560 -0.4505
16985TIP3    H272371   3.178   5.478   3.316  0.7817 -0.8729 -0.5614
16986TIP3   OH272372   0.692   0.084   4.759  0.2158 -0.2676  0.6729
16986TIP3    H172373   0.600   0.105   4.772  0.2388  0.2493  0.0635
16986TIP3    H272374   0.694  -0.011   4.751  0.0841 -0.5851  3.3144
16987TIP3   OH272375   7.084   0.409   4.922 -0.5411  0.0400 -0.4675
16987TIP3    H172376   7.123   0.496   4.912 -1.2905  0.4504  0.0400
16987TIP3    H272377   7.144   0.350   4.877 -0.3605  0.9082 -1.3859
16988TIP3   OH272378   4.767   0.952   5.066  0.0095  0.6169 -0.3204
16988TIP3    H172379   4.684   0.905   5.056 -0.8804  2.0742 -0.0821
16988TIP3    H272380   4.778   0.999   4.983  1.2136 -0.4561 -0.8040
16989TIP3   OH272381   5.155   0.684  11.503  0.7181 -0.0925  0.4943
16989TIP3    H172382   5.179   0.775  11.485  1.8047 -0.2421  1.1077
16989TIP3    H272383   5.177   0.636  11.423 -0.1685  0.2214  0.0474
16990TIP3   OH272384   7.105   4.570   1.901  0.1340 -0.8621 -0.0307
16990TIP3    H172385   7.077   4.615   1.821 -0.2388 -4.6323 -2.2866
16990TIP3    H272386   7.200   4.580   1.902 -0.0313  1.0397  0.3551
16991TIP3   OH272387   3.875   3.690   2.831  0.7834  0.3629 -1.0746
16991TIP3    H172388   3.949   3.710   2.887  0.6912  0.8600 -1.1260
16991TIP3    H272389   3.910   3.630   2.765  0.8107 -0.4850 -0.3017
16992TIP3   OH272390   1.429   6.038   2.180  0.3164 -0.1452  0.0543
16992TIP3    H172391   1.478   5.965   2.142 -0.4702 -0.9683  0.5594
16992TIP3    H272392   1.337   6.011   2.173  0.0222  0.7265  0.4024
16993TIP3   OH272393   3.173   6.883   4.590 -0.0747  0.2317  0.2167
16993TIP3    H172394   3.127   6.963   4.563 -1.3334  0.2309  2.1045
16993TIP3    H272395   3.105   6.830   4.632  1.1686 -0.8738  0.8924
16994TIP3   OH272396   5.061   2.877   5.239 -0.2824  0.0689 -0.3324
16994TIP3    H172397   5.094   2.873   5.329  0.0190  0.4588 -0.4213
16994TIP3    H272398   4.967   2.866   5.247 -0.2522  0.0800  0.0328
16995TIP3   OH272399   0.345   7.025   5.868  0.1084 -0.1609  0.2302
16995TIP3    H172400   0.406   7.053   5.935  0.7986 -0.2691 -0.3375
16995TIP3    H272401   0.281   6.971   5.914  0.0635  0.4821  0.9386
16996TIP3   OH272402   5.467   6.240   1.332 -0.7844 -0.5097  0.2767
16996TIP3    H172403   5.541   6.258   1.390 -0.6708 -0.7834  0.2179
16996TIP3    H272404   5.394   6.289   1.370 -0.6052 -0.3379  0.4047
16997TIP3   OH272405   1.711   2.404   5.049 -0.3780  0.1826 -0.3336
16997TIP3    H172406   1.742   2.324   5.091 -0.5301 -0.1798 -0.9051
16997TIP3    H272407   1.620   2.385   5.026 -1.5514  1.6711  2.4963
16998TIP3   OH272408   0.858   1.506   3.437 -0.3540 -0.0395  0.2373
16998TIP3    H172409   0.845   1.448   3.512  3.6979 -1.1561  0.3051
16998TIP3    H272410   0.880   1.448   3.364 -0.4039  1.2256 -0.8257
16999TIP3   OH272411   2.476   3.421   4.133  0.0484 -0.6762 -0.2509
16999TIP3    H172412   2.564   3.448   4.105 -0.5307  1.3766 -0.2574
16999TIP3    H272413   2.438   3.382   4.055  0.3732 -0.0009 -0.7654
17000TIP3   OH272414   3.536   1.688   4.629  0.7029 -0.1456  0.2517
17000TIP3    H172415   3.463   1.649   4.677  1.4888 -0.1453  1.4993
17000TIP3    H272416   3.610   1.630   4.646  1.3157  0.5776  0.1139
17001TIP3   OH272417   0.457   6.093   0.640  0.0587  0.7737 -0.7149
17001TIP3    H172418   0.421   6.181   0.633 -1.1491  0.1849 -2.3632
17001TIP3    H272419   0.386   6.040   0.677  1.3019  0.7413  1.8543
17002TIP3   OH272420   0.153   5.235   3.481 -0.3731  0.0626 -0.4100
17002TIP3    H172421   0.128   5.233   3.389 -0.6897 -0.2266 -0.3187
17002TIP3    H272422   0.109   5.312   3.516 -0.1940  0.2133 -0.5192
17003TIP3   OH272423   1.044   0.334   5.010  0.7763  0.3157  0.7309
17003TIP3    H172424   0.980   0.319   5.080  1.1391  0.2241  1.0468
17003TIP3    H272425   1.038   0.257   4.954 -0.9963  1.2893 -0.5250
17004TIP3   OH272426   0.760   1.040   1.719  0.0180 -0.3462 -0.0677
17004TIP3    H172427   0.670   1.061   1.694 -0.2807  1.0476  1.9162
17004TIP3    H272428   0.810   1.118   1.696  0.0441  0.2621  1.8146
17005TIP3   OH272429   3.663   0.326   1.805  0.0289 -0.3755  0.4510
17005TIP3    H172430   3.731   0.341   1.871 -0.0823 -0.1297  0.5126
17005TIP3    H272431   3.692   0.249   1.757  1.0558  0.5112 -0.4227
17006TIP3   OH272432   3.357   1.508   3.538  0.0107 -0.1192 -0.3985
17006TIP3    H172433   3.322   1.558   3.465 -1.2465  0.4648  0.5538
17006TIP3    H272434   3.285   1.504   3.601  0.7211 -1.4656  0.3855
17007TIP3   OH272435   2.402   5.740   2.499  0.2438 -0.0935 -0.4365
17007TIP3    H172436   2.343   5.800   2.545 -0.8774 -0.4429 -1.3842
17007TIP3    H272437   2.468   5.798   2.460 -0.6286  0.5088 -1.0552
17008TIP3   OH272438   0.290   4.723   5.710 -0.3495 -0.4580  0.1364
17008TIP3    H172439   0.319   4.760   5.793 -1.1118  0.8031 -0.1373
17008TIP3    H272440   0.319   4.632   5.713  0.3601 -0.2117  1.4216
17009TIP3   OH272441   5.423   2.628  12.529 -0.0941 -0.1982  0.2287
17009TIP3    H172442   5.481   2.552  12.527  0.0115 -0.1386  0.8170
17009TIP3    H272443   5.460   2.685  12.596 -0.7332 -0.0845  0.4935
17010TIP3   OH272444   7.041   0.213   0.329  0.2687 -0.2548  0.0009
17010TIP3    H172445   7.128   0.252   0.336 -0.6462  1.6139  2.7813
17010TIP3    H272446   7.016   0.227   0.237  1.5592  2.3965 -0.0508
17011TIP3   OH272447   3.782   6.699   5.811 -0.2209 -0.5435 -0.1798
17011TIP3    H172448   3.755   6.633   5.747  3.1808  0.6158 -3.1253
17011TIP3    H272449   3.839   6.652   5.872  0.1853 -0.8463 -0.7823
17012TIP3   OH272450   0.358   4.589  14.349  0.0412 -0.9939  0.0621
17012TIP3    H172451   0.373   4.538  14.428  0.2938 -1.9575 -0.5800
17012TIP3    H272452   0.382   4.530  14.278  2.5718  0.7403 -0.6759
17013TIP3   OH272453   1.870   5.093  13.958 -0.0606 -0.0651 -0.7306
17013TIP3    H172454   1.823   5.010  13.950  1.1294 -0.6924 -1.5113
17013TIP3    H272455   1.802   5.160  13.958 -1.2040 -1.0937  1.7946
17014TIP3   OH272456   5.107   2.890   2.379  0.0003  0.2944  0.3257
17014TIP3    H172457   5.045   2.902   2.308  0.7732  0.1290 -0.3952
17014TIP3    H272458   5.165   2.966   2.374  0.6135 -0.1690  0.1867
17015TIP3   OH272459   2.607   1.825   0.658  0.0738 -0.2890 -0.6306
17015TIP3    H172460   2.678   1.885   0.635 -1.1697  1.2057 -0.7496
17015TIP3    H272461   2.639   1.739   0.633  1.8993  0.3252 -0.5124
17016TIP3   OH272462   1.315   3.325   0.023  0.5962 -0.1596 -0.1507
17016TIP3    H172463   1.387   3.317   0.085  0.0707  0.5645  0.5730
17016TIP3    H272464   1.286   3.235   0.008  1.1346 -0.3899  0.1617
17017TIP3   OH272465   4.152   1.872   3.399  0.7267 -0.5344  0.0292
17017TIP3    H172466   4.231   1.910   3.438  0.4651  0.6326 -0.5449
17017TIP3    H272467   4.114   1.818   3.469  1.8352 -0.8270  0.4199
17018TIP3   OH272468   5.785   5.475   1.808  0.0103  0.0629  0.0344
17018TIP3    H172469   5.696   5.507   1.794  0.0968  0.6973  0.8466
17018TIP3    H272470   5.779   5.380   1.795 -0.2120  0.3766 -2.6070
17019TIP3   OH272471   3.523   6.677   5.339 -0.0165 -0.1941 -0.3645
17019TIP3    H172472   3.449   6.733   5.364  0.1091 -0.9052  1.8787
17019TIP3    H272473   3.589   6.738   5.306 -0.2936  0.9007  0.9789
17020TIP3   OH272474   0.700   2.738  13.863 -0.5796  0.5494 -0.7220
17020TIP3    H172475   0.672   2.742  13.772 -2.2740  0.2598 -0.2449
17020TIP3    H272476   0.628   2.776  13.913  1.0501  2.3474  0.4058
17021TIP3   OH272477   3.225   0.772   5.930  0.3847  0.2558 -0.0387
17021TIP3    H172478   3.184   0.712   5.868  0.9769 -0.5416  0.3168
17021TIP3    H272479   3.153   0.823   5.967 -0.1032 -0.0910 -0.5028
17022TIP3   OH272480   3.180   0.312   3.108 -0.3661 -0.2018  0.5186
17022TIP3    H172481   3.250   0.364   3.149 -1.0444  1.0095  0.1740
17022TIP3    H272482   3.157   0.247   3.175  0.0247  0.3815  1.2364
17023TIP3   OH272483   2.036   0.931   1.227 -0.1547  0.6357 -0.1043
17023TIP3    H172484   2.102   0.869   1.259  1.1512  0.6161 -2.6432
17023TIP3    H272485   1.972   0.876   1.181  0.8820  1.0714 -2.1589
17024TIP3   OH272486   6.226   6.595  15.400  0.0638  0.2049  0.3229
17024TIP3    H172487   6.238   6.619  15.308 -1.7602 -1.0230 -0.3037
17024TIP3    H272488   6.214   6.678  15.446  2.2865  0.9228 -0.2843
17025TIP3   OH272489   5.258   6.226  12.259  0.1031 -0.5433 -0.0292
17025TIP3    H172490   5.342   6.218  12.215  0.7362  0.8780  0.8403
17025TIP3    H272491   5.269   6.177  12.341  0.3290  0.2040  0.3944
17026TIP3   OH272492   6.871   5.848  14.767  0.1752  0.0522 -0.1129
17026TIP3    H172493   6.841   5.935  14.795 -1.0812  0.0439 -1.3082
17026TIP3    H272494   6.891   5.858  14.674  2.9404 -0.2472  0.3611
17027TIP3   OH272495   6.496   2.142  14.884 -0.3442  0.1014  0.1468
17027TIP3    H172496   6.578   2.095  14.897 -1.0517 -0.9210  1.0762
17027TIP3    H272497   6.440   2.114  14.956 -2.0710 -0.4707 -1.3347
17028TIP3   OH272498   2.206   6.665   5.259 -0.5988  0.3820  0.3471
17028TIP3    H172499   2.186   6.584   5.305  1.7909 -0.0035  0.8537
17028TIP3    H272500   2.209   6.640   5.166  0.7406 -0.3202  0.5430
17029TIP3   OH272501   0.837   0.450   3.643 -0.0815 -0.0972 -0.1920
17029TIP3    H172502   0.787   0.531   3.628 -0.2413 -0.5770 -2.4828
17029TIP3    H272503   0.888   0.469   3.722  0.4507  2.5378 -1.0536
17030TIP3   OH272504   7.089   1.197   1.838  0.0672 -0.1556 -0.7368
17030TIP3    H172505   6.996   1.212   1.822  0.0634  0.7823  0.0392
17030TIP3    H272506   7.133   1.266   1.788  0.3015 -0.1547 -0.5314
17031TIP3   OH272507   3.754   0.091   1.665 -0.3334  0.5792 -0.3119
17031TIP3    H172508   3.694   0.112   1.594  1.1911 -1.0018 -2.1546
17031TIP3    H272509   3.839   0.081   1.623  0.7698  0.2905  1.8472
17032TIP3   OH272510   4.739   5.167   4.886 -0.4845  0.3927  0.5168
17032TIP3    H172511   4.775   5.161   4.975  0.9067  1.5192  0.0824
17032TIP3    H272512   4.726   5.077   4.859 -1.4224  0.0404  2.0491
17033TIP3   OH272513   1.023   2.728   3.870  0.0203 -0.2146  0.0805
17033TIP3    H172514   0.952   2.784   3.838  0.8544  0.6752 -0.2903
17033TIP3    H272515   1.080   2.716   3.794  2.0301  1.9125  1.1120
17034TIP3   OH272516   2.732   5.784   0.461 -0.8201 -0.6154 -0.2675
17034TIP3    H172517   2.684   5.864   0.478 -1.7129 -1.0780 -0.5743
17034TIP3    H272518   2.785   5.803   0.384 -0.7524 -0.2065 -0.1195
17035TIP3   OH272519   5.868   6.792   3.584  0.0479 -0.5651  0.1256
17035TIP3    H172520   5.959   6.783   3.556  1.2421  2.5582  2.4461
17035TIP3    H272521   5.859   6.731   3.658  0.9466  0.5397  1.1832
17036TIP3   OH272522   0.955   6.990   5.054 -0.3637 -0.7392  0.3275
17036TIP3    H172523   1.032   7.013   5.001 -2.5137  1.8073 -1.9596
17036TIP3    H272524   0.959   7.049   5.129 -0.0447 -0.6705  0.2582
17037TIP3   OH272525   4.326   2.505   2.154 -0.0470  0.1587 -0.6217
17037TIP3    H172526   4.306   2.425   2.203  0.3494  2.6403  4.1503
17037TIP3    H272527   4.241   2.539   2.127 -0.5794  0.1413  0.9554
17038TIP3   OH272528   5.456   4.834   5.848  0.3126 -0.0150 -0.4680
17038TIP3    H172529   5.542   4.809   5.812  0.4666  0.4198 -0.4102
17038TIP3    H272530   5.427   4.906   5.792  0.3046  0.3044 -0.0566
17039TIP3   OH272531   2.779   3.806   2.377 -0.3038 -0.0435 -0.3377
17039TIP3    H172532   2.718   3.866   2.334  0.6059  1.1220 -0.0574
17039TIP3    H272533   2.774   3.725   2.326 -0.4427  0.7617 -1.6475
17040TIP3   OH272534   5.856   5.216   0.778  0.2415 -0.5679 -0.1734
17040TIP3    H172535   5.892   5.184   0.696  0.8846 -3.9269  1.2546
17040TIP3    H272536   5.932   5.223   0.836 -0.4775 -0.3547  0.7608
17041TIP3   OH272537   6.334   2.549   2.933  0.6214 -0.4536 -0.7783
17041TIP3    H172538   6.323   2.637   2.970  3.2217 -0.8974  1.3357
17041TIP3    H272539   6.279   2.550   2.854 -0.8463  2.4396  0.1048
17042TIP3   OH272540   6.551   0.100   0.525  0.3863 -0.3499 -0.0134
17042TIP3    H172541   6.493   0.086   0.600 -0.1711  0.0674 -0.3555
17042TIP3    H272542   6.515   0.177   0.482  1.4901  0.2122  0.0413
17043TIP3   OH272543   4.801   6.936   0.117 -0.2543  0.0654  0.3252
17043TIP3    H172544   4.792   6.920   0.023  1.1579 -1.4400  0.3906
17043TIP3    H272545   4.852   7.016   0.124  0.1260 -0.1216 -0.2238
17044TIP3   OH272546   2.308   0.319   5.032 -0.9816  0.0119  0.1684
17044TIP3    H172547   2.378   0.312   4.967 -0.9441 -0.0855  0.2197
17044TIP3    H272548   2.342   0.273   5.109 -1.1928 -0.2321  0.1161
17045TIP3   OH272549   0.151   6.041   0.048  0.1133  0.0401 -0.2671
17045TIP3    H172550   0.183   5.963   0.092 -0.6061  0.3188  0.7949
17045TIP3    H272551   0.155   6.020  -0.045  0.8427 -0.8901 -0.0344
17046TIP3   OH272552   3.145   1.153  12.194  0.0794 -0.2671  0.7372
17046TIP3    H172553   3.081   1.223  12.203  0.5387  0.5068 -1.3315
17046TIP3    H272554   3.173   1.158  12.102  1.8906 -1.6277  1.1539
17047TIP3   OH272555   6.771   1.194  10.539 -0.1981 -0.2474  0.4747
17047TIP3    H172556   6.832   1.144  10.593  0.4061  0.6388  0.6319
17047TIP3    H272557   6.731   1.129  10.482 -1.1746 -1.2863  2.2552
17048TIP3   OH272558   1.702   3.062  14.838  0.1938  0.0990 -0.1825
17048TIP3    H172559   1.614   3.097  14.825 -0.0633 -0.6803 -0.6181
17048TIP3    H272560   1.698   2.973  14.803  0.9319 -0.2330  0.5335
17049TIP3   OH272561   0.530   2.061   4.483 -0.1336 -0.0558  0.3044
17049TIP3    H172562   0.435   2.060   4.482 -0.2051 -2.5916  1.9283
17049TIP3    H272563   0.555   1.975   4.450  1.6910  1.0639 -1.4606
17050TIP3   OH272564   5.531   0.376   1.026  0.1688 -0.3696  0.0826
17050TIP3    H172565   5.601   0.361   1.089 -0.9591 -0.5118  1.3588
17050TIP3    H272566   5.558   0.329   0.948  2.0904  0.6597  0.0712
17051TIP3   OH272567   6.842   3.577   3.321 -0.1342 -0.2927 -0.8949
17051TIP3    H172568   6.765   3.563   3.376  0.3117  1.9853  0.4115
17051TIP3    H272569   6.916   3.557   3.377  0.2875 -0.6259 -1.5555
17052TIP3   OH272570   3.700   4.896   1.109  0.1628 -0.4280  0.1133
17052TIP3    H172571   3.689   4.984   1.144  1.2423  0.3836 -1.5011
17052TIP3    H272572   3.614   4.871   1.077 -0.1079  0.0903  0.4341
17053TIP3   OH272573   6.055   7.021   1.051 -0.5926  0.3106  0.4339
17053TIP3    H172574   6.139   6.976   1.047  0.5779  2.4365 -1.9218
17053TIP3    H272575   6.072   7.098   1.105 -0.6655  1.3007 -0.9046
17054TIP3   OH272576   0.053   0.774   3.376 -0.1570 -0.8663  0.2413
17054TIP3    H172577   0.108   0.839   3.332  1.0837 -0.1894  2.5941
17054TIP3    H272578  -0.037   0.801   3.358  0.3257  0.1552 -0.7261
17055TIP3   OH272579   5.480   5.044   4.716 -0.8409 -0.4212 -0.6728
17055TIP3    H172580   5.446   4.992   4.643 -1.8493 -0.8730  0.0972
17055TIP3    H272581   5.575   5.038   4.707 -0.9506 -1.2156 -1.4369
17056TIP3   OH272582   5.155   4.174   3.164 -0.1228  0.1266  0.4926
17056TIP3    H172583   5.143   4.113   3.091 -0.2404 -0.2044  0.7881
17056TIP3    H272584   5.159   4.119   3.242 -0.2346  0.4946  0.7629
17057TIP3   OH272585   2.780   0.719   4.837 -0.5898  0.3767  0.3732
17057TIP3    H172586   2.787   0.641   4.782 -1.0178  1.0038 -0.6188
17057TIP3    H272587   2.754   0.686   4.923 -0.1964 -0.6111  0.1275
17058TIP3   OH272588   7.143   2.289   0.497 -0.5557  0.3299  0.4907
17058TIP3    H172589   7.055   2.255   0.514 -0.3234 -0.9162 -0.6558
17058TIP3    H272590   7.173   2.241   0.420  0.7939  1.3748  0.3306
17059TIP3   OH272591   2.326   2.027   4.360 -0.3493  0.6151  0.1453
17059TIP3    H172592   2.313   2.054   4.270 -1.5582  2.0929  0.7255
17059TIP3    H272593   2.288   1.939   4.365  2.2604 -0.7537 -1.3948
17060TIP3   OH272594   2.391   4.912   4.612 -0.0229  0.1293  0.0728
17060TIP3    H172595   2.310   4.925   4.661 -1.6822 -1.2143 -2.1506
17060TIP3    H272596   2.452   4.976   4.649 -1.6143  0.2364  2.7612
17061TIP3   OH272597   2.619   4.759   3.297  0.5501  0.2062 -0.4660
17061TIP3    H172598   2.527   4.750   3.320  0.6187 -1.5760 -0.8031
17061TIP3    H272599   2.646   4.841   3.340 -1.2586  0.9615 -0.6758
17062TIP3   OH272600   5.566   3.433   4.661  0.5543 -0.0707  0.4517
17062TIP3    H172601   5.511   3.401   4.589  1.2680  0.3706 -0.3116
17062TIP3    H272602   5.566   3.362   4.725 -0.0680 -0.4898 -0.0057
17063TIP3   OH272603   2.217   2.056   5.470  0.4463 -0.9184 -0.2269
17063TIP3    H172604   2.280   2.111   5.424  0.1289 -0.2599  0.1181
17063TIP3    H272605   2.270   1.982   5.503  1.3637  0.3735  1.3485
17064TIP3   OH272606   0.172   6.966   4.503  0.2609 -0.1375 -0.0942
17064TIP3    H172607   0.154   6.988   4.594 -0.7168  1.0068 -0.5336
17064TIP3    H272608   0.254   6.917   4.506 -0.1732 -0.8268  1.4751
17065TIP3   OH272609   4.374   5.604   2.220  0.1219  0.0766 -0.0047
17065TIP3    H172610   4.389   5.698   2.211 -0.9528  0.0693 -2.8479
17065TIP3    H272611   4.461   5.566   2.232  0.4369  1.5030  3.4403
17066TIP3   OH272612   1.567   5.731  15.081  0.7364  0.0494  0.2390
17066TIP3    H172613   1.632   5.669  15.048  1.0518 -0.5915  1.9796
17066TIP3    H272614   1.590   5.814  15.040  0.3146 -0.9157 -2.1448
17067TIP3   OH272615   1.133   1.609   1.581 -0.1709 -0.1112 -0.0873
17067TIP3    H172616   1.121   1.528   1.630 -1.4828  0.4163  0.5263
17067TIP3    H272617   1.226   1.610   1.558  0.4414 -0.4827  2.1778
17068TIP3   OH272618   5.794   3.522   3.963  0.0561  0.0966  0.0256
17068TIP3    H172619   5.726   3.472   4.009  0.2509  1.0206  1.3757
17068TIP3    H272620   5.872   3.510   4.016  0.8422 -0.5080 -1.2241
17069TIP3   OH272621   4.831   2.532   5.279 -0.3563  0.0731 -0.7320
17069TIP3    H172622   4.890   2.506   5.350 -1.9188 -0.6050  0.3727
17069TIP3    H272623   4.764   2.464   5.278 -1.7775  1.4367 -1.1394
17070TIP3   OH272624   0.322   1.824   3.835 -0.5728  0.3605  0.3996
17070TIP3    H172625   0.403   1.857   3.873 -0.0609  0.3582 -0.6360
17070TIP3    H272626   0.267   1.800   3.910  0.8119 -0.6637  1.1280
17071TIP3   OH272627   3.824   4.979  13.859 -0.1380 -0.4959 -0.2774
17071TIP3    H172628   3.740   4.998  13.817 -0.4913 -0.7478  0.3123
17071TIP3    H272629   3.882   4.954  13.786 -1.1920 -2.5531 -0.4881
17072TIP3   OH272630   6.919   5.712   0.817  0.2288 -0.0996  0.3228
17072TIP3    H172631   6.889   5.713   0.908  1.6924  1.3132  0.8398
17072TIP3    H272632   6.992   5.650   0.816  0.7693  0.5203  0.3341
17073TIP3   OH272633   2.048   0.587   1.102 -0.1680  0.1938  0.2358
17073TIP3    H172634   1.958   0.590   1.134 -0.2549  1.8436 -0.0972
17073TIP3    H272635   2.042   0.613   1.010  0.5920 -0.2101  0.0639
17074TIP3   OH272636   4.508   4.684   2.500  0.0713 -0.5323  0.7796
17074TIP3    H172637   4.498   4.779   2.504 -1.4741 -0.6568  0.8260
17074TIP3    H272638   4.546   4.667   2.414 -0.5631  0.0900  0.3556
17075TIP3   OH272639   4.566   1.762  15.016 -0.0081  0.3050  0.1407
17075TIP3    H172640   4.550   1.856  15.018 -0.4790  0.2297  0.1119
17075TIP3    H272641   4.646   1.753  14.965  0.0133  0.6878  0.1002
17076TIP3   OH272642   5.232   6.295   9.693  0.2618  0.0655  0.0112
17076TIP3    H172643   5.147   6.255   9.712 -0.4102  2.2588  2.1015
17076TIP3    H272644   5.219   6.339   9.609 -0.6208  0.2351  0.2265
17077TIP3   OH272645   6.383   1.075   1.400  0.1338  0.3183 -0.0630
17077TIP3    H172646   6.453   1.011   1.404 -0.0542  0.1881  2.2487
17077TIP3    H272647   6.421   1.149   1.352  1.1509 -0.5473 -0.6213
17078TIP3   OH272648   1.861   4.977   0.318  0.1425  0.2694 -0.1394
17078TIP3    H172649   1.793   4.910   0.322  1.0437 -0.7266 -0.9513
17078TIP3    H272650   1.861   5.005   0.226  1.0458  0.0129 -0.2283
17079TIP3   OH272651   3.203   6.534   4.726 -0.4684  0.2666  0.2860
17079TIP3    H172652   3.206   6.513   4.632 -1.2208  1.5187 -0.0464
17079TIP3    H272653   3.124   6.491   4.758 -0.6761  0.5474  0.1525
17080TIP3   OH272654   3.366   1.825  14.538 -0.1959  0.7981 -0.1391
17080TIP3    H172655   3.333   1.869  14.616 -0.5653 -0.2785  0.3200
17080TIP3    H272656   3.449   1.786  14.565  1.0339  2.6370 -1.0161
17081TIP3   OH272657   0.917   6.733   1.679  0.1158 -0.1395 -0.1070
17081TIP3    H172658   0.909   6.650   1.727  1.3203  0.6135  1.4696
17081TIP3    H272659   0.976   6.712   1.606  0.0116 -0.7853 -0.0121
17082TIP3   OH272660   4.010   0.582   2.131  0.2328 -0.0138  0.2635
17082TIP3    H172661   3.981   0.674   2.136  0.9099  0.1256  2.1573
17082TIP3    H272662   4.095   0.581   2.174  1.0858 -1.2426 -1.3382
17083TIP3   OH272663   0.933   6.851   2.640 -0.3232 -0.1783 -0.6636
17083TIP3    H172664   0.959   6.913   2.572 -1.3381 -0.5093 -1.3727
17083TIP3    H272665   0.956   6.765   2.603 -1.2711 -0.3879 -0.7754
17084TIP3   OH272666   5.786   3.879  15.063  0.1878  0.8009 -0.3890
17084TIP3    H172667   5.867   3.853  15.107 -1.0330  0.5803  1.8934
17084TIP3    H272668   5.778   3.973  15.082 -0.2377  0.7611 -0.3750
17085TIP3   OH272669   4.577   4.603   5.421  0.0502  0.0895 -0.3860
17085TIP3    H172670   4.656   4.580   5.372  1.2714  2.5508  0.2271
17085TIP3    H272671   4.588   4.563   5.507  0.5628  0.2578 -0.3704
17086TIP3   OH272672   6.701   0.404  13.075  0.2180 -0.1560  0.1784
17086TIP3    H172673   6.792   0.375  13.082 -0.3175 -2.0225  0.0485
17086TIP3    H272674   6.651   0.322  13.068 -1.1983  0.8425 -3.1835
17087TIP3   OH272675   2.318   4.800   2.878 -0.3635 -0.4984 -0.1394
17087TIP3    H172676   2.248   4.761   2.825 -1.3100  0.6667  0.2213
17087TIP3    H272677   2.375   4.843   2.815 -1.6732  1.1782 -0.2427
17088TIP3   OH272678   4.593   4.092  12.167 -0.4226  0.1682  0.2042
17088TIP3    H172679   4.586   4.159  12.234  2.2362 -0.6953  1.4837
17088TIP3    H272680   4.505   4.055  12.161 -1.1652  1.5224  1.8317
17089TIP3   OH272681   0.007   5.784   5.225  0.3104  0.5809 -0.3460
17089TIP3    H172682  -0.084   5.774   5.196  0.1577 -0.9862  0.5580
17089TIP3    H272683   0.027   5.701   5.269  2.7071  0.2370 -1.9028
17090TIP3   OH272684   5.255   3.371   4.891  0.0476  0.1893 -0.3281
17090TIP3    H172685   5.254   3.370   4.796 -0.0386 -1.3233 -0.3234
17090TIP3    H272686   5.298   3.290   4.917 -2.1827 -0.6955  0.9189
17091TIP3   OH272687   5.052   5.286   2.797  0.6128 -0.1732  0.1655
17091TIP3    H172688   5.066   5.286   2.702 -0.0297  0.1050  0.0651
17091TIP3    H272689   5.044   5.379   2.820 -1.4774 -0.2912  0.1297
17092TIP3   OH272690   0.817   4.837   2.858 -0.4504  0.6390  0.0636
17092TIP3    H172691   0.744   4.794   2.903 -1.9994  3.1004  0.0931
17092TIP3    H272692   0.802   4.820   2.765  0.4404 -1.0000  0.1855
17093TIP3   OH272693   0.217   6.285   5.273  0.9128  0.2121  0.8576
17093TIP3    H172694   0.307   6.253   5.267  0.5046 -1.3446  2.5530
17093TIP3    H272695   0.168   6.215   5.315 -1.0260  1.2174  0.4148
17094TIP3   OH272696   0.574   3.845  15.367  0.3650  0.0562 -0.3938
17094TIP3    H172697   0.572   3.893  15.285  0.2920  2.7977  1.0984
17094TIP3    H272698   0.647   3.883  15.416  0.7953 -1.9103  0.6367
17095TIP3   OH272699   3.693   5.567   3.942 -0.0590 -0.8586 -0.0979
17095TIP3    H172700   3.690   5.519   4.025  0.7332  1.7552  1.5915
17095TIP3    H272701   3.620   5.628   3.947  1.1051  0.6240 -0.4026
17096TIP3   OH272702   6.854   4.067   5.210 -0.6832  0.1382  0.0445
17096TIP3    H172703   6.781   4.093   5.153 -1.2312  1.0806  1.1369
17096TIP3    H272704   6.910   4.145   5.214  0.4123 -0.5725 -0.7749
17097TIP3   OH272705   4.198   2.068   6.129 -0.3387  0.5447 -0.4053
17097TIP3    H172706   4.137   2.142   6.134 -2.6088 -1.2021 -0.3117
17097TIP3    H272707   4.202   2.047   6.035 -0.0274  0.5371 -0.3897
17098TIP3   OH272708   0.940   2.047   1.092  0.5993 -0.3186 -0.4331
17098TIP3    H172709   0.914   2.074   1.004 -0.6303  0.1349  0.0497
17098TIP3    H272710   1.031   2.077   1.100  0.3974  0.5402 -1.1832
17099TIP3   OH272711   4.062   6.857   1.093 -0.1756 -0.1193 -0.1907
17099TIP3    H172712   4.012   6.831   1.015 -1.0159  1.4016 -0.1927
17099TIP3    H272713   4.029   6.801   1.163 -0.6996 -0.2663 -0.5491
17100TIP3   OH272714   0.655   3.919  11.825 -0.0048 -0.2367  0.3648
17100TIP3    H172715   0.748   3.914  11.847  0.4261 -1.2236 -1.5084
17100TIP3    H272716   0.640   4.012  11.805  0.5712 -0.0789  0.6439
17101TIP3   OH272717   6.411   4.357   5.059  0.0706 -0.4832 -0.3222
17101TIP3    H172718   6.419   4.267   5.026  2.0360 -0.3586 -0.3383
17101TIP3    H272719   6.431   4.412   4.983 -1.1905 -0.0100 -0.3275
17102TIP3   OH272720   1.143   5.350   5.062  0.2846  0.6579  0.0388
17102TIP3    H172721   1.114   5.426   5.013  3.5665  1.0646 -1.5344
17102TIP3    H272722   1.210   5.383   5.122  0.9185 -0.7898  0.1833
17103TIP3   OH272723   2.968   5.560   4.965  0.2988  0.2204  0.4589
17103TIP3    H172724   2.898   5.626   4.957  1.7945  1.9479  0.8853
17103TIP3    H272725   3.040   5.607   5.005  1.4887 -1.7048  0.6937
17104TIP3   OH272726   0.148   3.905   4.740 -0.1407  0.2786 -0.2229
17104TIP3    H172727   0.142   3.871   4.830 -0.9093 -1.1112 -0.7735
17104TIP3    H272728   0.183   3.832   4.689  1.6911  1.5252 -0.8306
17105TIP3   OH272729   1.140   0.435   4.225 -0.5821 -0.0826  0.2688
17105TIP3    H172730   1.165   0.487   4.302  0.6423 -0.6696  0.3000
17105TIP3    H272731   1.128   0.346   4.259  0.5882 -0.4795 -0.2821
17106TIP3   OH272732   0.440   4.174   0.474  0.2475  0.4493 -0.1591
17106TIP3    H172733   0.515   4.145   0.422 -0.7190 -0.8677 -0.8730
17106TIP3    H272734   0.419   4.100   0.530  0.2019  1.2385  0.8948
17107TIP3   OH272735   6.814   0.760  10.515  0.2281 -0.0261 -0.1583
17107TIP3    H172736   6.758   0.712  10.454 -1.0553  0.7610  0.3745
17107TIP3    H272737   6.864   0.820  10.460  0.1509 -0.3407 -0.5771
17108TIP3   OH272738   0.366   2.845   2.748 -0.6182  0.2051 -0.3373
17108TIP3    H172739   0.381   2.930   2.706 -0.7034 -0.6228 -2.1011
17108TIP3    H272740   0.271   2.832   2.744 -0.9602  1.1558  2.3216
17109TIP3   OH272741   1.712   6.487   4.679 -0.3859 -0.1463  0.8165
17109TIP3    H172742   1.641   6.476   4.743 -0.4287 -0.9160  0.6444
17109TIP3    H272743   1.747   6.399   4.667 -0.7647 -0.1115 -0.6763
17110TIP3   OH272744   2.995   0.887  14.107 -0.1072  0.2784  0.5012
17110TIP3    H172745   2.952   0.972  14.118 -0.1778  0.2998  0.0914
17110TIP3    H272746   3.079   0.897  14.152 -0.0983  0.5826  0.4199
17111TIP3   OH272747   3.604   3.131  12.659 -0.0342  0.2336 -0.1567
17111TIP3    H172748   3.645   3.103  12.577  0.2268 -0.5627  0.2379
17111TIP3    H272749   3.622   3.224  12.664  3.0469 -0.3154  0.7194
17112TIP3   OH272750   6.741   0.468  15.357  0.6889  0.5008  0.0585
17112TIP3    H172751   6.759   0.400  15.422 -0.8333  1.1134  1.1769
17112TIP3    H272752   6.682   0.427  15.294 -0.2767  0.7757  0.7656
17113TIP3   OH272753   6.288   4.574   0.922 -0.0513 -0.2785  0.2039
17113TIP3    H172754   6.374   4.535   0.908  0.4334  0.6178  0.5979
17113TIP3    H272755   6.247   4.573   0.835  0.8949  0.5107 -0.2775
17114TIP3   OH272756   5.372   4.873  13.449 -0.2168 -0.2414 -0.4307
17114TIP3    H172757   5.293   4.843  13.493 -0.2942  0.4504 -0.0783
17114TIP3    H272758   5.396   4.953  13.496 -0.4096  0.6298 -1.7450
17115TIP3   OH272759   7.053   5.014   5.941  0.3882 -0.2290  0.3548
17115TIP3    H172760   7.011   4.933   5.913 -1.9285  1.0434 -0.0903
17115TIP3    H272761   7.146   5.002   5.920 -0.2155 -1.9589 -1.5713
17116TIP3   OH272762   1.669   0.580   4.427 -0.2113 -0.3995 -0.7287
17116TIP3    H172763   1.711   0.497   4.407  1.9002  0.7135 -1.1076
17116TIP3    H272764   1.650   0.618   4.342 -0.5935 -0.1923 -0.5530
17117TIP3   OH272765   4.559   3.799   1.285  0.0602  0.0490 -0.2938
17117TIP3    H172766   4.607   3.726   1.245 -2.1542 -1.1034 -0.9953
17117TIP3    H272767   4.604   3.814   1.368  1.4990 -1.0858 -0.8175
17118TIP3   OH272768   6.970   3.889   3.959 -0.0605  0.2556  0.2781
17118TIP3    H172769   7.013   3.974   3.956 -0.7155  0.5621 -2.1479
17118TIP3    H272770   7.027   3.832   3.907 -1.9339  0.4373 -2.1699
17119TIP3   OH272771   0.515   0.411   3.535 -0.7337 -0.1116  0.0716
17119TIP3    H172772   0.579   0.377   3.472 -0.7426  0.5730 -0.3129
17119TIP3    H272773   0.439   0.354   3.524 -0.1462 -1.0343  0.6479
17120TIP3   OH272774   4.121   6.257   5.029  0.2895 -0.3117  0.2329
17120TIP3    H172775   4.192   6.202   4.997  0.4855  0.4858 -0.7193
17120TIP3    H272776   4.163   6.317   5.091  0.2821 -0.4215  0.3459
17121TIP3   OH272777   4.314   0.676   2.953  0.0086  0.2519 -0.3477
17121TIP3    H172778   4.338   0.751   2.898  2.0829 -0.9812 -1.2474
17121TIP3    H272779   4.305   0.604   2.892 -0.7267 -0.5088  0.6336
17122TIP3   OH272780   3.007   5.325   2.449  0.0260 -0.2918 -0.2153
17122TIP3    H172781   2.990   5.413   2.482  0.4233 -0.1831 -0.2962
17122TIP3    H272782   2.945   5.313   2.378  0.9883  0.5135 -1.2289
17123TIP3   OH272783   5.440   3.872   2.812  0.4741  0.1478  0.7306
17123TIP3    H172784   5.430   3.869   2.908  0.0344  1.0410  0.7218
17123TIP3    H272785   5.409   3.959   2.788  0.5463 -0.0906 -0.2391
17124TIP3   OH272786   5.161   0.345   4.996 -0.1471  0.1565 -0.4497
17124TIP3    H172787   5.100   0.366   4.926  0.9502  2.0523 -0.9009
17124TIP3    H272788   5.115   0.369   5.076 -1.1255 -1.3289 -0.5371
17125TIP3   OH272789   0.593   1.296   3.592  0.3172 -0.0484 -0.6809
17125TIP3    H172790   0.531   1.245   3.645 -0.6617 -0.9397 -2.5910
17125TIP3    H272791   0.673   1.298   3.644 -0.9653  0.3061  1.4503
17126TIP3   OH272792   4.796   1.824  15.216 -0.5711  0.4299 -0.2125
17126TIP3    H172793   4.879   1.848  15.257 -0.1024 -4.0297  1.9933
17126TIP3    H272794   4.814   1.828  15.122  2.1911 -0.2786  0.1941
17127TIP3   OH272795   5.758   1.880   3.200 -0.5992 -0.1057 -0.0475
17127TIP3    H172796   5.729   1.875   3.109 -1.0429 -1.2828  0.1515
17127TIP3    H272797   5.829   1.816   3.206  0.3042  0.8839  0.1295
17128TIP3   OH272798   5.579   5.894  14.027  0.0484  0.4742 -0.0601
17128TIP3    H172799   5.646   5.907  14.093 -0.3001  1.7874  0.0658
17128TIP3    H272800   5.498   5.925  14.068 -0.9767 -2.4187  0.3408
17129TIP3   OH272801   3.069   0.851  11.096  0.5810 -0.7209  0.7192
17129TIP3    H172802   3.158   0.886  11.102  0.4125 -0.5244  2.5564
17129TIP3    H272803   3.017   0.909  11.152 -0.4783 -1.5484  0.6141
17130TIP3   OH272804   0.282   6.366   4.192  0.3752 -0.3208  0.0424
17130TIP3    H172805   0.341   6.315   4.247  2.7096  1.4925 -0.5902
17130TIP3    H272806   0.197   6.361   4.235  1.3110 -1.8108  1.8439
17131TIP3   OH272807   1.196   1.197   2.620  0.1273  0.1584  0.4889
17131TIP3    H172808   1.164   1.270   2.672 -0.1667 -0.0784  0.6462
17131TIP3    H272809   1.245   1.142   2.682  1.0933  0.6615  0.1925
17132TIP3   OH272810   2.316   0.817   2.586 -0.0060  0.1031 -0.4421
17132TIP3    H172811   2.267   0.873   2.525  0.3715 -0.3543 -1.1741
17132TIP3    H272812   2.279   0.730   2.573  1.0927 -0.2883 -1.1383
17133TIP3   OH272813   6.460   7.128   2.810  0.5717 -0.7019 -0.1392
17133TIP3    H172814   6.371   7.109   2.779  0.5207  1.4896 -1.4927
17133TIP3    H272815   6.447   7.167   2.897  0.1063  0.5371 -0.7455
17134TIP3   OH272816   3.335   0.483   4.176  0.1282 -0.0726  0.0876
17134TIP3    H172817   3.243   0.498   4.153  0.1068 -2.1402 -1.5320
17134TIP3    H272818   3.385   0.524   4.106  0.3050 -1.0579 -0.3902
17135TIP3   OH272819   0.481   3.871   3.330 -0.3408  0.4842 -0.4514
17135TIP3    H172820   0.420   3.815   3.379 -1.2012 -0.6112 -2.6269
17135TIP3    H272821   0.563   3.821   3.329 -0.5612  0.1286 -0.8227
17136TIP3   OH272822   2.517   0.538   6.014 -0.4036  0.1190  0.0293
17136TIP3    H172823   2.572   0.470   6.054  1.1329  1.9315  1.2247
17136TIP3    H272824   2.543   0.539   5.922  2.9760  2.0004  0.8365
17137TIP3   OH272825   0.071   1.931   2.548  0.1290 -0.2300  0.1816
17137TIP3    H172826  -0.015   1.951   2.510  0.4316 -0.6100 -0.7422
17137TIP3    H272827   0.134   1.963   2.483  0.6574 -1.1834  0.2011
17138TIP3   OH272828   3.679   3.017   0.732 -0.1297 -0.0639  0.2367
17138TIP3    H172829   3.588   2.988   0.719  0.0567 -0.9537  0.8186
17138TIP3    H272830   3.707   3.045   0.645 -0.5680 -0.9585 -0.2151
17139TIP3   OH272831   5.363   1.861   1.932  0.2440  0.0226  0.2214
17139TIP3    H172832   5.289   1.922   1.937 -1.2636 -1.3858 -2.7239
17139TIP3    H272833   5.415   1.891   1.858  1.9817  0.2311  1.4656
17140TIP3   OH272834   2.644   5.688  13.543  0.5566 -0.0088 -0.3267
17140TIP3    H172835   2.660   5.636  13.464 -2.0577 -0.2304 -0.7958
17140TIP3    H272836   2.610   5.624  13.607  1.2624  0.4267  0.5048
17141TIP3   OH272837   1.892   1.012  15.346 -0.2134  0.1287  0.2025
17141TIP3    H172838   1.813   1.052  15.382 -0.2177  0.7291 -0.4772
17141TIP3    H272839   1.878   0.918  15.361 -1.2426  0.1873 -0.2795
17142TIP3   OH272840   6.784   6.649   4.547 -0.4426 -0.1704  0.0814
17142TIP3    H172841   6.797   6.572   4.493  0.2090 -0.2464  0.3344
17142TIP3    H272842   6.830   6.719   4.500  2.3556 -0.7502  1.7199
17143TIP3   OH272843   4.772   4.077   4.104  0.0592 -0.2486  0.3124
17143TIP3    H172844   4.780   4.078   4.009 -1.8473  2.1066  0.0761
17143TIP3    H272845   4.678   4.070   4.120 -0.1139  3.2700  1.8153
17144TIP3   OH272846   1.388   1.729   6.062  0.7438  0.2635  0.5889
17144TIP3    H172847   1.389   1.641   6.026 -1.5122 -0.5605  2.3414
17144TIP3    H272848   1.338   1.781   5.998  0.9953  0.0115  0.1807
17145TIP3   OH272849   3.354   0.688   3.530  0.2359  0.0129 -0.0650
17145TIP3    H172850   3.407   0.748   3.479 -2.6614  1.9856 -0.9963
17145TIP3    H272851   3.403   0.606   3.530  2.8571  1.4854 -1.4195
17146TIP3   OH272852   1.254   4.815   4.652  0.5846  0.1409  0.1112
17146TIP3    H172853   1.310   4.747   4.690  0.6522 -0.8598 -1.6743
17146TIP3    H272854   1.165   4.783   4.665  0.5643  0.2369  0.2126
17147TIP3   OH272855   5.092   5.666   4.733  0.3658 -0.4595  0.0109
17147TIP3    H172856   5.000   5.647   4.750  0.0862  0.5723 -0.2859
17147TIP3    H272857   5.138   5.638   4.812 -0.6400  2.3036  1.7152
17148TIP3   OH272858   6.535   4.735   1.100  0.1018 -0.0787  0.4100
17148TIP3    H172859   6.572   4.824   1.100 -1.4588  0.6398 -1.3421
17148TIP3    H272860   6.611   4.678   1.113  1.2723  1.4610  0.6697
17149TIP3   OH272861   1.658   3.147   4.288 -0.1949  0.1867  0.5856
17149TIP3    H172862   1.581   3.115   4.336 -1.2443  2.2076  0.3511
17149TIP3    H272863   1.677   3.232   4.326  0.0210  1.0853 -1.4113
17150TIP3   OH272864   5.839   6.903   5.092 -0.2502 -0.7214  0.6416
17150TIP3    H172865   5.878   6.966   5.153 -0.7968  0.0143  0.2593
17150TIP3    H272866   5.913   6.868   5.042 -0.1709  2.8129 -2.1366
17151TIP3   OH272867   2.915   5.087   5.550  0.0094  0.2592 -0.2972
17151TIP3    H172868   2.938   5.162   5.606  0.6622 -0.0864 -0.0988
17151TIP3    H272869   2.915   5.123   5.461  1.0674  0.3304 -0.2773
17152TIP3   OH272870   1.531   2.100  14.359 -0.0716 -0.1941  0.1024
17152TIP3    H172871   1.591   2.045  14.307  0.9527  1.3857 -0.4610
17152TIP3    H272872   1.453   2.108  14.304 -0.1009 -0.8230  0.0472
17153TIP3   OH272873   0.879   2.184   1.489 -0.2308  0.5521  0.2820
17153TIP3    H172874   0.906   2.097   1.460 -1.5625 -0.2583  1.3886
17153TIP3    H272875   0.891   2.240   1.411  0.9499 -0.5226 -0.3472
17154TIP3   OH272876   5.196   2.213   2.375  0.2345 -0.1221  0.3592
17154TIP3    H172877   5.106   2.245   2.383  0.2923  0.3815 -0.8183
17154TIP3    H272878   5.191   2.121   2.402 -0.9369 -0.5159 -1.0334
17155TIP3   OH272879   2.915   6.352   3.059 -0.0104 -0.4567  0.3260
17155TIP3    H172880   2.895   6.259   3.045  0.3315 -0.8090  2.0481
17155TIP3    H272881   2.832   6.390   3.089 -0.9116  0.4356 -2.8487
17156TIP3   OH272882   5.354   4.760   2.588  0.6598 -0.0964 -0.2714
17156TIP3    H172883   5.364   4.732   2.679  2.4117  0.2024 -0.3479
17156TIP3    H272884   5.296   4.836   2.593  0.3363 -0.3915  0.5324
17157TIP3   OH272885   5.913   3.905   1.341 -0.4277  0.0891  0.2161
17157TIP3    H172886   5.894   3.812   1.329 -0.4193  0.1090  0.0393
17157TIP3    H272887   5.895   3.944   1.255  0.5697  0.0844 -0.0037
17158TIP3   OH272888   6.958   3.791   5.299  0.2437 -0.1810  0.0437
17158TIP3    H172889   6.948   3.868   5.243  0.5844  1.8259  2.5520
17158TIP3    H272890   6.871   3.750   5.299 -0.0791  0.4584 -0.9628
17159TIP3   OH272891   4.228   5.689   3.522 -0.1602 -0.0509 -0.5355
17159TIP3    H172892   4.301   5.635   3.492  0.1864  1.0154 -1.6808
17159TIP3    H272893   4.166   5.689   3.449 -1.3608 -0.9917  0.4471
17160TIP3   OH272894   4.862   4.019  15.222  0.4863 -0.3337 -0.0120
17160TIP3    H172895   4.767   4.025  15.218  0.2714 -0.6058  2.6657
17160TIP3    H272896   4.882   3.932  15.186  0.0133  0.6096 -2.7552
17161TIP3   OH272897   3.933   1.632   3.070 -0.0974 -0.0879 -0.2830
17161TIP3    H172898   3.899   1.567   3.132  2.2793 -1.1332  0.0049
17161TIP3    H272899   3.970   1.701   3.126  1.4275 -0.6959 -0.5213
17162TIP3   OH272900   6.651   1.525   2.811 -0.2932  0.4995 -0.2004
17162TIP3    H172901   6.669   1.557   2.723  0.0448 -0.4220 -0.4825
17162TIP3    H272902   6.557   1.538   2.823 -0.0200  2.4319  0.0663
17163TIP3   OH272903   5.542   0.868   3.089  0.1901 -0.1758 -0.0045
17163TIP3    H172904   5.567   0.934   3.024  0.4985 -0.6470 -0.3718
17163TIP3    H272905   5.573   0.785   3.052 -0.2733 -0.5385  0.4073
17164TIP3   OH272906   3.688   0.072   2.534 -0.0886 -0.1307  0.0374
17164TIP3    H172907   3.767   0.109   2.493 -0.4543  1.1901  0.4841
17164TIP3    H272908   3.655   0.142   2.591 -2.2683 -0.1799 -1.0553
17165TIP3   OH272909   4.700   6.929   5.296  0.0686 -0.2196  0.1223
17165TIP3    H172910   4.729   6.963   5.381 -0.7519  2.8153 -0.6826
17165TIP3    H272911   4.752   6.978   5.232 -0.5172 -1.2360 -1.1715
17166TIP3   OH272912   1.354   1.579   2.717 -0.6326  0.0651  0.0583
17166TIP3    H172913   1.305   1.580   2.635  0.3650  0.7354 -0.5534
17166TIP3    H272914   1.345   1.668   2.751 -0.4907 -0.0242  0.3340
17167TIP3   OH272915   1.935   1.255   2.184 -0.7074 -0.1909 -0.1453
17167TIP3    H172916   1.981   1.179   2.150  1.5283  0.2929  1.5058
17167TIP3    H272917   1.916   1.309   2.107  0.8337 -0.8159 -1.0094
17168TIP3   OH272918   4.393   1.584  14.908 -0.1269 -0.3185 -0.2300
17168TIP3    H172919   4.438   1.649  14.962  1.8000 -0.7377 -1.2660
17168TIP3    H272920   4.463   1.535  14.865 -1.5578 -1.8885 -0.8990
17169TIP3   OH272921   5.828   1.977   4.613 -0.3092 -0.1228  0.3742
17169TIP3    H172922   5.734   1.973   4.602 -0.5020  1.1982  1.2439
17169TIP3    H272923   5.847   2.070   4.628  1.2192 -0.2517 -0.5051
17170TIP3   OH272924   2.128   5.550  15.273  0.5483 -0.3292 -0.0561
17170TIP3    H172925   2.176   5.559  15.355  0.6764  0.0640 -0.1757
17170TIP3    H272926   2.195   5.549  15.205  0.3704  0.7516 -0.2659
17171TIP3   OH272927   4.785   0.490   4.564 -1.0931  0.0823 -0.5850
17171TIP3    H172928   4.751   0.556   4.624 -0.8362 -1.1770  1.0143
17171TIP3    H272929   4.708   0.445   4.531 -1.1960  0.2981 -0.6434
17172TIP3   OH272930   5.484   5.030  15.374  0.3130  0.0620  0.3037
17172TIP3    H172931   5.438   5.112  15.393 -1.3356 -1.2062  2.0949
17172TIP3    H272932   5.508   4.994  15.459  0.6393 -1.5383 -0.4166
17173TIP3   OH272933   5.128   4.931  12.285  0.5229 -0.0805  0.4206
17173TIP3    H172934   5.061   4.998  12.297  0.3502 -0.2161  0.2148
17173TIP3    H272935   5.082   4.858  12.244  0.8834 -0.0053 -0.1350
17174TIP3   OH272936   4.357   2.855   5.676 -0.1610  0.3918 -0.5366
17174TIP3    H172937   4.300   2.778   5.684 -1.0769  0.8021 -2.5355
17174TIP3    H272938   4.427   2.839   5.739 -0.7266 -1.7262 -0.3540
17175TIP3   OH272939   5.456   1.037   1.080 -0.1643  0.1670 -0.3561
17175TIP3    H172940   5.463   0.953   1.125 -1.2830 -0.2688 -0.9658
17175TIP3    H272941   5.363   1.048   1.063 -0.0286  1.5261 -0.3155
17176TIP3   OH272942   0.505   1.356   4.049 -0.1097  0.2000  0.2302
17176TIP3    H172943   0.455   1.371   4.129  1.8275 -2.3846  2.0653
17176TIP3    H272944   0.595   1.379   4.071  0.5499 -0.9520 -1.0409
17177TIP3   OH272945   4.694   0.991   2.229 -0.5885  0.1409  0.1657
17177TIP3    H172946   4.702   0.974   2.323 -0.7732  3.9688  1.0497
17177TIP3    H272947   4.600   0.984   2.211 -0.5112 -0.9866  0.1177
17178TIP3   OH272948   0.546   5.611   3.765 -0.3439 -0.1411  0.0625
17178TIP3    H172949   0.558   5.681   3.829 -1.4305 -1.1505  1.4254
17178TIP3    H272950   0.451   5.607   3.752 -0.3122 -1.4581  0.1477
17179TIP3   OH272951   3.192   4.740  14.924  0.3124 -0.0923 -0.1178
17179TIP3    H172952   3.248   4.817  14.912  0.0058  0.4826  1.7720
17179TIP3    H272953   3.106   4.777  14.947  0.1645 -0.9739  0.8155
17180TIP3   OH272954   1.035   1.631   4.771 -0.5684  0.0462 -0.3933
17180TIP3    H172955   1.118   1.584   4.772 -0.3842  0.3402  1.2761
17180TIP3    H272956   1.059   1.721   4.751 -0.6439 -0.0921 -1.1434
17181TIP3   OH272957   3.695   2.514  14.495  0.3521 -0.7199 -0.9718
17181TIP3    H172958   3.629   2.471  14.550 -0.3302  0.0638 -1.1469
17181TIP3    H272959   3.658   2.511  14.406 -0.9722  2.3902 -0.6780
17182TIP3   OH272960   5.090   0.379   4.277 -0.8776 -0.3884 -0.5237
17182TIP3    H172961   5.098   0.357   4.370  0.7561 -1.9584 -0.9840
17182TIP3    H272962   5.018   0.325   4.246 -0.0168 -1.5116 -0.6096
17183TIP3   OH272963   5.087   3.996   2.427 -0.2684  0.2187 -0.2853
17183TIP3    H172964   5.116   3.971   2.339  2.5686 -1.2054  0.8870
17183TIP3    H272965   5.011   3.940   2.444  1.2103 -2.0637 -0.6770
17184TIP3   OH272966   3.360   3.248   5.158  0.2051  0.4887  0.3638
17184TIP3    H172967   3.359   3.267   5.252  0.3728 -1.0179  0.6829
17184TIP3    H272968   3.325   3.160   5.151  0.5226  0.4540 -0.9694
17185TIP3   OH272969   4.931   3.049   1.293  0.4214  0.4025  0.4917
17185TIP3    H172970   4.853   3.037   1.346  0.2292  0.9474  0.3409
17185TIP3    H272971   4.927   3.140   1.264  1.3968  0.5981  0.9399
17186TIP3   OH272972   0.137   3.174   2.582 -0.2270  0.0448  0.6122
17186TIP3    H172973   0.142   3.269   2.579 -1.2229  0.1385  1.5015
17186TIP3    H272974   0.056   3.155   2.628 -0.8577 -1.2545 -0.9454
17187TIP3   OH272975   2.815   3.395   2.124 -0.4892  0.6083 -0.3905
17187TIP3    H172976   2.835   3.378   2.031 -1.0380 -1.9755 -0.1069
17187TIP3    H272977   2.746   3.334   2.145  0.5099  0.2270  2.0759
17188TIP3   OH272978   4.283   3.507   2.598  0.0821  0.0329  0.9867
17188TIP3    H172979   4.273   3.453   2.519 -1.2244  1.2717  0.2592
17188TIP3    H272980   4.350   3.462   2.649  1.1414 -0.6995 -0.9238
17189TIP3   OH272981   6.012   6.479  14.716 -0.1864  0.2512  0.4518
17189TIP3    H172982   5.979   6.435  14.795 -2.1485 -2.2333 -1.5684
17189TIP3    H272983   5.942   6.539  14.691 -0.6394 -0.6928 -0.6246
17190TIP3   OH272984   5.956   1.284   0.483 -0.1758  0.1362  0.6119
17190TIP3    H172985   6.025   1.330   0.530  0.4903 -0.1207 -0.0980
17190TIP3    H272986   5.956   1.324   0.396 -1.9222  1.1548  1.0274
17191TIP3   OH272987   0.319   5.280   3.714  0.6217  0.3286  0.4187
17191TIP3    H172988   0.307   5.213   3.780 -1.0982  0.4568  0.2640
17191TIP3    H272989   0.253   5.262   3.647 -0.4100  2.5802  0.7377
17192TIP3   OH272990   2.169   3.643   3.436 -0.0176 -0.4659 -0.1773
17192TIP3    H172991   2.194   3.593   3.358 -0.4943  0.2764 -0.8166
17192TIP3    H272992   2.074   3.646   3.433  0.0110  0.7888 -0.3563
17193TIP3   OH272993   6.197   0.940   3.314 -0.4490  0.4019  0.0950
17193TIP3    H172994   6.111   0.904   3.335 -0.8183  0.2449 -1.5539
17193TIP3    H272995   6.245   0.868   3.273  1.1799 -0.0719  2.6301
17194TIP3   OH272996   6.255   0.667   2.519 -0.0704  0.1241  0.6505
17194TIP3    H172997   6.272   0.746   2.469 -0.3171 -0.0705  0.2483
17194TIP3    H272998   6.245   0.598   2.452  2.4318 -0.7245  1.0344
17195TIP3   OH272999   7.020   6.251   3.898 -0.3621 -0.2662 -0.3484
17195TIP3    H173000   7.100   6.303   3.901  0.7981 -2.0160  0.2018
17195TIP3    H273001   6.950   6.315   3.885  0.8813  1.5196  1.3772
17196TIP3   OH273002   1.452   4.015   0.354  0.4465  0.5875 -0.3470
17196TIP3    H173003   1.423   3.988   0.441  1.7597  1.3829  0.3565
17196TIP3    H273004   1.473   3.933   0.309 -0.5112  0.1568 -0.0273
17197TIP3   OH273005   3.163   3.689   5.136 -0.1896  0.3109 -0.6431
17197TIP3    H173006   3.200   3.621   5.193 -1.1540  1.1128  1.0132
17197TIP3    H273007   3.098   3.643   5.083 -2.0377  0.1282  1.6243
17198TIP3   OH273008   0.225   5.311   4.281  0.2216  0.2957 -0.4935
17198TIP3    H173009   0.235   5.338   4.190 -0.0483  0.8818 -0.3554
17198TIP3    H273010   0.130   5.310   4.295  0.2642  0.3096 -0.1956
17199TIP3   OH273011   6.682   1.893   4.685  1.1586 -0.2716  0.4182
17199TIP3    H173012   6.708   1.983   4.664  0.7932  0.4911  2.9118
17199TIP3    H273013   6.723   1.875   4.769 -2.9371 -0.4270  2.6411
17200TIP3   OH273014   4.040   2.739   4.611 -0.1947 -0.0134 -0.4791
17200TIP3    H173015   3.950   2.724   4.641 -0.9864  3.3373 -0.7817
17200TIP3    H273016   4.093   2.732   4.690 -1.2577  1.4788  0.4226
17201TIP3   OH273017   6.140   3.790   3.822  0.4101 -0.0488 -0.0624
17201TIP3    H173018   6.069   3.845   3.853  0.7797  0.1319  0.4849
17201TIP3    H273019   6.212   3.850   3.805  0.4666 -0.2399 -0.5117
17202TIP3   OH273020   5.615   4.858   3.329 -0.2089  0.2854 -0.3341
17202TIP3    H173021   5.577   4.889   3.411 -2.7285 -3.4915  0.1567
17202TIP3    H273022   5.665   4.780   3.354 -0.7148 -0.7408 -2.3389
17203TIP3   OH273023   4.139   4.374   3.588 -0.1700 -0.7270  0.1606
17203TIP3    H173024   4.223   4.380   3.542 -0.4296  0.0320 -0.2464
17203TIP3    H273025   4.151   4.306   3.653  1.8156  1.4063  2.2173
17204TIP3   OH273026   6.477   2.204  11.781 -0.5534 -0.1334 -0.5971
17204TIP3    H173027   6.442   2.207  11.870  0.5112 -1.0668 -0.1232
17204TIP3    H273028   6.478   2.111  11.759  1.5030 -0.1379 -0.6197
17205TIP3   OH273029   0.048   5.170   0.199  0.1688  0.1396  0.1298
17205TIP3    H173030   0.112   5.239   0.219  0.8469 -0.2672 -0.5926
17205TIP3    H273031   0.080   5.093   0.247 -0.0661  0.0665  0.1719
17206TIP3   OH273032   2.191   5.631   1.874 -0.3186  0.0754 -0.1129
17206TIP3    H173033   2.285   5.649   1.878 -0.5073  1.4143 -0.8755
17206TIP3    H273034   2.162   5.679   1.796 -2.0601  1.7839  1.4890
17207TIP3   OH273035   5.430   5.705   5.844  0.4024 -0.4236 -0.4409
17207TIP3    H173036   5.494   5.705   5.915  0.3141 -1.4150 -0.3497
17207TIP3    H273037   5.409   5.798   5.830  1.6832 -0.1025 -0.3272
17208TIP3   OH273038   1.562   1.586   4.326  0.4311  0.0808 -0.5838
17208TIP3    H173039   1.562   1.494   4.352  0.7985 -0.4610 -2.3616
17208TIP3    H273040   1.489   1.624   4.375 -0.8168 -1.5512 -1.0514
17209TIP3   OH273041   7.119   2.822   1.962 -0.1346  0.1380  0.2198
17209TIP3    H173042   7.053   2.830   2.031 -0.8315 -2.1339 -0.1291
17209TIP3    H273043   7.201   2.802   2.008 -0.2384  0.3126  0.4806
17210TIP3   OH273044   5.963   5.549   3.643 -0.1732  0.5151  0.1608
17210TIP3    H173045   5.977   5.490   3.718  0.8310  1.9928  1.1999
17210TIP3    H273046   5.868   5.565   3.643 -0.3058 -0.2303  0.5501
17211TIP3   OH273047   6.413   5.218  14.757  0.1286  0.2933 -0.2146
17211TIP3    H173048   6.438   5.280  14.826  0.7433 -0.3409  0.1430
17211TIP3    H273049   6.322   5.241  14.737  0.2768  1.1786  0.0489
17212TIP3   OH273050   6.863   1.780   2.060  0.5917 -0.2401  0.2594
17212TIP3    H173051   6.838   1.748   2.147  0.3013  0.0009  0.2635
17212TIP3    H273052   6.949   1.819   2.074  0.6434 -0.3979  0.3950
17213TIP3   OH273053   3.020   2.800   3.342  0.6042  0.7341  0.1848
17213TIP3    H173054   3.104   2.772   3.380  0.3533  0.8554  0.8449
17213TIP3    H273055   3.044   2.864   3.275  1.0068  1.2965  0.8561
17214TIP3   OH273056   0.103   7.050   5.127 -0.0145  0.1502  0.0025
17214TIP3    H173057   0.021   7.098   5.119 -0.2207 -0.3211 -0.8448
17214TIP3    H273058   0.077   6.958   5.138  0.3766  0.1867  1.4134
17215TIP3   OH273059   6.354   1.080   4.213  0.4614  0.2903  1.0148
17215TIP3    H173060   6.328   0.988   4.211  0.1727  0.3136  2.3997
17215TIP3    H273061   6.428   1.084   4.273  1.0320  0.8549  0.3057
17216TIP3   OH273062   0.764   4.773   1.977  0.0483 -0.2648  0.0913
17216TIP3    H173063   0.814   4.725   2.042  1.6704  1.0298 -0.1210
17216TIP3    H273064   0.739   4.855   2.021 -0.2421 -0.0799 -0.4039
17217TIP3   OH273065   1.904   4.214   4.340  0.2723 -0.2271 -0.0074
17217TIP3    H173066   1.847   4.290   4.331  0.1474 -0.1386  1.3079
17217TIP3    H273067   1.846   4.139   4.328  0.3646 -0.1378 -1.1359
17218TIP3   OH273068   5.187   6.223   4.720  0.2439 -0.1690 -0.2573
17218TIP3    H173069   5.172   6.129   4.726  0.9208 -0.2496  0.3274
17218TIP3    H273070   5.158   6.247   4.632 -0.3707 -0.8363 -0.2446
17219TIP3   OH273071   2.026   1.860  15.249  0.2445  0.4603 -0.0062
17219TIP3    H173072   1.974   1.822  15.179  1.3218 -2.3216  0.5457
17219TIP3    H273073   2.113   1.873  15.210 -0.0769  2.4139 -0.1532
17220TIP3   OH273074   5.720   2.677   3.810  0.2048  0.2874 -0.1624
17220TIP3    H173075   5.688   2.618   3.742  2.2768 -0.0147 -0.9411
17220TIP3    H273076   5.725   2.622   3.889  0.7151 -0.1960 -0.5255
17221TIP3   OH273077   5.096   6.268   3.875  0.2151 -0.1280 -0.1635
17221TIP3    H173078   5.133   6.215   3.804  0.1165 -0.4724  0.0402
17221TIP3    H273079   5.107   6.214   3.954  0.3795  0.2782  0.0961
17222TIP3   OH273080   4.384   7.083   2.300 -0.0845 -0.4103 -0.3150
17222TIP3    H173081   4.387   7.173   2.267  0.8168  0.2076  1.3095
17222TIP3    H273082   4.293   7.057   2.289 -0.8514  1.4472  0.9512
17223TIP3   OH273083   6.216   2.499   5.662 -0.4535  0.0389  0.0474
17223TIP3    H173084   6.207   2.458   5.747  0.2058 -0.3804 -0.0780
17223TIP3    H273085   6.126   2.511   5.631 -0.6699 -0.7031  0.3713
17224TIP3   OH273086   5.777   3.198   5.200  0.0551 -0.4993  0.5619
17224TIP3    H173087   5.832   3.275   5.182 -0.3599 -0.5323 -0.9540
17224TIP3    H273088   5.823   3.126   5.157 -0.8527 -0.6335 -0.2119
17225TIP3   OH273089   5.863   6.784   5.623 -0.1641  0.5854 -0.3561
17225TIP3    H173090   5.950   6.808   5.591 -0.6303 -0.5296 -2.6706
17225TIP3    H273091   5.862   6.688   5.619 -1.8847  0.6098 -1.6436
17226TIP3   OH273092   4.034   1.404   4.128  0.3356  0.0876 -0.0603
17226TIP3    H173093   4.066   1.317   4.152 -0.7984 -0.0428  1.0923
17226TIP3    H273094   4.112   1.449   4.095  1.1130 -1.1026  0.0556
17227TIP3   OH273095   3.091   0.642  14.658 -0.0966  0.4371  0.2483
17227TIP3    H173096   3.148   0.582  14.707  1.0385  1.1291 -0.1935
17227TIP3    H273097   3.128   0.729  14.673  0.9570  0.5848 -2.6354
17228TIP3   OH273098   3.850   0.091   3.686  0.2971 -0.5465 -0.4568
17228TIP3    H173099   3.830   0.015   3.740 -0.2237 -0.8578 -1.0611
17228TIP3    H273100   3.768   0.140   3.682  1.1226  1.1291  1.5416
17229TIP3   OH273101   1.887   2.901  11.993 -0.5463 -0.8416  0.3844
17229TIP3    H173102   1.915   2.866  12.078  0.7417 -0.4616  0.1467
17229TIP3    H273103   1.808   2.852  11.972 -1.0259 -0.7786  1.9057
17230TIP3   OH273104   4.545   6.179  15.075  0.5157 -0.4838  0.0635
17230TIP3    H173105   4.609   6.199  15.144  1.7712 -2.2149 -0.5435
17230TIP3    H273106   4.528   6.264  15.033  3.2290 -0.0961 -0.4149
17231TIP3   OH273107   7.131   5.185   2.588 -0.2774  0.2356 -0.2519
17231TIP3    H173108   7.119   5.209   2.679  0.6707 -1.5756  0.4238
17231TIP3    H273109   7.222   5.210   2.568 -0.5047  0.6991 -0.7220
17232TIP3   OH273110   1.678   1.938   3.628  0.3784 -0.2920 -0.7243
17232TIP3    H173111   1.707   1.965   3.541 -0.5167 -2.2199 -1.6914
17232TIP3    H273112   1.690   1.842   3.629  1.9657 -0.1933  1.9112
17233TIP3   OH273113   4.300   3.893   5.649  0.0222  0.0879  0.1228
17233TIP3    H173114   4.293   3.939   5.733 -0.7554 -0.3492  0.3143
17233TIP3    H273115   4.287   3.801   5.672 -1.9708  0.1267 -0.6792
17234TIP3   OH273116   3.964   4.994   2.686 -0.0874  0.1285 -0.0248
17234TIP3    H173117   4.002   5.075   2.720 -1.0450  0.8702 -0.6618
17234TIP3    H273118   3.989   4.992   2.594  0.5645 -0.6952  0.1586
17235TIP3   OH273119   5.131   2.745   2.615 -0.0810  0.3304 -0.4256
17235TIP3    H173120   5.119   2.806   2.543 -0.2666  0.0739 -0.6139
17235TIP3    H273121   5.052   2.756   2.669 -0.2077  0.1176 -0.5654
17236TIP3   OH273122   3.519   0.460   5.671 -0.0403 -0.2266  0.8536
17236TIP3    H173123   3.534   0.436   5.763  1.0299  0.9227  1.0030
17236TIP3    H273124   3.599   0.504   5.644 -0.6480  0.1665 -0.4041
17237TIP3   OH273125   3.508   7.092   2.363  0.1972  0.5375  0.2890
17237TIP3    H173126   3.578   7.054   2.310  0.8077 -0.2001  1.5829
17237TIP3    H273127   3.553   7.144   2.429 -0.5436  1.2705  0.2327
17238TIP3   OH273128   0.019   7.130   2.839 -0.5779  0.5591 -0.3890
17238TIP3    H173129  -0.013   7.055   2.889 -1.6875  0.8254 -0.6738
17238TIP3    H273130   0.114   7.121   2.840 -0.5740  0.3815  1.5066
17239TIP3   OH273131   4.772   6.788   0.360  0.6492  0.3546  0.3367
17239TIP3    H173132   4.793   6.792   0.267  1.8346 -0.6390  0.5304
17239TIP3    H273133   4.742   6.698   0.374 -1.0249  0.9266  0.6484
17240TIP3   OH273134   0.465   2.953   0.116 -0.2789  0.2250 -1.0678
17240TIP3    H173135   0.440   3.042   0.088 -0.8159  1.3290  2.4613
17240TIP3    H273136   0.560   2.956   0.122 -0.1942  0.1249 -2.1514
17241TIP3   OH273137   4.277   5.140   2.385 -0.1667 -1.0156 -0.1989
17241TIP3    H173138   4.343   5.179   2.327 -0.6678 -2.1414 -1.5694
17241TIP3    H273139   4.210   5.208   2.393  1.0405  0.0985  1.1177
17242TIP3   OH273140   2.313   2.315   1.251  0.5848  0.4048  0.2577
17242TIP3    H173141   2.228   2.308   1.294  0.3119 -2.0082 -0.4987
17242TIP3    H273142   2.302   2.266   1.170  1.9045  2.4675 -1.2474
17243TIP3   OH273143   6.827   4.178   1.756  0.2223 -0.3786 -0.1291
17243TIP3    H173144   6.917   4.162   1.786  0.6117  0.7437 -0.6374
17243TIP3    H273145   6.772   4.130   1.818  1.0921  0.4646  1.3550
17244TIP3   OH273146   3.678   3.965  12.059  0.0706 -0.0260 -0.4494
17244TIP3    H173147   3.591   4.005  12.064 -0.5549 -1.2759 -0.8225
17244TIP3    H273148   3.664   3.874  12.087  0.9338 -0.6955 -2.0483
17245TIP3   OH273149   4.125   0.551  13.372  0.0472 -0.0816 -0.0381
17245TIP3    H173150   4.082   0.469  13.399 -0.6919  0.7216  1.3246
17245TIP3    H273151   4.056   0.617  13.380  0.6527  0.6969 -1.0670
17246TIP3   OH273152   5.903   4.421   0.786 -0.1162 -0.1634 -0.0219
17246TIP3    H173153   5.930   4.481   0.856  0.8381 -2.9691  2.2111
17246TIP3    H273154   5.851   4.354   0.831 -0.3380 -1.5467 -2.1964
17247TIP3   OH273155   5.377   6.226   0.643  0.2451  0.0396 -0.5636
17247TIP3    H173156   5.358   6.283   0.718  1.3759  0.6930 -0.7512
17247TIP3    H273157   5.305   6.242   0.582  0.4603  1.1628 -0.5419
17248TIP3   OH273158   6.057   1.454   5.367 -0.2117  0.4322  0.5285
17248TIP3    H173159   6.094   1.540   5.390  1.4633 -0.6459  2.1333
17248TIP3    H273160   6.018   1.422   5.449  0.7226 -1.0556  0.4214
17249TIP3   OH273161   5.040   5.340   5.073  0.0156  0.2834 -0.0845
17249TIP3    H173162   5.064   5.248   5.076 -1.2508 -0.0592  0.0164
17249TIP3    H273163   5.026   5.364   5.165  1.4219  0.8949 -0.0024
17250TIP3   OH273164   3.883   4.167   4.095 -0.7780 -0.0157  0.0291
17250TIP3    H173165   3.903   4.206   4.010 -0.5529 -0.4463 -0.1199
17250TIP3    H273166   3.937   4.215   4.157 -0.3156 -0.2461 -0.1858
17251TIP3   OH273167   0.095   4.328  15.214 -0.3697  0.1088  0.1609
17251TIP3    H173168   0.097   4.239  15.249 -2.4385  0.1066  0.3865
17251TIP3    H273169   0.160   4.376  15.266  0.4671 -1.1549  0.3139
17252TIP3   OH273170   3.150   0.614   3.939  0.2804 -0.0436  0.2733
17252TIP3    H173171   3.199   0.696   3.927  1.2323 -0.8531 -1.9211
17252TIP3    H273172   3.059   0.640   3.929  0.5940  0.7000 -0.8437
17253TIP3   OH273173   3.308   6.788   3.930 -0.3584  0.0241 -0.1952
17253TIP3    H173174   3.296   6.877   3.897 -1.1612  0.3099  0.8018
17253TIP3    H273175   3.219   6.752   3.935 -0.4721  0.4528  2.7668
17254TIP3   OH273176   6.586   1.321   5.802  0.4216  0.0399  0.2080
17254TIP3    H173177   6.667   1.305   5.852  1.3400 -1.9159 -1.7210
17254TIP3    H273178   6.516   1.306   5.866  1.5059 -3.3784  0.8491
17255TIP3   OH273179   0.953   2.664  13.986  0.1339  0.4044  0.1783
17255TIP3    H173180   0.866   2.703  13.977  0.4796  1.3395  0.6458
17255TIP3    H273181   0.998   2.720  14.050  0.5315 -1.0258  1.2155
17256TIP3   OH273182   0.582   0.593   2.138 -0.1298 -0.6181 -0.4779
17256TIP3    H173183   0.560   0.502   2.156  1.6820 -0.8504  0.8317
17256TIP3    H273184   0.500   0.641   2.153 -0.5070 -1.7453  1.3203
17257TIP3   OH273185   3.865   6.996   1.468  0.0916 -0.0080 -0.6188
17257TIP3    H173186   3.954   7.026   1.488  0.4682 -1.5359  0.2038
17257TIP3    H273187   3.831   6.963   1.551 -0.2465 -1.8157 -1.4103
17258TIP3   OH273188   6.205   1.234   5.281  0.0825  0.4306  0.3780
17258TIP3    H173189   6.281   1.285   5.254  1.5455 -0.8419  1.9413
17258TIP3    H273190   6.160   1.289   5.345 -0.1252  1.0008 -0.2341
17259TIP3   OH273191   3.432   5.088   1.728 -0.1034 -0.2901  0.4020
17259TIP3    H173192   3.416   5.038   1.648  0.7100  0.2145 -0.0963
17259TIP3    H273193   3.374   5.049   1.793 -1.7272  0.0893 -0.7473
17260TIP3   OH273194   2.300   5.068   2.771 -0.2976  1.1164  0.3055
17260TIP3    H173195   2.333   5.081   2.682 -1.0244  0.6690 -0.0358
17260TIP3    H273196   2.221   5.015   2.760  0.4230 -0.2333  1.3283
17261TIP3   OH273197   6.148   1.609   4.207 -0.4141  0.0470 -0.1451
17261TIP3    H173198   6.106   1.535   4.250 -1.6019 -0.2089 -1.6883
17261TIP3    H273199   6.151   1.677   4.275 -2.5686 -0.2179  0.2958
17262TIP3   OH273200   1.702   4.410   0.589  0.3174  0.0969 -0.1336
17262TIP3    H173201   1.683   4.499   0.558  0.9194  0.4692  0.5467
17262TIP3    H273202   1.796   4.409   0.603  0.0136  0.1485  2.2654
17263TIP3   OH273203   3.316   0.548   3.255 -0.4012  0.2608 -0.0919
17263TIP3    H173204   3.282   0.520   3.339 -1.8175  0.2530 -0.6483
17263TIP3    H273205   3.370   0.625   3.275 -0.4528  0.0589  0.8494
17264TIP3   OH273206   5.328   1.437  10.188 -0.2335  0.0151 -0.1930
17264TIP3    H173207   5.318   1.469  10.277 -0.9399 -0.9864  0.1056
17264TIP3    H273208   5.244   1.397  10.167  0.4660 -1.2502 -0.6945
17265TIP3   OH273209   1.914   2.727  12.210  0.2638  0.0638 -0.5121
17265TIP3    H173210   1.968   2.663  12.257 -0.0563 -1.3447 -1.9956
17265TIP3    H273211   1.825   2.713  12.244  0.3391  0.4056 -0.1557
17266TIP3   OH273212   3.310   0.945   6.153 -0.1851 -0.2521 -0.3634
17266TIP3    H173213   3.223   0.943   6.114 -0.4976 -0.6711  0.3291
17266TIP3    H273214   3.331   0.853   6.169 -0.6507 -0.0559  1.6707
17267TIP3   OH273215   0.364   2.919   3.435 -0.0805  0.0280 -0.7541
17267TIP3    H173216   0.296   2.977   3.467 -1.5756  0.4969 -4.2642
17267TIP3    H273217   0.435   2.927   3.499 -3.0373 -0.1854  2.8790
17268TIP3   OH273218   3.560   0.135   3.665  0.0231  0.0157 -0.1539
17268TIP3    H173219   3.545   0.052   3.620  0.3713  0.5281 -1.2659
17268TIP3    H273220   3.572   0.199   3.594  2.3360  0.5586  0.6339
17269TIP3   OH273221   1.338   6.020   1.053  0.0055  0.1762 -0.9263
17269TIP3    H173222   1.388   6.101   1.049 -0.2447  0.5822  1.8370
17269TIP3    H273223   1.381   5.969   1.121 -0.0197 -1.9516 -2.4072
17270TIP3   OH273224   1.364   4.781   1.521 -0.1109  0.8436 -0.1826
17270TIP3    H173225   1.272   4.755   1.524 -0.2892  1.3240 -1.0445
17270TIP3    H273226   1.376   4.814   1.432  0.6850  1.5313  0.1673
17271TIP3   OH273227   2.260   1.333   1.887  0.2415 -0.0797 -0.7715
17271TIP3    H173228   2.310   1.277   1.946  0.1549 -1.7917 -2.2239
17271TIP3    H273229   2.302   1.322   1.802 -0.4827  1.2102 -1.3330
17272TIP3   OH273230   7.092   0.320   1.612 -0.3780  0.1565  0.4403
17272TIP3    H173231   7.063   0.232   1.634 -0.5001 -0.6217 -2.5071
17272TIP3    H273232   7.070   0.372   1.690  0.5030 -2.4935  2.6363
17273TIP3   OH273233   1.929   4.553   4.582 -0.3770  0.5347  0.5438
17273TIP3    H173234   1.898   4.536   4.671 -0.3319  0.7964  0.6100
17273TIP3    H273235   2.008   4.499   4.574 -0.6960  0.0747  0.4656
17274TIP3   OH273236   6.183   0.640  13.814  0.3967 -0.5732  0.2367
17274TIP3    H173237   6.271   0.667  13.840  1.5332 -0.1631 -3.5030
17274TIP3    H273238   6.132   0.721  13.814  0.3749 -0.5745  0.9659
17275TIP3   OH273239   0.315   0.020   3.628 -0.3354  0.2158  0.1724
17275TIP3    H173240   0.273   0.105   3.619  1.3348  1.0425 -0.1788
17275TIP3    H273241   0.344   0.016   3.719 -1.1781 -0.3667  0.4261
17276TIP3   OH273242   5.533   3.350   3.100 -0.0068  0.6325  0.7594
17276TIP3    H173243   5.609   3.319   3.149 -0.1561  0.9860  1.2292
17276TIP3    H273244   5.548   3.321   3.010  1.1303  1.4832  0.6544
17277TIP3   OH273245   3.637   0.547   2.359  0.0813  0.3236 -0.0961
17277TIP3    H173246   3.621   0.543   2.454 -1.3419 -0.1126 -0.3182
17277TIP3    H273247   3.708   0.610   2.349  1.1584 -0.5862  1.3552
17278TIP3   OH273248   4.382   2.362   4.969  0.0274  0.2520  0.2791
17278TIP3    H173249   4.403   2.277   5.007  1.1957  0.9994  1.3950
17278TIP3    H273250   4.411   2.355   4.878  0.4838 -0.4102  0.4683
17279TIP3   OH273251   4.404   0.718  11.310  0.0691 -0.2006 -0.1895
17279TIP3    H173252   4.419   0.715  11.405 -0.7488 -1.4285 -0.0668
17279TIP3    H273253   4.321   0.765  11.301 -0.5842 -1.2954 -0.1578
17280TIP3   OH273254   5.512   1.550   2.655  0.0698  0.6513 -0.9907
17280TIP3    H173255   5.596   1.517   2.621  0.5923  0.2179  0.6036
17280TIP3    H273256   5.516   1.644   2.641  0.9678  0.6724 -0.6875
17281TIP3   OH273257   6.558   2.436   4.063  0.5520 -0.2077  0.3326
17281TIP3    H173258   6.572   2.357   4.010 -2.6090 -0.6265 -0.0506
17281TIP3    H273259   6.639   2.486   4.051  2.6641 -3.2603  0.4975
17282TIP3   OH273260   4.919   4.553  13.789 -0.2160 -0.0040  0.2028
17282TIP3    H173261   4.867   4.604  13.727  0.6722 -0.2169 -0.7383
17282TIP3    H273262   4.888   4.463  13.776 -0.1815 -0.0180  0.2178
17283TIP3   OH273263   2.633   2.734   4.633  0.2801 -0.2857 -0.0284
17283TIP3    H173264   2.640   2.757   4.540 -0.0838 -1.2782 -0.3196
17283TIP3    H273265   2.581   2.653   4.633  0.4805 -0.4205  1.0192
17284TIP3   OH273266   6.002   3.629   3.283  0.1407  0.2808  0.5878
17284TIP3    H173267   5.918   3.603   3.322  0.9391  0.1744  2.3604
17284TIP3    H273268   6.058   3.646   3.359  1.5316  0.9706 -0.5666
17285TIP3   OH273269   0.505   1.872   3.417 -0.5301  0.0311 -0.2069
17285TIP3    H173270   0.496   1.794   3.471  2.1609 -0.3174 -0.1432
17285TIP3    H273271   0.492   1.945   3.479 -2.2119 -0.3028 -0.1096
17286TIP3   OH273272   1.692   1.087   2.333 -0.0477 -0.2462  0.1744
17286TIP3    H173273   1.772   1.121   2.372  0.6354  0.1357 -1.4470
17286TIP3    H273274   1.624   1.150   2.358  0.7835  1.1796 -0.9596
17287TIP3   OH273275   7.156   5.974   1.315  0.3049  0.2683 -0.0725
17287TIP3    H173276   7.240   5.947   1.279 -0.7308 -1.8204 -1.1069
17287TIP3    H273277   7.118   6.032   1.248  0.1097 -0.3465 -0.4992
17288TIP3   OH273278   3.223   1.660   5.221 -0.0112 -0.1314  0.2568
17288TIP3    H173279   3.242   1.616   5.304 -1.9959  0.7047  1.2234
17288TIP3    H273280   3.166   1.733   5.245  1.2315  1.5559 -1.5796
17289TIP3   OH273281   2.605   1.437  13.656  0.0418 -0.0285 -1.1178
17289TIP3    H173282   2.700   1.428  13.653  0.3248  1.9874 -0.1767
17289TIP3    H273283   2.580   1.469  13.569  0.4614  0.9388 -0.9010
17290TIP3   OH273284   1.905   2.502   5.619 -0.1551 -0.3818 -0.5167
17290TIP3    H173285   1.874   2.591   5.639  0.4682  0.0549 -1.3857
17290TIP3    H273286   1.926   2.464   5.704 -1.6841 -0.1899 -0.0129
17291TIP3   OH273287   5.114   4.367   5.001  0.5653 -0.3805  0.2322
17291TIP3    H173288   5.136   4.303   4.934 -0.1711  0.2174 -0.6031
17291TIP3    H273289   5.020   4.357   5.015  0.6941 -0.4204  1.0915
17292TIP3   OH273290   0.536   0.858   4.491 -0.0626  0.1016 -0.3267
17292TIP3    H173291   0.454   0.811   4.475  0.0311 -1.5126  2.9046
17292TIP3    H273292   0.596   0.790   4.521  1.5072  1.6797  0.2566
17293TIP3   OH273293   2.802   6.769   5.356 -0.1501 -0.2092  0.1741
17293TIP3    H173294   2.856   6.841   5.323  0.3139 -1.0132 -0.8955
17293TIP3    H273295   2.756   6.806   5.431 -0.0552  1.2566 -0.4466
17294TIP3   OH273296   7.008   2.377   3.542  0.6207 -0.3819 -0.5870
17294TIP3    H173297   7.064   2.433   3.488 -1.3265  1.6581 -0.6251
17294TIP3    H273298   7.026   2.405   3.632  0.2873 -0.3158 -0.5393
17295TIP3   OH273299   6.724   6.696   4.221  0.1958  0.0691  0.6941
17295TIP3    H173300   6.636   6.725   4.243  0.0338  0.6470 -0.6320
17295TIP3    H273301   6.782   6.757   4.266 -0.1253  1.1635 -0.3384
17296TIP3   OH273302   4.012   5.657   3.303 -0.0029  0.3040  0.2675
17296TIP3    H173303   3.923   5.640   3.271 -0.6237  1.4039  1.2986
17296TIP3    H273304   4.064   5.583   3.272 -0.7872  0.7342 -2.2423
17297TIP3   OH273305   3.072   2.940   1.542 -0.3227  0.7427 -0.1119
17297TIP3    H173306   3.116   2.936   1.627  1.4546 -0.7246 -1.0124
17297TIP3    H273307   2.988   2.897   1.557 -0.2693  1.0119  1.0380
17298TIP3   OH273308   0.008   4.097   2.898  0.1588 -0.0123 -0.4110
17298TIP3    H173309   0.007   4.023   2.958 -0.4003  0.3527  0.0456
17298TIP3    H273310  -0.045   4.164   2.942 -2.5289 -0.6542 -2.4127
17299TIP3   OH273311   3.064   0.854   2.157  0.2765  0.3996 -0.4060
17299TIP3    H173312   2.974   0.887   2.154  0.5300  1.1340 -0.2766
17299TIP3    H273313   3.118   0.933   2.160  0.8926 -0.0312  0.2938
17300TIP3   OH273314   5.428   3.423   0.613  0.2572  0.0440 -0.2429
17300TIP3    H173315   5.463   3.335   0.599 -1.2487 -1.0688  2.3486
17300TIP3    H273316   5.355   3.429   0.551  1.3601  0.1690 -1.5928
17301TIP3   OH273317   2.902   5.279   4.698 -0.0708  0.3775 -0.2943
17301TIP3    H173318   2.899   5.370   4.726  0.5824  0.3179 -0.0120
17301TIP3    H273319   2.859   5.231   4.768  2.6996  0.0692  1.3790
17302TIP3   OH273320   6.916   6.705  10.781 -0.1625 -0.3965  0.0399
17302TIP3    H173321   6.929   6.794  10.816  1.1409 -1.0204  1.2375
17302TIP3    H273322   6.821   6.692  10.784 -0.6156  1.6605 -2.0419
17303TIP3   OH273323   3.162   0.317   2.834 -0.0249  0.0627 -0.0264
17303TIP3    H173324   3.153   0.298   2.927  1.3186 -0.5717 -0.0041
17303TIP3    H273325   3.244   0.367   2.827 -0.6583  1.0601 -0.7537
17304TIP3   OH273326   6.528   2.614  14.226 -0.1451  0.6635  0.2225
17304TIP3    H173327   6.508   2.570  14.143 -1.5156 -1.1959  1.4567
17304TIP3    H273328   6.447   2.608  14.277  0.9679  0.7557  2.1229
17305TIP3   OH273329   6.232   2.607   3.242  0.4955  0.3177  0.0195
17305TIP3    H173330   6.300   2.552   3.281 -1.6572 -1.9023  0.9183
17305TIP3    H273331   6.204   2.664   3.314  1.8096  1.7455 -0.5470
17306TIP3   OH273332   1.348   1.255   3.392 -0.1248  0.3545 -0.3079
17306TIP3    H173333   1.282   1.192   3.362 -1.3334  1.2517  0.3608
17306TIP3    H273334   1.307   1.340   3.378  0.4994  0.8936  1.0503
17307TIP3   OH273335   1.884   1.269   5.073 -0.5548  0.2295  0.1213
17307TIP3    H173336   1.976   1.278   5.096 -0.5224  0.1080  0.0373
17307TIP3    H273337   1.848   1.208   5.138 -0.3976 -0.3451 -0.3199
17308TIP3   OH273338   1.635   3.990   4.638  0.5650 -0.2306  0.1404
17308TIP3    H173339   1.630   4.020   4.729 -0.5572 -0.5787  0.1995
17308TIP3    H273340   1.575   4.047   4.590  2.8407  1.5216 -0.8598
17309TIP3   OH273341   3.882   4.944   4.909  0.1810 -0.2572  0.0810
17309TIP3    H173342   3.882   4.977   4.819 -0.7760 -0.1321  0.1068
17309TIP3    H273343   3.971   4.912   4.924 -0.1704 -2.2529 -1.6346
17310TIP3   OH273344   1.154   0.863   2.775  0.3191  0.4048 -0.1929
17310TIP3    H173345   1.247   0.876   2.795  0.5659  1.2566 -1.7107
17310TIP3    H273346   1.129   0.943   2.728 -1.6480  0.9682  1.6588
17311TIP3   OH273347   5.990   3.382   0.286  0.3412  0.4493  0.3785
17311TIP3    H173348   5.984   3.476   0.301  0.7044  0.8704 -1.7169
17311TIP3    H273349   6.058   3.352   0.345  1.4425  1.8369 -0.1444
17312TIP3   OH273350   5.632   6.216   2.821 -0.2823  0.2810 -0.2530
17312TIP3    H173351   5.616   6.294   2.874  0.8834 -0.0786  0.6709
17312TIP3    H273352   5.651   6.148   2.885 -2.3478 -1.0718 -0.9697
17313TIP3   OH273353   4.054   1.467   2.266  0.0691 -0.2203 -0.5606
17313TIP3    H173354   4.065   1.394   2.328  0.6394  0.6551  0.4003
17313TIP3    H273355   4.076   1.545   2.317 -1.9517  0.7825 -1.1295
17314TIP3   OH273356   1.155   5.773   5.579  0.0013 -0.3360  0.0309
17314TIP3    H173357   1.224   5.823   5.621 -1.4578 -0.2384  2.5138
17314TIP3    H273358   1.199   5.697   5.541  1.6944  0.7502 -0.2445
17315TIP3   OH273359   2.559   1.916   0.978  0.1613  0.1954  0.2190
17315TIP3    H173360   2.484   1.922   1.038  1.1515  1.2840  1.3922
17315TIP3    H273361   2.527   1.953   0.896 -1.5289 -2.2084 -0.3146
17316TIP3   OH273362   4.638   2.101   4.572  0.0817  0.0177  0.6499
17316TIP3    H173363   4.652   2.159   4.647  1.2900 -0.0836  0.5262
17316TIP3    H273364   4.726   2.067   4.551 -0.1864  0.2605 -0.9844
17317TIP3   OH273365   6.371   1.138  13.720 -0.4650  0.1661  0.1553
17317TIP3    H173366   6.320   1.219  13.716  1.9072  1.7385 -1.5467
17317TIP3    H273367   6.403   1.125  13.630  0.4120 -1.8564  0.6970
17318TIP3   OH273368   0.229   3.886   0.934 -0.7396  0.9332 -0.2923
17318TIP3    H173369   0.315   3.854   0.959 -0.4120  0.4391 -1.9460
17318TIP3    H273370   0.167   3.831   0.983 -0.1558  1.8697  1.5873
17319TIP3   OH273371   5.078   1.552   0.312 -0.1955 -0.0166  0.2523
17319TIP3    H173372   5.112   1.562   0.223  2.6945 -1.9024  0.9930
17319TIP3    H273373   5.020   1.476   0.308 -2.5686  1.7167 -0.5187
17320TIP3   OH273374   2.611   6.954   1.006 -0.5224 -0.3026  0.7050
17320TIP3    H173375   2.604   6.914   0.920 -0.4412 -1.3622  1.1776
17320TIP3    H273376   2.536   6.920   1.055 -0.7373  0.5213  0.9671
17321TIP3   OH273377   3.739   5.342   5.273  0.1969 -0.6913  0.3248
17321TIP3    H173378   3.795   5.305   5.205  1.1770 -2.6902  2.0769
17321TIP3    H273379   3.799   5.392   5.329 -0.6703  1.3406 -0.4651
17322TIP3   OH273380   0.467   4.292   5.025 -0.3165 -0.0603 -0.6107
17322TIP3    H173381   0.511   4.336   4.952  2.1810  0.1310  0.8943
17322TIP3    H273382   0.506   4.330   5.103 -1.8809 -1.2674  0.8307
17323TIP3   OH273383   4.208   0.906   5.772  0.1282  0.5085  0.2396
17323TIP3    H173384   4.226   0.812   5.779 -2.9854 -0.3302 -1.2968
17323TIP3    H273385   4.119   0.916   5.806 -0.1643  2.6642 -0.9760
17324TIP3   OH273386   4.230   5.664   4.025  0.1126  0.0792  0.0746
17324TIP3    H173387   4.164   5.616   3.975  0.9830  0.5580 -1.6063
17324TIP3    H273388   4.312   5.647   3.978  0.9032  0.8869  1.1174
17325TIP3   OH273389   5.961   0.303   5.351  0.2031  0.2398 -0.4631
17325TIP3    H173390   5.986   0.211   5.348  0.1460  0.2355 -0.8653
17325TIP3    H273391   5.927   0.316   5.440  1.1635  0.1302 -0.0741
17326TIP3   OH273392   1.581   6.717   0.915 -0.3840 -0.5359 -0.0241
17326TIP3    H173393   1.658   6.661   0.903 -0.7789 -1.2576  0.6755
17326TIP3    H273394   1.581   6.738   1.008 -0.0008  1.0171 -0.3596
17327TIP3   OH273395   4.870   1.823  13.289 -0.5057 -0.2318 -0.1017
17327TIP3    H173396   4.915   1.739  13.278  0.3729  0.1560  0.3596
17327TIP3    H273397   4.816   1.811  13.367 -0.4038 -0.3738 -0.0525
17328TIP3   OH273398   5.103   5.715   1.953  0.1553  0.1608 -0.4951
17328TIP3    H173399   5.138   5.803   1.965  0.7493 -0.1351 -0.0194
17328TIP3    H273400   5.143   5.663   2.023 -1.2361 -0.1980  0.0646
17329TIP3   OH273401   5.760   5.187   1.816  0.9369  0.1372 -0.0285
17329TIP3    H173402   5.815   5.206   1.891  1.0317  0.3228 -0.1427
17329TIP3    H273403   5.803   5.114   1.772  1.5868  0.8516 -0.6126
17330TIP3   OH273404   2.099   4.581   2.283 -0.1921 -0.0429  0.4234
17330TIP3    H173405   2.080   4.566   2.375  1.5681 -1.0760  0.6743
17330TIP3    H273406   2.039   4.523   2.236  1.5408 -2.6009  1.1347
17331TIP3   OH273407   4.863   5.419   4.283  0.6997 -0.1196 -0.3982
17331TIP3    H173408   4.793   5.434   4.346  0.5850 -0.6731 -0.3877
17331TIP3    H273409   4.935   5.383   4.334  0.9236  0.2795 -0.4378
17332TIP3   OH273410   2.426   2.229   0.935  0.2842  0.5635 -0.1853
17332TIP3    H173411   2.388   2.222   0.847  0.9772 -1.5440 -0.3808
17332TIP3    H273412   2.363   2.187   0.993  0.7547  0.0935 -0.0023
17333TIP3   OH273413   5.665   5.313   2.108 -0.2427  0.1179  0.0330
17333TIP3    H173414   5.604   5.380   2.076 -1.2497 -1.7535 -2.1835
17333TIP3    H273415   5.609   5.254   2.159  0.1364 -0.4383 -0.1987
17334TIP3   OH273416   7.102   2.562   0.213 -0.6146 -0.3703  0.1866
17334TIP3    H173417   7.158   2.559   0.291  1.9151 -2.8136 -1.5430
17334TIP3    H273418   7.160   2.592   0.143 -1.9440 -1.2419 -1.3432
17335TIP3   OH273419   0.146   3.183   4.836 -0.2094  0.1775  0.1105
17335TIP3    H173420   0.148   3.269   4.794  2.3087  0.3260  0.3944
17335TIP3    H273421   0.121   3.122   4.767 -0.0363  0.8925 -0.5874
17336TIP3   OH273422   6.366   5.294   2.044 -0.1767 -0.1647  0.1418
17336TIP3    H173423   6.371   5.390   2.047 -0.4706 -0.1452  0.0183
17336TIP3    H273424   6.358   5.268   2.136  0.2878 -0.0950  0.2070
17337TIP3   OH273425   5.579   5.164   5.114  0.0485  0.0315  0.1129
17337TIP3    H173426   5.502   5.132   5.068  0.7025 -0.4638 -0.6665
17337TIP3    H273427   5.617   5.085   5.153  0.5752  0.1546 -0.1451
17338TIP3   OH273428   4.606   1.103   1.625  0.0549 -0.1139  0.1942
17338TIP3    H173429   4.696   1.078   1.602 -0.4432 -2.1570  0.3407
17338TIP3    H273430   4.581   1.166   1.558  1.0564 -0.6988 -0.7624
17339TIP3   OH273431   4.054   4.641   3.069  0.5005  0.2289 -0.2342
17339TIP3    H173432   4.095   4.584   3.004  1.0387  0.0083  0.2915
17339TIP3    H273433   3.968   4.602   3.083  0.6218 -0.0824 -0.3490
17340TIP3   OH273434   5.430   3.110   5.373 -0.0454  0.3040 -0.1774
17340TIP3    H173435   5.440   3.064   5.456 -3.4630 -0.3109  0.0239
17340TIP3    H273436   5.422   3.202   5.398 -2.0807  0.0243  0.3580
17341TIP3   OH273437   0.027   4.293   1.663 -0.4858  0.3129  0.4097
17341TIP3    H173438   0.114   4.314   1.630 -0.9543  0.1110 -1.0234
17341TIP3    H273439  -0.025   4.371   1.646 -1.0860 -0.3024 -0.6756
17342TIP3   OH273440   5.123   5.981   5.315  0.1513 -0.3015  0.3093
17342TIP3    H173441   5.066   6.046   5.275  1.2264 -0.4015 -1.5083
17342TIP3    H273442   5.133   6.011   5.406 -2.5975 -0.2160  0.6741
17343TIP3   OH273443   5.868   5.414   4.872 -0.2513  0.2958 -0.0744
17343TIP3    H173444   5.784   5.387   4.908  0.3241 -1.7505 -0.0944
17343TIP3    H273445   5.856   5.410   4.777 -0.2525  0.3499 -0.0760
17344TIP3   OH273446   3.983   4.707  11.898 -0.1994  0.0361 -0.0887
17344TIP3    H173447   4.013   4.661  11.976 -0.9761  0.5986  0.5504
17344TIP3    H273448   4.045   4.680  11.829  2.0076  1.4177  1.2352
17345TIP3   OH273449   6.597   5.938   3.618 -0.0916 -0.6208 -0.1268
17345TIP3    H173450   6.550   5.957   3.537 -3.0976 -0.8260  1.4097
17345TIP3    H273451   6.528   5.919   3.682  2.0143  0.7916  2.8275
17346TIP3   OH273452   2.432   5.647  14.930 -0.3493  0.2410  0.0631
17346TIP3    H173453   2.348   5.632  14.887 -0.3573 -1.7510  0.7056
17346TIP3    H273454   2.424   5.735  14.968 -0.9786  1.3545 -2.4331
17347TIP3   OH273455   3.600   6.721   3.327  0.1235 -0.0622  0.0741
17347TIP3    H173456   3.612   6.778   3.403  0.2539 -1.5746  1.2474
17347TIP3    H273457   3.515   6.744   3.292  0.0150  0.5924  0.7499
17348TIP3   OH273458   2.737   4.016   4.163 -0.6541  0.2009 -0.2743
17348TIP3    H173459   2.742   4.110   4.144 -0.1878  0.1502 -0.4272
17348TIP3    H273460   2.650   4.004   4.199 -0.5525  0.7768  0.1841
17349TIP3   OH273461   4.399   4.454   5.228  0.5393 -0.1702 -0.6269
17349TIP3    H173462   4.353   4.371   5.240  1.4510 -0.7819 -1.2913
17349TIP3    H273463   4.488   4.430   5.203  2.4798  0.8521  4.1098
17350TIP3   OH273464   5.099   0.219  14.157  0.9178  0.8864  0.1821
17350TIP3    H173465   5.066   0.271  14.083  0.5208  2.0256  1.1306
17350TIP3    H273466   5.038   0.145  14.163 -1.8361  3.1050  2.0864
17351TIP3   OH273467   4.440   6.937   3.523 -0.2418  0.4168  0.3284
17351TIP3    H173468   4.458   6.854   3.566 -3.3076 -0.1285  0.7834
17351TIP3    H273469   4.406   6.913   3.436  0.9031  1.3111 -0.3975
17352TIP3   OH273470   3.706   5.920   3.856 -0.5027 -0.0399 -0.0337
17352TIP3    H173471   3.656   5.900   3.935  0.4762 -0.9644  0.3631
17352TIP3    H273472   3.795   5.933   3.886  0.2403 -2.1177 -1.1528
17353TIP3   OH273473   1.609   4.335   4.838  0.4271  0.5433  0.4649
17353TIP3    H173474   1.513   4.332   4.837  0.4079  0.9638  1.0196
17353TIP3    H273475   1.635   4.247   4.864  0.1804  0.5841  0.8487
17354TIP3   OH273476   4.615   5.353  14.480 -0.6090 -0.7252  0.3144
17354TIP3    H173477   4.636   5.435  14.436  1.1450 -1.2361  0.1169
17354TIP3    H273478   4.528   5.330  14.448 -0.4432  0.2252 -0.8979
17355TIP3   OH273479   2.158   0.952   3.880 -0.2160 -0.7483  0.3957
17355TIP3    H173480   2.140   0.905   3.962 -2.3381 -0.6799  0.0215
17355TIP3    H273481   2.138   1.043   3.900 -1.4845 -0.8320 -0.3556
17356TIP3   OH273482   0.441   4.109  14.786 -0.3588 -0.0828  0.2690
17356TIP3    H173483   0.430   4.131  14.878 -0.3333  1.4531 -0.0723
17356TIP3    H273484   0.393   4.177  14.739 -2.6488 -2.2814 -0.8255
17357TIP3   OH273485   2.336   2.324  12.025 -0.1433 -0.8165  0.2181
17357TIP3    H173486   2.349   2.283  12.110 -0.9270  0.2779  0.8924
17357TIP3    H273487   2.417   2.373  12.008 -0.5898  0.2755  1.1123
17358TIP3   OH273488   4.590   3.170   5.305 -0.4342  0.1953 -0.2034
17358TIP3    H173489   4.676   3.155   5.344 -0.6134  1.8286  0.9423
17358TIP3    H273490   4.529   3.155   5.377 -1.0492 -0.0746 -0.7780
17359TIP3   OH273491   3.119   3.703   3.914  0.0159 -0.0604  0.2089
17359TIP3    H173492   3.080   3.660   3.991 -2.5324  1.4613 -0.1324
17359TIP3    H273493   3.119   3.635   3.846  1.4490 -1.1463  1.2173
17360TIP3   OH273494   1.472   2.491   5.583 -0.1967 -0.1946  0.5223
17360TIP3    H173495   1.540   2.499   5.649 -0.2335  0.8018  0.4542
17360TIP3    H273496   1.393   2.522   5.626 -0.6396 -1.4124  0.6236
17361TIP3   OH273497   5.771   6.964   2.285  0.1498  0.0176  0.2024
17361TIP3    H173498   5.690   7.009   2.262 -0.8814 -1.1543  1.4253
17361TIP3    H273499   5.808   6.937   2.201 -1.9829 -1.5264 -0.3408
17362TIP3   OH273500   1.178   1.092   1.418 -0.2448 -0.0409  0.2069
17362TIP3    H173501   1.175   1.165   1.356  0.5761  0.5894  0.8818
17362TIP3    H273502   1.098   1.043   1.402  0.4824 -0.5743 -2.1634
17363TIP3   OH273503   6.103   3.150   4.793  0.0170  0.3698 -0.0965
17363TIP3    H173504   6.185   3.170   4.747 -0.9341 -0.5545 -2.3392
17363TIP3    H273505   6.126   3.078   4.852  0.7743 -0.1322 -0.9633
17364TIP3   OH273506   3.317   5.280   3.170 -0.8592 -0.4031 -0.3982
17364TIP3    H173507   3.388   5.254   3.111 -0.5712  2.2398 -1.3256
17364TIP3    H273508   3.362   5.316   3.247 -1.2323 -0.5660 -0.0985
17365TIP3   OH273509   5.411   6.472   4.018  0.7962  0.7825  0.4037
17365TIP3    H173510   5.493   6.443   3.979  1.3049  1.8197  0.6671
17365TIP3    H273511   5.359   6.504   3.944  1.4267  1.9654  0.4512
17366TIP3   OH273512   0.866   3.566   0.597 -0.0427 -0.3001  0.5494
17366TIP3    H173513   0.923   3.587   0.671  3.6640  0.4016 -2.1837
17366TIP3    H273514   0.883   3.473   0.580 -1.1760 -0.5599  0.7362
17367TIP3   OH273515   0.633   2.197   4.100 -0.2956  0.9717  0.2519
17367TIP3    H173516   0.612   2.289   4.116  0.0528  1.4554 -1.8523
17367TIP3    H273517   0.721   2.186   4.136  0.5805  2.0839 -1.4367
17368TIP3   OH273518   2.096   1.052   2.630  0.0145 -0.1690 -0.0424
17368TIP3    H173519   2.106   1.095   2.714  0.1447 -0.5145  0.1230
17368TIP3    H273520   2.002   1.053   2.612 -0.1167 -0.9379  0.5616
17369TIP3   OH273521   6.516   5.882  12.861  0.2511  0.5742 -0.7482
17369TIP3    H173522   6.519   5.966  12.815 -0.1869  1.6880  1.1169
17369TIP3    H273523   6.529   5.905  12.953 -0.6691 -1.3156 -0.0896
17370TIP3   OH273524   5.662   0.676   5.607  0.3911 -0.7188 -0.1315
17370TIP3    H173525   5.626   0.750   5.658  1.0794 -1.9311  2.2679
17370TIP3    H273526   5.656   0.601   5.667  1.3668 -2.2332 -1.8446
17371TIP3   OH273527   1.778   0.083  14.368  0.0373  0.3085 -0.2284
17371TIP3    H173528   1.711   0.099  14.302 -0.1896  0.7572  0.1076
17371TIP3    H273529   1.745   0.125  14.447  1.1343  1.3488 -0.2821
17372TIP3   OH273530   6.070   0.956   3.004 -0.2584  0.1654 -0.2939
17372TIP3    H173531   6.065   0.888   2.936  0.0751 -1.5641  1.3099
17372TIP3    H273532   6.000   1.017   2.982 -0.4268 -0.5492 -1.9414
17373TIP3   OH273533   1.595   3.274   1.685 -0.7697 -0.2571  0.1257
17373TIP3    H173534   1.594   3.302   1.777  0.7595  0.1349  0.0451
17373TIP3    H273535   1.575   3.353   1.635  1.3434  0.2400  0.0043
17374TIP3   OH273536   1.227   1.336   4.584  0.2491  0.4537 -0.2249
17374TIP3    H173537   1.244   1.300   4.671  0.2547  1.7523  0.3189
17374TIP3    H273538   1.224   1.258   4.527  0.2330 -0.4103  0.9163
17375TIP3   OH273539   4.400   2.413   5.422 -0.0341  0.5208  0.2209
17375TIP3    H173540   4.358   2.497   5.404 -0.9903  0.0886  0.3701
17375TIP3    H273541   4.327   2.351   5.430  0.3610  0.2869  3.4974
17376TIP3   OH273542   2.489   2.759   3.246 -0.1739  0.0814 -0.0132
17376TIP3    H173543   2.527   2.769   3.333 -0.0773  0.2176 -0.0711
17376TIP3    H273544   2.545   2.812   3.189 -1.3845  1.5930  0.1405
17377TIP3   OH273545   4.299   4.853   2.863 -0.3772 -0.0185  0.0939
17377TIP3    H173546   4.227   4.873   2.923 -1.4332 -0.7452 -0.8878
17377TIP3    H273547   4.367   4.817   2.919 -2.2424 -2.9963  0.6631
17378TIP3   OH273548   5.021   0.441   5.209 -0.2487  0.3681 -0.7840
17378TIP3    H173549   4.996   0.411   5.297  1.2497  0.7332 -0.2200
17378TIP3    H273550   4.970   0.521   5.196 -2.2484 -0.9096 -1.2220
17379TIP3   OH273551   0.836   3.958   4.820 -0.0593  0.5751 -0.3564
17379TIP3    H173552   0.872   3.971   4.732  0.2963 -1.2950 -0.5173
17379TIP3    H273553   0.909   3.926   4.872 -0.0667  2.3940  0.8668
17380TIP3   OH273554   5.643   2.136   4.327  0.2607 -0.1585  0.3258
17380TIP3    H173555   5.590   2.210   4.359  1.1681 -0.7714  3.6438
17380TIP3    H273556   5.713   2.176   4.276 -0.4885  1.0795  0.2358
17381TIP3   OH273557   5.958   6.291   2.530 -0.0252  0.0026  0.2484
17381TIP3    H173558   5.977   6.265   2.621 -0.6622  0.4391  0.5155
17381TIP3    H273559   5.863   6.302   2.528  0.0215  0.3276 -0.3895
17382TIP3   OH273560   0.453   1.249  15.063  0.5264 -0.3170  0.1777
17382TIP3    H173561   0.425   1.218  14.977  0.0623 -1.1673  0.6226
17382TIP3    H273562   0.549   1.250  15.059  0.5149  1.9588 -1.1277
17383TIP3   OH273563   5.353   1.395   4.698 -0.5194 -0.0668  0.1395
17383TIP3    H173564   5.355   1.393   4.603 -0.2387  1.3174  0.0987
17383TIP3    H273565   5.423   1.336   4.725 -1.2263 -1.2320 -0.4778
17384TIP3   OH273566   2.429   3.061   3.761 -0.4310 -0.3575  0.6444
17384TIP3    H173567   2.522   3.049   3.781 -0.7050 -0.2082  2.0651
17384TIP3    H273568   2.398   2.974   3.739 -0.1741 -0.5656  1.1042
17385TIP3   OH273569   3.771   3.554   0.029 -0.1264 -0.0714 -0.3726
17385TIP3    H173570   3.755   3.565  -0.065 -1.9465 -1.0053 -0.2314
17385TIP3    H273571   3.717   3.621   0.071  1.3306  0.8994  0.0142
17386TIP3   OH273572   4.509   2.769   4.245  0.4492  0.0318  0.1832
17386TIP3    H173573   4.537   2.681   4.219  1.3670  0.6756 -1.0791
17386TIP3    H273574   4.459   2.754   4.326 -2.1428 -2.0067 -1.6117
17387TIP3   OH273575   0.596   5.373   1.332  0.0469  0.0646 -0.5100
17387TIP3    H173576   0.594   5.436   1.260 -1.4324 -0.2162 -0.7497
17387TIP3    H273577   0.627   5.292   1.292  0.5422  0.2639 -0.5297
17388TIP3   OH273578   0.821   1.999   3.955 -0.0992 -0.6975 -0.5594
17388TIP3    H173579   0.816   1.981   4.049  1.2892  0.7195 -0.1509
17388TIP3    H273580   0.910   1.972   3.931  0.3707  1.0168 -0.9187
17389TIP3   OH273581   2.938   6.983   4.465  0.2478 -0.3170 -0.1140
17389TIP3    H173582   2.943   7.074   4.495 -1.2811 -0.1500 -0.3072
17389TIP3    H273583   2.853   6.976   4.423  0.7981 -1.5664 -1.0725
17390TIP3   OH273584   5.439   3.490   2.433 -0.4941 -0.0706 -0.1353
17390TIP3    H173585   5.493   3.495   2.354  1.9083 -0.1473  1.4154
17390TIP3    H273586   5.492   3.530   2.501 -1.5383 -1.9849  1.9335
17391TIP3   OH273587   5.532   0.525   2.323  0.4691  0.0959 -0.7424
17391TIP3    H173588   5.568   0.554   2.407 -0.1208 -0.3803 -0.3141
17391TIP3    H273589   5.606   0.485   2.277  0.8012  0.3858 -0.4621
17392TIP3   OH273590   0.983   1.267   4.153  0.0904  0.4069  0.2303
17392TIP3    H173591   1.061   1.216   4.174  1.0029  1.6494 -0.0009
17392TIP3    H273592   0.941   1.219   4.082 -0.1986 -1.0775  1.3703
17393TIP3   OH273593   1.391   4.523  12.879  0.0893  0.3025 -0.3510
17393TIP3    H173594   1.393   4.533  12.784  1.6997 -0.2623 -0.3979
17393TIP3    H273595   1.462   4.462  12.898  0.3695  1.1098  1.3071
17394TIP3   OH273596   6.431   6.985   3.523  0.3298  0.1252  0.3199
17394TIP3    H173597   6.349   6.987   3.572  0.5459  1.2970  0.6618
17394TIP3    H273598   6.489   7.044   3.571  2.5097 -3.0596  1.9810
17395TIP3   OH273599   5.525   2.977   1.410  0.3218 -0.6114  0.4378
17395TIP3    H173600   5.508   2.902   1.353 -3.1713  0.8136 -0.6400
17395TIP3    H273601   5.447   2.984   1.465  0.1674  2.5754  0.0153
17396TIP3   OH273602   1.472   2.011   2.831 -0.5042  0.1083  0.4538
17396TIP3    H173603   1.559   2.047   2.812 -0.7472  0.4115 -0.0897
17396TIP3    H273604   1.482   1.969   2.916  0.4277 -0.6450  0.0001
17397TIP3   OH273605   3.408   2.644   5.644  0.3630  0.6988 -0.0562
17397TIP3    H173606   3.480   2.632   5.581  0.3867  0.3955  0.0273
17397TIP3    H273607   3.452   2.671   5.725  0.3219  1.2121 -0.2045
17398TIP3   OH273608   7.015   6.261   5.809  0.2151 -0.2304  0.3247
17398TIP3    H173609   7.017   6.349   5.772  1.0968  0.0320  0.9617
17398TIP3    H273610   7.105   6.245   5.839  0.2898 -1.6862 -0.5495
17399TIP3   OH273611   7.125   4.253   4.629 -1.2471 -0.7425  1.0346
17399TIP3    H173612   7.166   4.202   4.559 -0.1725  1.3709  0.0421
17399TIP3    H273613   7.168   4.222   4.709  1.6581  0.5848  0.1506
17400TIP3   OH273614   6.256   6.060  15.183  0.1234 -0.0351 -0.6452
17400TIP3    H173615   6.293   6.035  15.099 -1.3966 -1.8147 -0.8639
17400TIP3    H273616   6.180   6.115  15.161 -0.5028 -0.8165 -0.4779
17401TIP3   OH273617   1.963   5.371  11.223 -0.4217  0.6618 -0.6627
17401TIP3    H173618   2.031   5.367  11.157 -1.5354 -1.4628 -1.7963
17401TIP3    H273619   1.983   5.299  11.284 -0.2549  1.6330  0.4684
17402TIP3   OH273620   5.048   5.028   5.709 -0.0046 -0.2872 -0.1799
17402TIP3    H173621   4.975   5.089   5.722  0.8253  0.6654  0.1217
17402TIP3    H273622   5.081   5.048   5.622  1.8236  1.4556  0.8349
17403TIP3   OH273623   1.750   2.680   5.794  0.4492  0.0319  0.5940
17403TIP3    H173624   1.712   2.593   5.778  3.6435 -1.0480 -2.4948
17403TIP3    H273625   1.833   2.662   5.839  0.2136  1.7163  1.7798
17404TIP3   OH273626   3.382   4.869   4.584 -0.4230  0.0606  0.0661
17404TIP3    H173627   3.319   4.801   4.610 -1.2297 -0.1166 -2.1521
17404TIP3    H273628   3.329   4.936   4.541  0.6942  0.7614 -0.2580
17405TIP3   OH273629   4.461   0.525   4.852 -0.4037  0.1416 -0.5521
17405TIP3    H173630   4.502   0.590   4.795 -1.3536  0.4820 -0.8810
17405TIP3    H273631   4.372   0.518   4.818 -1.2555  0.9359  1.3617
17406TIP3   OH273632   4.317   0.475   2.759  0.4755 -0.5586 -0.0650
17406TIP3    H173633   4.390   0.479   2.697  1.0276 -2.0499  0.4400
17406TIP3    H273634   4.254   0.416   2.718  0.8509 -1.5679  0.7465
17407TIP3   OH273635   3.610   0.767   4.439  0.0389 -0.3864  0.3750
17407TIP3    H173636   3.530   0.808   4.472  0.5674  1.6501 -0.7058
17407TIP3    H273637   3.640   0.712   4.512 -1.0553  0.6926  1.7034
17408TIP3   OH273638   0.437   0.115   3.874 -0.2244  0.2520  0.0326
17408TIP3    H173639   0.461   0.050   3.940 -2.4395 -1.2144 -0.4715
17408TIP3    H273640   0.520   0.143   3.836  1.0426  0.4601  2.7466
17409TIP3   OH273641   0.852   0.787  15.415  0.5125 -0.3037  0.1164
17409TIP3    H173642   0.836   0.830  15.499  1.7517 -1.2901  0.8884
17409TIP3    H273643   0.773   0.735  15.399  0.3571 -0.2774  0.7779
17410TIP3   OH273644   2.678   0.744  12.828 -0.1484  0.0969 -0.8160
17410TIP3    H173645   2.590   0.757  12.792 -0.1093  0.0808 -0.9175
17410TIP3    H273646   2.726   0.700  12.758 -0.0883  0.0148 -0.7231
17411TIP3   OH273647   0.928   0.752   5.085 -0.2839 -0.1771  0.1009
17411TIP3    H173648   0.855   0.720   5.033 -1.4256  0.3672  1.3347
17411TIP3    H273649   0.890   0.775   5.169  0.9249  2.0794  0.0985
17412TIP3   OH273650   2.372   0.135  10.620 -0.1394 -0.3311  0.7578
17412TIP3    H173651   2.341   0.067  10.681 -0.0268 -0.9375  0.1476
17412TIP3    H273652   2.451   0.097  10.580 -1.7707 -1.2108 -1.9084
17413TIP3   OH273653   0.640   7.088   5.088 -0.2098  0.2029 -0.1113
17413TIP3    H173654   0.686   7.169   5.068  0.1908 -0.2475 -1.0995
17413TIP3    H273655   0.640   7.083   5.184 -0.7340  1.6253 -0.0153
17414TIP3   OH273656   6.686   2.753   2.189  0.3950 -0.1518 -0.2647
17414TIP3    H173657   6.695   2.719   2.278  2.1792 -0.8350 -0.6696
17414TIP3    H273658   6.592   2.760   2.176  0.0152 -2.2418  0.8743
17415TIP3   OH273659   0.954   5.371   3.798  0.4924 -0.2747  0.2662
17415TIP3    H173660   0.940   5.282   3.831 -2.8853  0.1070  0.1398
17415TIP3    H273661   1.004   5.358   3.717  0.4291 -2.0239  0.4644
17416TIP3   OH273662   6.505   1.879   2.211 -0.7115 -0.9947  0.0660
17416TIP3    H173663   6.418   1.918   2.198 -1.2212 -2.0954  0.0471
17416TIP3    H273664   6.553   1.944   2.262 -1.3343 -0.0952 -0.4542
17417TIP3   OH273665   2.924   5.457   1.578  0.4759 -0.9233  0.7452
17417TIP3    H173666   3.003   5.410   1.552  1.1728 -0.1230  1.3759
17417TIP3    H273667   2.902   5.512   1.503  0.0674 -1.6990  0.2802
17418TIP3   OH273668   2.388   3.728   2.464  0.0414  0.5840  0.0015
17418TIP3    H173669   2.329   3.775   2.403 -0.5563 -2.0744 -1.6349
17418TIP3    H273670   2.471   3.723   2.417 -0.2988 -1.1060 -0.4896
17419TIP3   OH273671   3.803   5.438   2.356  0.0179 -0.1909  0.4155
17419TIP3    H173672   3.832   5.384   2.283 -1.0293  0.1631 -0.2725
17419TIP3    H273673   3.774   5.520   2.316  0.0777  0.2732  1.2969
17420TIP3   OH273674   3.810   2.008   3.798 -0.6365 -0.2636 -0.5861
17420TIP3    H173675   3.795   1.915   3.814 -2.3595 -0.1264 -1.2136
17420TIP3    H273676   3.905   2.016   3.792 -0.4368 -1.8990 -0.0432
17421TIP3   OH273677   1.653   5.244   1.303 -0.2237 -0.0724  0.2613
17421TIP3    H173678   1.653   5.227   1.397  0.4750 -0.4483  0.1960
17421TIP3    H273679   1.570   5.290   1.287 -0.0625  0.5626  1.1616
17422TIP3   OH273680   1.370   0.729   1.463 -0.3250  0.5393 -0.5579
17422TIP3    H173681   1.440   0.709   1.400 -0.0041  2.0227 -0.7247
17422TIP3    H273682   1.290   0.701   1.419  0.1161 -0.8159 -0.5309
17423TIP3   OH273683   6.206   4.712   2.767  0.1311 -0.1146  0.2582
17423TIP3    H173684   6.252   4.629   2.755  0.0485  0.0881 -1.9726
17423TIP3    H273685   6.114   4.691   2.755 -0.1337 -0.0472  1.9436
17424TIP3   OH273686   5.473   0.675   3.849  0.0222 -0.4778  0.7197
17424TIP3    H173687   5.544   0.736   3.830  0.1033 -0.6613  0.4129
17424TIP3    H273688   5.509   0.616   3.916 -1.1706  1.8301  3.6203
17425TIP3   OH273689   5.530   6.738   2.146  0.2678 -0.0857 -0.4438
17425TIP3    H173690   5.608   6.780   2.111  0.6214  0.2863  0.7478
17425TIP3    H273691   5.502   6.794   2.218 -0.4062 -0.8479 -0.0880
17426TIP3   OH273692   6.079   3.600   2.980 -0.5753  0.0868  0.2887
17426TIP3    H173693   6.077   3.506   2.997 -0.6041  0.2661  1.3265
17426TIP3    H273694   6.081   3.640   3.067  2.0540  0.9955 -0.0868
17427TIP3   OH273695   3.681   0.867   4.774 -0.1142  0.1899 -0.2130
17427TIP3    H173696   3.671   0.959   4.798 -0.5815  0.5506 -1.7134
17427TIP3    H273697   3.737   0.867   4.697 -1.2489 -0.6524 -1.0833
17428TIP3   OH273698   0.666   5.985   4.688 -0.0005 -0.5079  0.3495
17428TIP3    H173699   0.598   6.005   4.623 -0.0339 -1.3558  0.1038
17428TIP3    H273700   0.625   6.005   4.772  0.7712  2.7238  0.0901
17429TIP3   OH273701   5.287   1.932   4.143 -0.7878 -0.8000 -0.1498
17429TIP3    H173702   5.280   1.837   4.152  0.0545 -0.7159  2.1248
17429TIP3    H273703   5.380   1.946   4.125 -0.6802 -0.3662  0.7090
17430TIP3   OH273704   1.075   1.931   3.884  0.5172  0.1852  0.4240
17430TIP3    H173705   1.164   1.905   3.906  0.3347 -0.6238  0.2582
17430TIP3    H273706   1.077   1.949   3.790  0.2159 -1.1801  0.1365
17431TIP3   OH273707   0.092   1.587   4.979  0.4607 -0.1806 -0.7665
17431TIP3    H173708   0.168   1.645   4.977  1.6176 -1.2518  3.2502
17431TIP3    H273709   0.044   1.612   5.058 -2.0834 -1.1298 -1.9035
17432TIP3   OH273710   5.444   6.019   4.375 -0.3749 -0.0076  0.3531
17432TIP3    H173711   5.453   6.007   4.469 -0.6562 -0.6756  0.3039
17432TIP3    H273712   5.395   5.941   4.346 -0.2388  0.1625 -0.3480
17433TIP3   OH273713   4.215   6.643   4.868 -0.1730  0.1316  0.0353
17433TIP3    H173714   4.177   6.690   4.943 -0.6369  0.8242 -0.6238
17433TIP3    H273715   4.305   6.675   4.863  0.3773 -1.1157  1.2714
17434TIP3   OH273716   0.560   4.750   5.902 -0.5107  0.8888 -0.3897
17434TIP3    H173717   0.520   4.705   5.976 -0.7496  1.7640  0.0239
17434TIP3    H273718   0.652   4.723   5.904 -1.0769 -1.3754 -1.5251
17435TIP3   OH273719   5.674   4.256   0.479 -0.5623 -0.5024 -0.2668
17435TIP3    H173720   5.758   4.210   0.488 -0.2976 -0.0323 -0.2471
17435TIP3    H273721   5.677   4.325   0.546 -0.8055 -0.2529 -0.5085
17436TIP3   OH273722   2.208   6.486   4.285 -0.0101  0.0258 -0.3520
17436TIP3    H173723   2.129   6.508   4.334  0.2864  0.3247  0.0040
17436TIP3    H273724   2.184   6.409   4.234 -0.0538 -0.8829  0.9744
17437TIP3   OH273725   5.450   1.773   5.624  0.4371 -0.0731 -0.2371
17437TIP3    H173726   5.373   1.767   5.568  0.0852  0.6142  0.1557
17437TIP3    H273727   5.505   1.839   5.583 -0.5349  1.5911  1.0202
17438TIP3   OH273728   2.958   0.254   2.035 -0.1506  0.0808  0.6230
17438TIP3    H173729   3.022   0.323   2.051 -0.9354  1.0961 -0.4977
17438TIP3    H273730   2.944   0.255   1.941 -1.6321 -0.2753  0.8141
17439TIP3   OH273731   3.724   6.924   5.287  0.0439  0.1854 -0.8234
17439TIP3    H173732   3.666   6.999   5.291  0.0790  0.1710  1.2686
17439TIP3    H273733   3.812   6.961   5.287  0.0796  0.1767 -2.7409
17440TIP3   OH273734   3.746   0.578   5.567 -0.0611 -0.2014 -0.4956
17440TIP3    H173735   3.807   0.647   5.595  0.4438 -1.1968  0.9630
17440TIP3    H273736   3.737   0.591   5.473 -0.8363  2.5197 -0.1352
17441TIP3   OH273737   2.332   5.015   3.544 -0.1806 -0.2054  0.0002
17441TIP3    H173738   2.416   4.993   3.584 -0.5178 -1.5430  0.0552
17441TIP3    H273739   2.297   5.087   3.597  0.1225 -0.8550  1.1091
17442TIP3   OH273740   2.397   0.910   5.074  0.9836  0.1708 -0.4854
17442TIP3    H173741   2.395   0.962   5.154  0.6065  1.5361 -1.3296
17442TIP3    H273742   2.344   0.833   5.094 -1.5642  1.8636 -0.2678
17443TIP3   OH273743   0.683   0.196   2.042  0.2048  0.1787 -0.2639
17443TIP3    H173744   0.596   0.221   2.072 -0.0441  0.4623 -1.1997
17443TIP3    H273745   0.739   0.207   2.119 -0.4690  0.6231  0.1674
17444TIP3   OH273746   4.954   4.781   5.193 -0.1620  0.1570  0.2971
17444TIP3    H173747   4.913   4.815   5.272  0.6498  1.6638  0.1112
17444TIP3    H273748   4.902   4.704   5.169 -0.4777 -0.2750  2.2262
17445TIP3   OH273749   4.902   2.682   0.534 -0.4461  0.1445 -0.6749
17445TIP3    H173750   4.985   2.644   0.562 -0.8217 -0.2319 -0.0415
17445TIP3    H273751   4.837   2.615   0.555 -0.9197  0.4661 -1.0927
17446TIP3   OH273752   1.653   2.902   4.751 -1.0942  0.2579 -0.6421
17446TIP3    H173753   1.710   2.966   4.708 -0.3338  1.8713  2.4746
17446TIP3    H273754   1.567   2.942   4.749 -0.6597  1.3658  1.1095
17447TIP3   OH273755   5.677   5.689  10.676 -0.2499 -0.2794  0.5865
17447TIP3    H173756   5.618   5.749  10.629 -0.7650 -0.7290  0.6576
17447TIP3    H273757   5.619   5.622  10.712  0.3752 -1.0388  0.1749
17448TIP3   OH273758   6.196   6.192  14.478 -0.0717  0.1527  0.4523
17448TIP3    H173759   6.233   6.104  14.486  0.4960  0.3820  0.4192
17448TIP3    H273760   6.112   6.178  14.433 -0.1389 -0.4015  0.7345
17449TIP3   OH273761   5.265   3.862   4.139  0.2190  0.1600 -0.0573
17449TIP3    H173762   5.286   3.893   4.227  2.2371  2.1057 -1.1311
17449TIP3    H273763   5.193   3.918   4.110  1.4239  1.5004 -0.6163
17450TIP3   OH273764   1.630   5.321  11.155  0.1342 -0.2598 -0.1666
17450TIP3    H173765   1.648   5.227  11.159  1.8027  0.0347  0.0856
17450TIP3    H273766   1.553   5.333  11.210 -0.2651 -1.5038 -0.4028
17451TIP3   OH273767   1.305   1.829   5.162 -0.0753 -0.1326  0.4502
17451TIP3    H173768   1.375   1.825   5.227 -1.2149  1.1582  1.8037
17451TIP3    H273769   1.285   1.922   5.153 -1.5167 -0.4601 -0.0245
17452TIP3   OH273770   4.102   5.343   2.409  0.2832  0.0698  0.1887
17452TIP3    H173771   4.047   5.420   2.398 -0.4504 -0.0917  2.3742
17452TIP3    H273772   4.052   5.285   2.467  1.1564 -1.7298 -0.7522
17453TIP3   OH273773   2.787   1.221   3.835  0.2334 -0.2195  0.0318
17453TIP3    H173774   2.849   1.293   3.842  0.3733 -0.4561  1.5036
17453TIP3    H273775   2.702   1.261   3.853  0.4546 -0.6061  2.2251
17454TIP3   OH273776   6.451   6.323   2.561  0.0115  0.3019 -0.4013
17454TIP3    H173777   6.399   6.385   2.511  1.5507  0.8321 -1.4134
17454TIP3    H273778   6.458   6.246   2.504  0.2860  0.2146 -0.2531
17455TIP3   OH273779   6.635   0.165   2.366 -0.0623 -0.2785 -0.4452
17455TIP3    H173780   6.693   0.089   2.359  2.3171  1.3768  0.0479
17455TIP3    H273781   6.602   0.178   2.277 -2.3757 -3.1240 -0.1618
17456TIP3   OH273782   1.312   3.906   2.396  0.1625 -0.4001 -0.1932
17456TIP3    H173783   1.291   3.815   2.377  0.6813 -0.6406  0.3457
17456TIP3    H273784   1.277   3.955   2.322 -1.4657 -0.8600  0.2416
17457TIP3   OH273785   3.920   6.554   3.375  0.1731 -0.2265 -0.2963
17457TIP3    H173786   4.006   6.516   3.388  1.0876  1.5372 -0.9114
17457TIP3    H273787   3.859   6.483   3.396  1.7671 -1.8319 -0.8764
17458TIP3   OH273788   6.584   2.674   4.989 -0.1708 -0.4124  0.1124
17458TIP3    H173789   6.643   2.618   5.040  1.3860 -0.1333 -1.2801
17458TIP3    H273790   6.633   2.756   4.977 -1.9553  0.8747  1.1640
17459TIP3   OH273791   5.621   0.227  15.473 -0.3645 -0.1192  0.2734
17459TIP3    H173792   5.625   0.314  15.513 -1.3750  0.3886 -0.6705
17459TIP3    H273793   5.547   0.232  15.413  0.1636 -1.3414 -0.5161
17460TIP3   OH273794   5.821   0.380   1.937 -0.0380  0.2153 -0.0478
17460TIP3    H173795   5.785   0.328   2.009  2.8075 -1.0087  0.6277
17460TIP3    H273796   5.876   0.446   1.980  0.5954  0.3578 -1.0382
17461TIP3   OH273797   6.772   1.828   1.807 -0.1039  0.5953  0.2292
17461TIP3    H173798   6.799   1.812   1.897 -0.5239 -0.6025  0.1591
17461TIP3    H273799   6.685   1.867   1.815  0.1633  1.1765  0.3536
17462TIP3   OH273800   3.036   5.506   2.044  0.0779 -0.0438 -0.3938
17462TIP3    H173801   2.959   5.489   2.099  0.8626 -1.6283  0.2776
17462TIP3    H273802   3.016   5.462   1.961 -0.8144  1.7731 -1.2065
17463TIP3   OH273803   2.336   7.152   3.365 -0.1730  0.1895  0.2669
17463TIP3    H173804   2.419   7.172   3.407 -0.1721 -0.8461  0.7752
17463TIP3    H273805   2.270   7.198   3.418  0.1776  2.5552 -1.1873
17464TIP3   OH273806   0.866   1.260   6.163 -0.4642 -0.1439  0.0701
17464TIP3    H173807   0.838   1.172   6.188  2.6531 -1.8536 -1.8059
17464TIP3    H273808   0.843   1.267   6.070  0.6813  0.3283 -0.2046
17465TIP3   OH273809   1.992   4.494  15.094  0.4980  0.2315  0.1480
17465TIP3    H173810   2.014   4.491  15.001 -0.8823 -1.2219 -0.1677
17465TIP3    H273811   2.077   4.505  15.137  1.0885  1.7237 -1.2858
17466TIP3   OH273812   1.561   4.845   5.425  0.5068  0.3134  0.2759
17466TIP3    H173813   1.512   4.924   5.406  0.7330  0.4644  0.3142
17466TIP3    H273814   1.638   4.850   5.368 -0.8735 -1.2814 -1.8992
17467TIP3   OH273815   3.361   2.324   3.761 -0.3459 -0.3819  0.0000
17467TIP3    H173816   3.394   2.342   3.849 -2.6363 -1.0070  1.0657
17467TIP3    H273817   3.391   2.235   3.742  0.6389 -0.0324 -0.0977
17468TIP3   OH273818   2.629   2.662   0.516 -0.7308  0.0690  0.2083
17468TIP3    H173819   2.596   2.716   0.445  2.5231  1.1564 -0.6808
17468TIP3    H273820   2.608   2.710   0.596  1.2275  2.3420 -0.5090
17469TIP3   OH273821   2.932   6.428   2.397 -0.3528 -0.2384  0.0975
17469TIP3    H173822   3.019   6.430   2.356  0.1617  0.6020  1.1722
17469TIP3    H273823   2.889   6.506   2.363 -1.3279 -1.5009 -1.7015
17470TIP3   OH273824   3.980   0.224   1.858  0.4508  0.4528  0.5413
17470TIP3    H173825   4.075   0.218   1.863  0.3540 -1.3617  0.6327
17470TIP3    H273826   3.954   0.155   1.798 -0.9045  0.0250  1.5746
17471TIP3   OH273827   0.172   5.358  11.538  0.0972  0.2412  0.4413
17471TIP3    H173828   0.139   5.447  11.545  2.3424  1.0473  1.7417
17471TIP3    H273829   0.184   5.329  11.629  1.1067 -0.7028  0.0322
17472TIP3   OH273830   4.215   7.046   2.996  0.1098 -0.5358  0.2453
17472TIP3    H173831   4.273   7.029   3.070  0.0354  1.9125  0.9681
17472TIP3    H273832   4.203   7.141   2.997 -1.6353 -0.6713 -1.6169
17473TIP3   OH273833   4.228   1.896  15.037 -0.3584  0.2631 -0.4207
17473TIP3    H173834   4.248   1.883  15.130 -4.2676 -2.2255  0.3090
17473TIP3    H273835   4.311   1.924  14.998  2.1054 -1.0724  3.3239
17474TIP3   OH273836   1.958   2.028   0.804  0.1573 -0.2638 -0.3805
17474TIP3    H173837   1.913   1.984   0.876  0.9417  0.8529  0.8336
17474TIP3    H273838   1.891   2.081   0.762 -0.1022 -0.1730  0.1455
17475TIP3   OH273839   6.366   5.028  14.447  0.4166 -0.0717 -0.2714
17475TIP3    H173840   6.358   4.963  14.377 -0.5384 -1.1357  0.7673
17475TIP3    H273841   6.311   4.994  14.517  3.4167 -0.4847  2.0867
17476TIP3   OH273842   3.604   0.653  13.015 -0.1374  0.3087  0.3686
17476TIP3    H173843   3.569   0.612  13.094  0.4053  1.4283  1.2169
17476TIP3    H273844   3.526   0.685  12.969 -0.5746 -1.6128 -0.3200
17477TIP3   OH273845   2.690   1.375   3.253 -0.0816  0.5728  0.0263
17477TIP3    H173846   2.729   1.352   3.168 -0.0180  0.1831  0.1620
17477TIP3    H273847   2.623   1.309   3.268  0.7463 -0.0928  0.8650
17478TIP3   OH273848   4.671   0.234   4.235  0.2367 -0.2134 -0.5697
17478TIP3    H173849   4.648   0.327   4.238 -0.6069 -0.3683 -1.5864
17478TIP3    H273850   4.607   0.195   4.175 -1.7236 -2.1116  2.4991
17479TIP3   OH273851   6.199   2.742   5.933  0.1068 -0.4270 -0.1829
17479TIP3    H173852   6.110   2.739   5.966 -0.0265  0.7731 -0.3981
17479TIP3    H273853   6.247   2.678   5.986 -1.0277 -1.6554 -0.5817
17480TIP3   OH273854   6.825   1.431   2.978 -0.1038 -0.6693 -0.0150
17480TIP3    H173855   6.830   1.520   3.015 -0.7828 -0.7286  0.2330
17480TIP3    H273856   6.753   1.435   2.915  0.5443 -0.7779 -0.7806
17481TIP3   OH273857   2.972   3.789   1.981  0.2803  0.2720 -0.1309
17481TIP3    H173858   2.956   3.810   1.888  1.0784  1.2341 -0.0611
17481TIP3    H273859   3.065   3.806   1.994 -0.1985  2.1666  1.3388
17482TIP3   OH273860   6.245   0.601  12.616 -0.4886 -0.1365 -0.1013
17482TIP3    H173861   6.167   0.655  12.632  0.8570  1.5511  1.2932
17482TIP3    H273862   6.267   0.566  12.702  0.8318  0.2240 -0.2761
17483TIP3   OH273863   0.688   5.690   5.955  0.0305 -0.2002  0.3988
17483TIP3    H173864   0.660   5.599   5.940 -1.7610  0.6868 -2.3890
17483TIP3    H273865   0.783   5.687   5.948 -0.0741 -1.7054 -1.0378
17484TIP3   OH273866   2.910   4.826  15.149  0.1355  0.2931  0.3669
17484TIP3    H173867   2.839   4.820  15.214 -0.4957  0.5811 -0.2795
17484TIP3    H273868   2.926   4.920  15.140  1.0310  0.2052  0.9551
17485TIP3   OH273869   4.114   0.054   3.866 -0.5090 -0.1163  0.0178
17485TIP3    H173870   4.114   0.024   3.775 -0.6672 -2.6765  0.7880
17485TIP3    H273871   4.043   0.005   3.907  1.2446 -1.0639  2.1073
17486TIP3   OH273872   5.601   0.057   3.385 -0.3270 -0.0564  0.4823
17486TIP3    H173873   5.666  -0.000   3.344 -1.2167 -1.4018  0.8880
17486TIP3    H273874   5.630   0.066   3.475 -0.0528  0.3300  0.3541
17487TIP3   OH273875   0.104   5.478   1.738  0.4073  0.7854  0.0119
17487TIP3    H173876   0.028   5.421   1.730  0.4389  0.8080 -0.5512
17487TIP3    H273877   0.123   5.504   1.647  0.5748  1.4460  0.2310
17488TIP3   OH273878   0.766   4.146   3.014 -0.5085 -0.0512 -0.0309
17488TIP3    H173879   0.691   4.091   3.033 -1.6112  2.1141  2.7089
17488TIP3    H273880   0.735   4.208   2.948 -1.2799  0.8749  1.1356
17489TIP3   OH273881   4.720   6.322   2.654 -0.1508 -0.1151 -0.1610
17489TIP3    H173882   4.763   6.391   2.603 -1.6816 -0.2622 -1.7352
17489TIP3    H273883   4.648   6.367   2.698 -0.1474 -0.4246  0.1702
17490TIP3   OH273884   3.066   5.316   4.476 -0.0281  0.1278  0.1830
17490TIP3    H173885   3.002   5.298   4.408 -1.2604  3.2749  0.3378
17490TIP3    H273886   3.020   5.301   4.558 -0.2051  1.1807  0.2916
17491TIP3   OH273887   3.822   6.432   1.414 -0.5528 -0.4101  0.6443
17491TIP3    H173888   3.766   6.498   1.455 -0.9684 -1.2119  1.3781
17491TIP3    H273889   3.785   6.421   1.326 -1.3381 -0.6723  1.0011
17492TIP3   OH273890   1.624   5.306  12.289 -0.4219  0.0859 -0.3027
17492TIP3    H173891   1.645   5.335  12.200  1.2087  0.1437  0.0637
17492TIP3    H273892   1.625   5.386  12.341 -2.1383  0.1570 -0.3374
17493TIP3   OH273893   3.084   2.780   2.231  0.0469  0.5004  0.0154
17493TIP3    H173894   3.045   2.843   2.170  1.6275  0.8915 -0.6318
17493TIP3    H273895   3.154   2.738   2.181  0.4304 -0.2183  1.1181
17494TIP3   OH273896   6.368   2.600   3.936  0.0401 -0.5011  0.0293
17494TIP3    H173897   6.439   2.540   3.960  0.1191  0.4741  2.4724
17494TIP3    H273898   6.372   2.670   4.001 -0.6380  1.7231 -2.1602
17495TIP3   OH273899   5.322   3.582   5.237  0.7903  0.0756  0.0651
17495TIP3    H173900   5.297   3.648   5.172  1.6535  0.3091 -0.0448
17495TIP3    H273901   5.265   3.599   5.312  0.5794  0.5436 -0.1965
17496TIP3   OH273902   6.007   5.475  14.060  0.2791  0.1403 -0.9163
17496TIP3    H173903   5.920   5.492  14.096  0.1110  1.4189 -1.8279
17496TIP3    H273904   6.044   5.407  14.116 -0.3740  1.2587  0.9681
17497TIP3   OH273905   0.212   1.232   4.242  0.6747  0.2021 -0.1112
17497TIP3    H173906   0.301   1.199   4.230  0.1849 -1.1743 -0.1090
17497TIP3    H273907   0.170   1.219   4.157  0.2703  0.1883  0.0902
17498TIP3   OH273908   5.923   2.988   1.489  0.4886  0.2065 -0.0306
17498TIP3    H173909   5.896   2.896   1.498  0.8920 -0.1190 -1.8303
17498TIP3    H273910   5.848   3.038   1.522  0.9943 -0.7221  2.8436
17499TIP3   OH273911   0.412   5.591  14.861  0.2467  0.4841  0.2556
17499TIP3    H173912   0.415   5.495  14.866 -1.3366  0.3007 -1.2775
17499TIP3    H273913   0.323   5.610  14.833 -0.1524  2.5610  2.6205
17500TIP3   OH273914   4.379   2.991   4.838  0.3821 -0.0395 -0.1410
17500TIP3    H173915   4.357   3.024   4.751 -2.8041  0.6136  0.7858
17500TIP3    H273916   4.365   3.065   4.896 -0.3148 -1.1838  1.2259
17501TIP3   OH273917   2.469   3.944   5.332 -0.3209 -0.6177  0.1366
17501TIP3    H173918   2.514   3.898   5.261 -0.5530  0.9747 -1.0865
17501TIP3    H273919   2.378   3.949   5.304 -0.7377 -1.3509  1.3000
17502TIP3   OH273920   6.543   1.255  14.729  0.1622 -0.2433 -0.7093
17502TIP3    H173921   6.528   1.180  14.786 -2.1020  0.1113 -0.7547
17502TIP3    H273922   6.628   1.290  14.758  0.3456 -1.6457  0.6067
17503TIP3   OH273923   6.930   5.742   1.390  0.1666 -0.2555  0.5260
17503TIP3    H173924   6.863   5.700   1.337  0.9453  0.4094 -1.0226
17503TIP3    H273925   7.012   5.719   1.348  0.7008  1.6055  0.4720
17504TIP3   OH273926   3.348   6.413  14.849  0.4988 -0.1961  0.1983
17504TIP3    H173927   3.374   6.504  14.838 -0.4658  0.1210  0.4387
17504TIP3    H273928   3.430   6.364  14.849  1.1038  0.7847  1.2176
17505TIP3   OH273929   2.200   6.227  11.320 -0.0642  0.1247  0.2941
17505TIP3    H173930   2.166   6.298  11.374 -2.7524 -2.4611  2.3813
17505TIP3    H273931   2.130   6.208  11.257  1.9596  1.3360 -2.5693
17506TIP3   OH273932   1.357   0.550  14.872  0.3110  0.3192 -0.1209
17506TIP3    H173933   1.370   0.585  14.783 -1.4936 -2.7476 -1.7491
17506TIP3    H273934   1.401   0.466  14.872 -0.4178 -0.1113  1.6496
17507TIP3   OH273935   6.142   2.909   4.895 -0.0438  0.0500  0.2247
17507TIP3    H173936   6.202   2.856   4.946 -0.7012 -0.7221  0.2088
17507TIP3    H273937   6.106   2.849   4.829 -0.0466  0.7563 -0.4327
17508TIP3   OH273938   1.681   2.311   4.007 -0.1761  0.5935  0.2120
17508TIP3    H173939   1.735   2.376   3.962 -0.5940  1.0114  0.3033
17508TIP3    H273940   1.703   2.228   3.964  0.6202  0.7347  0.3255
17509TIP3   OH273941   7.127   6.829   1.600 -0.2913  0.0753  0.2748
17509TIP3    H173942   7.189   6.901   1.610  1.5959 -1.6310  1.8687
17509TIP3    H273943   7.162   6.777   1.528  0.5122 -1.1585  1.4918
17510TIP3   OH273944   7.009   5.501   0.180 -0.1325 -0.2205  0.0438
17510TIP3    H173945   7.038   5.422   0.134  0.0792  0.6790 -1.4263
17510TIP3    H273946   6.920   5.516   0.149  0.1239  0.5762 -0.3336
17511TIP3   OH273947   0.494   6.202   5.328 -0.1259 -0.2482  0.1776
17511TIP3    H173948   0.571   6.167   5.375 -0.2417  2.5188  2.7347
17511TIP3    H273949   0.527   6.224   5.241  2.0561  0.8358  1.1882
17512TIP3   OH273950   5.362   5.955   5.846 -0.6135 -0.1663 -0.3720
17512TIP3    H173951   5.269   5.974   5.831 -0.4660 -0.2245 -1.4569
17512TIP3    H273952   5.408   6.022   5.796 -0.0687 -0.2660 -0.0092
17513TIP3   OH273953   1.699   0.079   3.740 -1.0204 -0.9801 -0.2266
17513TIP3    H173954   1.678   0.151   3.682 -1.9429 -1.0394  0.0169
17513TIP3    H273955   1.781   0.043   3.706 -1.5089 -0.9712 -1.4411
17514TIP3   OH273956   2.670   6.765   4.521 -0.3337  0.1325  0.0604
17514TIP3    H173957   2.594   6.753   4.578 -0.7571  1.3200 -0.2270
17514TIP3    H273958   2.660   6.698   4.453 -0.1419 -0.9015  1.0202
17515TIP3   OH273959   2.330   7.058  12.068  0.4581 -0.0579  0.6198
17515TIP3    H173960   2.243   7.057  12.107 -0.3521 -1.4514 -1.0872
17515TIP3    H273961   2.380   6.995  12.119  0.2879  0.2738  1.2066
17516TIP3   OH273962   2.014   1.284   5.753  0.0677  0.0786 -0.5669
17516TIP3    H173963   2.078   1.291   5.825  0.5488 -0.1812 -0.9597
17516TIP3    H273964   1.935   1.326   5.787  0.7899  1.3938 -0.4628
17517TIP3   OH273965   0.205   3.915   0.086  0.0041  0.5567 -0.2074
17517TIP3    H173966   0.122   3.882   0.120 -0.0696  0.2494 -0.6775
17517TIP3    H273967   0.196   4.011   0.090  0.3595  0.5380  1.5033
17518TIP3   OH273968   2.961   4.982   4.867 -0.3095  0.8330  0.7414
17518TIP3    H173969   2.879   4.974   4.817  0.2097  0.9329 -0.1513
17518TIP3    H273970   2.941   4.942   4.952 -0.1410 -2.8457 -0.7853
17519TIP3   OH273971   5.952   0.109   2.119  0.2830 -0.1031 -0.0040
17519TIP3    H173972   5.977   0.176   2.182 -0.6726 -0.0735  0.3578
17519TIP3    H273973   5.857   0.114   2.115  0.2941 -0.3810 -1.1474
17520TIP3   OH273974   2.773   6.979   4.216  0.1023  0.3682  0.0697
17520TIP3    H173975   2.754   7.071   4.231  1.1418  0.8150 -1.2457
17520TIP3    H273976   2.844   6.978   4.152 -2.5678 -1.3411 -3.2152
17521TIP3   OH273977   0.789   2.958   2.178  0.2623  0.3914  0.3104
17521TIP3    H173978   0.714   2.914   2.137 -2.0545  2.5135  1.9300
17521TIP3    H273979   0.836   2.888   2.223 -1.3929 -0.8928  0.1674
17522TIP3   OH273980   0.027   2.510   4.285 -0.5290  0.5905 -0.0662
17522TIP3    H173981  -0.015   2.508   4.371  0.7937  0.5516  0.6100
17522TIP3    H273982   0.110   2.555   4.300  1.2712 -2.3195 -0.5801
17523TIP3   OH273983   5.406   2.689   4.766  0.1138 -0.7832  0.2317
17523TIP3    H173984   5.339   2.626   4.737 -0.0223 -1.0321  1.0658
17523TIP3    H273985   5.379   2.714   4.854  0.2300  0.3719 -0.0427
17524TIP3   OH273986   2.491   4.227  15.036  0.2222 -0.2008 -0.3874
17524TIP3    H173987   2.399   4.251  15.030  0.9631  2.6961 -3.4089
17524TIP3    H273988   2.525   4.283  15.106  0.0750  0.4484 -0.8221
17525TIP3   OH273989   5.776   2.195   4.075 -0.4885 -0.3032  0.3459
17525TIP3    H173990   5.855   2.145   4.055 -0.7761  0.4079 -3.0682
17525TIP3    H273991   5.805   2.261   4.139  0.7866 -2.2227  1.8493
17526TIP3   OH273992   1.576   4.019   0.737 -0.0298 -0.0926  0.1807
17526TIP3    H173993   1.643   4.061   0.790 -0.5277  0.3450  0.4808
17526TIP3    H273994   1.552   4.084   0.671 -0.0278 -0.3124 -0.0401
17527TIP3   OH273995   3.994   4.134   3.531 -0.6186  0.3776  0.0184
17527TIP3    H173996   4.070   4.081   3.555 -1.7895 -1.9235 -0.9598
17527TIP3    H273997   3.925   4.105   3.591 -1.0214  1.6769  0.2161
17528TIP3   OH273998   1.479   2.123   2.503 -0.1885  0.1656 -0.0296
17528TIP3    H173999   1.501   2.216   2.504  0.3802  0.0453 -0.4036
17528TIP3    H274000   1.384   2.120   2.500 -0.2814  0.7255  1.5377
17529TIP3   OH274001   6.033   2.744   3.131  0.4125  0.5136 -0.1161
17529TIP3    H174002   6.072   2.795   3.060  1.0192 -0.4454 -0.4976
17529TIP3    H274003   6.095   2.672   3.145 -0.9537 -0.7699 -0.3828
17530TIP3   OH274004   0.411   1.474   3.804  0.6127 -0.5659  0.0594
17530TIP3    H174005   0.488   1.524   3.830  0.5183 -0.9527  1.1312
17530TIP3    H274006   0.408   1.401   3.865 -1.0569 -0.1215  0.5728
17531TIP3   OH274007   5.503   4.575   5.572 -0.3273  0.2795  0.0175
17531TIP3    H174008   5.471   4.497   5.619 -1.2130  0.9365  0.5436
17531TIP3    H274009   5.571   4.611   5.629  0.1200 -0.1339 -0.2516
17532TIP3   OH274010   3.156   3.071   4.389 -0.7390  0.5168  0.0921
17532TIP3    H174011   3.169   3.079   4.294 -1.6344 -0.1465 -0.1032
17532TIP3    H274012   3.067   3.038   4.398 -0.1133 -1.0123  1.0973
17533TIP3   OH274013   1.249   5.140   3.814  0.9777 -0.1805  0.3139
17533TIP3    H174014   1.233   5.100   3.900 -0.3672 -0.5147 -0.0697
17533TIP3    H274015   1.263   5.233   3.833  1.7584 -0.4267  0.9895
17534TIP3   OH274016   4.002   2.453  14.308  0.6146  0.0440  0.3402
17534TIP3    H174017   3.997   2.525  14.371  2.9940  0.0731  0.5935
17534TIP3    H274018   3.946   2.480  14.235  1.1414  1.9965  0.6003
17535TIP3   OH274019   0.633   6.461   2.197 -0.1667 -0.5722  0.3965
17535TIP3    H174020   0.650   6.405   2.272 -0.8516 -1.1309  0.1467
17535TIP3    H274021   0.539   6.450   2.179 -0.1547  0.0705 -0.1231
17536TIP3   OH274022   0.613   2.938  11.112  0.2745  0.0747 -0.1206
17536TIP3    H174023   0.579   2.914  11.025 -3.9534 -0.6231  1.5035
17536TIP3    H274024   0.625   2.855  11.157  0.7505  0.5050  0.5592
17537TIP3   OH274025   0.074   6.456  14.507 -0.5981 -0.3391  0.2525
17537TIP3    H174026   0.065   6.415  14.593 -2.8643 -0.8573 -0.1773
17537TIP3    H274027   0.051   6.548  14.522 -1.0591 -0.4435  0.2015
17538TIP3   OH274028   2.850   1.906   2.785  0.6530  0.3035 -0.1951
17538TIP3    H174029   2.770   1.860   2.759  2.9405 -1.7690 -4.6198
17538TIP3    H274030   2.853   1.982   2.727  0.5734  2.1052  2.0182
17539TIP3   OH274031   4.355   1.204   5.512 -0.1668 -0.3070  0.6665
17539TIP3    H174032   4.370   1.292   5.547 -0.3571  0.5635 -1.2726
17539TIP3    H274033   4.385   1.145   5.580  0.9544  1.2773  1.6125
17540TIP3   OH274034   5.657   7.118   0.388 -0.2511  0.0634  0.4525
17540TIP3    H174035   5.597   7.142   0.458  0.4880 -0.7889  1.4138
17540TIP3    H274036   5.737   7.168   0.407 -0.0639 -0.1344  0.2015
17541TIP3   OH274037   6.597   5.866   2.187  0.0186  0.5746  0.5366
17541TIP3    H174038   6.549   5.832   2.263  0.7192  0.3110  0.8667
17541TIP3    H274039   6.643   5.789   2.152  0.3875  0.8740  0.3633
17542TIP3   OH274040   0.226   6.470   3.277  0.0882 -0.1390 -0.0043
17542TIP3    H174041   0.302   6.527   3.282 -0.2714  0.4950 -1.2691
17542TIP3    H274042   0.165   6.516   3.219 -0.2366 -1.7784 -1.0406
17543TIP3   OH274043   3.255   0.699   4.478  0.2179  0.1817 -0.1566
17543TIP3    H174044   3.284   0.684   4.388  0.5589  0.4668 -0.0965
17543TIP3    H274045   3.329   0.743   4.520 -0.9711  2.7574 -0.5337
17544TIP3   OH274046   5.080   6.629   1.896 -0.1216  0.3096 -0.2608
17544TIP3    H174047   5.167   6.660   1.920  0.0817  0.6221 -1.3552
17544TIP3    H274048   5.020   6.697   1.927  0.2554  1.4432 -1.9013
17545TIP3   OH274049   3.232   6.515   4.175  0.8323  0.3215  0.1787
17545TIP3    H174050   3.274   6.450   4.119  1.4256 -1.8266  2.8649
17545TIP3    H274051   3.142   6.520   4.143  0.6925 -2.1005 -0.0017
17546TIP3   OH274052   5.237   6.502   3.819 -0.6337 -0.1285 -0.2415
17546TIP3    H174053   5.267   6.475   3.732  0.3590 -1.5763  0.5134
17546TIP3    H274054   5.177   6.434   3.846  0.2795 -0.5396  0.8410
17547TIP3   OH274055   6.996   4.792  13.623 -0.3057  0.1460 -0.2635
17547TIP3    H174056   7.086   4.761  13.622 -1.0519 -2.5513  2.5179
17547TIP3    H274057   6.981   4.825  13.535  2.9917 -0.4803 -1.1781
17548TIP3   OH274058   0.860   0.100   4.376 -0.5118 -0.1506  0.3434
17548TIP3    H174059   0.802   0.129   4.306 -0.5478  0.5475  0.6538
17548TIP3    H274060   0.835   0.009   4.391  0.1846 -0.6284 -1.2314
17549TIP3   OH274061   0.704   1.602   4.363  0.5398 -0.2630  0.5555
17549TIP3    H174062   0.777   1.564   4.412 -0.2903 -1.8815  0.6035
17549TIP3    H274063   0.713   1.567   4.274 -0.2372 -0.5906  0.5931
17550TIP3   OH274064   5.715   6.924   2.016  0.0091 -0.0523  0.5566
17550TIP3    H174065   5.672   6.998   1.972  0.2416  0.1852  0.7279
17550TIP3    H274066   5.784   6.897   1.956  1.4558  1.3667  1.4908
17551TIP3   OH274067   6.233   3.176  15.320  0.2820  0.0788  0.1033
17551TIP3    H174068   6.215   3.167  15.413  0.4718 -0.1605  0.1188
17551TIP3    H274069   6.178   3.110  15.277  1.8163 -1.3625  0.2324
17552TIP3   OH274070   2.352   6.146   1.732 -0.4063  0.8206 -0.0530
17552TIP3    H174071   2.350   6.186   1.645 -0.8635 -3.1322 -2.0900
17552TIP3    H274072   2.260   6.134   1.755 -0.3827 -1.6911 -0.9788
17553TIP3   OH274073   6.696   1.404   2.187  0.2515  0.0702 -0.2831
17553TIP3    H174074   6.783   1.367   2.195  0.8228  1.3585 -0.1834
17553TIP3    H274075   6.709   1.487   2.140 -0.8699  0.4056 -0.0534
17554TIP3   OH274076   2.471   2.251  11.762  0.1483  0.3201  0.1012
17554TIP3    H174077   2.558   2.256  11.722 -0.3122 -0.8864 -1.1160
17554TIP3    H274078   2.441   2.342  11.766  1.0502  0.6475 -0.4109
17555TIP3   OH274079   0.425   1.897   5.625  0.4234  0.2685 -0.5786
17555TIP3    H174080   0.366   1.927   5.694  2.0244  1.6617  0.2722
17555TIP3    H274081   0.415   1.802   5.623 -0.9141  0.3672  0.3786
17556TIP3   OH274082   2.923   4.808  14.868  0.4005  0.5316  0.5101
17556TIP3    H174083   2.846   4.796  14.812  0.5825 -0.8832  0.5278
17556TIP3    H274084   2.888   4.833  14.953 -0.0512 -0.1319  0.5245
17557TIP3   OH274085   2.179   3.092  13.846  0.2136 -0.1455  0.3637
17557TIP3    H174086   2.250   3.045  13.889  0.3704  0.6435  1.0025
17557TIP3    H274087   2.118   3.112  13.917  0.6628  1.5298  0.3226
17558TIP3   OH274088   4.215   6.460   5.198  0.1735  0.1253  0.0996
17558TIP3    H174089   4.307   6.435   5.184 -0.0109 -0.2691 -0.4222
17558TIP3    H274090   4.201   6.446   5.291  0.6260  0.1206  0.1710
17559TIP3   OH274091   2.372   1.547   3.290 -1.2211  0.4244 -0.4552
17559TIP3    H174092   2.409   1.548   3.202  0.8458 -3.9703  0.0992
17559TIP3    H274093   2.292   1.495   3.282  0.5385 -2.6981  0.5130
17560TIP3   OH274094   4.419   4.813   0.704 -0.0230 -0.0109 -0.2129
17560TIP3    H174095   4.416   4.762   0.785  2.8137 -2.3906 -1.4225
17560TIP3    H274096   4.477   4.887   0.725  1.1504 -0.9178 -0.1459
17561TIP3   OH274097   3.743   6.831   4.758  0.1530 -0.4015 -0.7712
17561TIP3    H174098   3.770   6.840   4.850  0.7746 -0.7131 -0.9200
17561TIP3    H274099   3.763   6.740   4.736 -0.8636 -0.5853 -0.9454
17562TIP3   OH274100   1.441   2.950   1.130  0.2328  0.2129  0.0678
17562TIP3    H174101   1.506   2.994   1.185 -1.3806  2.7902  0.0524
17562TIP3    H274102   1.456   2.856   1.147  2.4727  0.7624  1.7086
17563TIP3   OH274103   4.214   4.099   4.778 -0.2241  1.0428 -0.4567
17563TIP3    H174104   4.297   4.070   4.739  0.4330  1.1096  0.8356
17563TIP3    H274105   4.220   4.072   4.869 -2.2857 -0.2898 -0.6580
17564TIP3   OH274106   2.079   2.146  14.770  0.7690 -0.1943  0.3692
17564TIP3    H174107   2.135   2.117  14.698 -0.8050  0.7917 -1.3447
17564TIP3    H274108   2.081   2.241  14.766 -0.6574 -0.1302  0.5299
17565TIP3   OH274109   0.018   0.175   3.292 -0.4253 -0.3278  0.3095
17565TIP3    H174110   0.050   0.197   3.205 -2.3190 -0.5973 -0.5034
17565TIP3    H274111   0.038   0.082   3.303  0.4365 -0.1307  0.4616
17566TIP3   OH274112   4.701   3.532   0.592  0.1407  0.2762 -0.3358
17566TIP3    H174113   4.786   3.493   0.611 -0.7760 -1.2126  0.9804
17566TIP3    H274114   4.687   3.516   0.499  1.5813  1.1893 -0.7414
17567TIP3   OH274115   6.547   4.739   1.438  0.2924  0.1297 -0.1316
17567TIP3    H174116   6.593   4.655   1.444 -0.9963 -0.6447 -0.6320
17567TIP3    H274117   6.505   4.749   1.523 -0.2535 -0.1558 -0.3667
17568TIP3   OH274118   4.052   6.430   0.439  0.3784  0.3020 -0.4554
17568TIP3    H174119   4.118   6.426   0.508 -0.0155 -0.8231 -0.1282
17568TIP3    H274120   3.977   6.383   0.475 -0.0828  0.3195 -1.3786
17569TIP3   OH274121   5.391   0.327   3.631 -0.0218 -0.6586 -0.1846
17569TIP3    H174122   5.317   0.360   3.581  0.2424 -0.7062 -0.6103
17569TIP3    H274123   5.355   0.255   3.683 -0.3971 -0.3077  0.0507
17570TIP3   OH274124   0.183   4.305   3.556  0.2709 -0.2706  0.3846
17570TIP3    H174125   0.133   4.289   3.476 -1.4400  1.4517  1.0351
17570TIP3    H274126   0.218   4.219   3.580  0.6841 -0.8698 -2.0567
17571TIP3   OH274127   2.047   5.960   5.675 -0.4836 -0.4258 -0.0495
17571TIP3    H174128   1.984   5.891   5.698 -2.0738  0.2673 -2.0389
17571TIP3    H274129   2.123   5.913   5.641 -1.1047 -1.2437 -0.3591
17572TIP3   OH274130   4.142   1.608   5.693  0.5093 -0.1250 -0.0277
17572TIP3    H174131   4.115   1.587   5.782  1.0751  1.1049  0.4510
17572TIP3    H274132   4.109   1.697   5.678  0.8928 -0.1067 -0.8380
17573TIP3   OH274133   4.625   4.618   1.839 -0.2978  0.0675  0.3461
17573TIP3    H174134   4.583   4.533   1.831  0.0777 -0.1407  0.5446
17573TIP3    H274135   4.560   4.681   1.807 -1.4018 -0.0556  2.1915
17574TIP3   OH274136   0.523   5.429   4.879 -0.0725  0.4801 -0.2942
17574TIP3    H174137   0.562   5.516   4.878  0.2786  0.3262 -1.1646
17574TIP3    H274138   0.550   5.390   4.796 -1.8941  0.2857 -0.8526
17575TIP3   OH274139   1.703   6.694   3.653 -0.5327 -0.3162 -0.6175
17575TIP3    H174140   1.799   6.696   3.646 -0.5114  1.4493 -0.2341
17575TIP3    H274141   1.683   6.607   3.685  1.1641  0.1604  2.0246
17576TIP3   OH274142   2.320   6.651  12.114  0.2343 -0.1212  0.6794
17576TIP3    H174143   2.260   6.578  12.128  1.8209 -1.5131  0.4998
17576TIP3    H274144   2.287   6.694  12.034 -2.2120  0.9971  2.1595
17577TIP3   OH274145   3.525   1.069   5.748  0.0411  0.4096 -0.1966
17577TIP3    H174146   3.616   1.091   5.768 -0.0017  0.5312 -0.1371
17577TIP3    H274147   3.497   1.136   5.686 -0.2167  0.7638  0.2969
17578TIP3   OH274148   6.185   6.113   2.454  0.0544 -0.3487 -0.1716
17578TIP3    H174149   6.108   6.166   2.473  0.9108  1.2062 -0.8716
17578TIP3    H274150   6.172   6.084   2.363 -0.2516 -1.0883  0.0996
17579TIP3   OH274151   5.730   2.879   4.610 -0.1369 -0.2546  0.3511
17579TIP3    H174152   5.671   2.935   4.661 -1.5223 -1.4664  0.1564
17579TIP3    H274153   5.796   2.939   4.576 -1.5553  1.2758  0.1304
17580TIP3   OH274154   1.070   1.721   5.268  0.2035 -0.2190  0.4504
17580TIP3    H174155   1.142   1.771   5.228  1.0175 -0.5035  1.4960
17580TIP3    H274156   0.998   1.728   5.205  0.5646  1.5564  0.1573
17581TIP3   OH274157   2.987   3.288   3.613 -0.1391  0.2427 -0.2153
17581TIP3    H174158   3.030   3.303   3.529 -1.5459 -1.3234 -1.2826
17581TIP3    H274159   3.058   3.263   3.672  1.1135  3.0000 -0.4176
17582TIP3   OH274160   6.508   3.122   3.039 -0.9495  0.3618  0.4740
17582TIP3    H174161   6.526   3.069   2.962 -0.5266  0.9824  0.1362
17582TIP3    H274162   6.520   3.062   3.113 -0.3152  0.0374  0.1118
17583TIP3   OH274163   3.674   0.813   3.663  0.2252  0.6799  0.6495
17583TIP3    H174164   3.607   0.873   3.631 -0.3429  0.5473  1.5406
17583TIP3    H274165   3.709   0.770   3.585 -2.0564 -0.6287  0.2712
17584TIP3   OH274166   0.400   6.017   5.944  0.4825 -0.1888  0.2537
17584TIP3    H174167   0.351   6.097   5.961  0.3493  0.1262 -1.4066
17584TIP3    H274168   0.485   6.047   5.911  0.9597 -0.7340  0.9667
17585TIP3   OH274169   2.473   4.663   4.879 -0.2294 -0.2830  0.0059
17585TIP3    H174170   2.452   4.703   4.963 -2.8819 -0.5019 -0.4669
17585TIP3    H274171   2.392   4.670   4.828  1.4625  0.4583 -2.8097
17586TIP3   OH274172   2.505   3.405   4.817 -0.4572 -1.2679 -0.2644
17586TIP3    H174173   2.498   3.441   4.906  0.1133 -0.1110 -0.6614
17586TIP3    H274174   2.428   3.440   4.772 -0.1045 -0.8549 -0.5501
17587TIP3   OH274175   1.512   1.838   2.468  0.7565  0.3340 -0.6403
17587TIP3    H174176   1.505   1.933   2.479  0.3721  0.0395  3.1551
17587TIP3    H274177   1.422   1.809   2.451  0.7918  0.5972 -1.2826
17588TIP3   OH274178   0.619   1.411   5.206 -0.7727 -0.0008 -0.6635
17588TIP3    H174179   0.641   1.392   5.115  0.7713 -0.9953 -0.1196
17588TIP3    H274180   0.535   1.457   5.201 -1.1855 -0.8507 -2.5168
17589TIP3   OH274181   4.834   6.693   1.066  0.3031 -0.1736  0.5398
17589TIP3    H174182   4.824   6.788   1.063 -0.4299 -0.0951  3.1853
17589TIP3    H274183   4.763   6.660   1.011  0.7627  0.7862 -0.6665
17590TIP3   OH274184   6.017   1.319   4.868  0.4481  0.0069 -0.2936
17590TIP3    H174185   6.065   1.400   4.849 -1.4059  0.8326 -1.7711
17590TIP3    H274186   6.004   1.279   4.782 -0.6586 -0.6742  0.1823
17591TIP3   OH274187   7.080   2.251   2.688 -1.2228  0.0088 -0.0056
17591TIP3    H174188   7.021   2.200   2.631 -2.2966 -0.6242  1.5997
17591TIP3    H274189   7.097   2.193   2.762 -0.8991  1.2785  0.9434
17592TIP3   OH274190   1.593   1.337   2.956  0.3567  0.1703  0.0380
17592TIP3    H174191   1.631   1.363   2.872  0.8670  0.3193  0.3030
17592TIP3    H274192   1.670   1.323   3.013  0.0599 -1.1047  0.1436
17593TIP3   OH274193   2.759   1.503  15.320  0.5482  0.1828  0.1752
17593TIP3    H174194   2.718   1.481  15.403 -0.9657  2.0224 -0.0194
17593TIP3    H274195   2.853   1.498  15.337  0.2643 -1.1708  1.4848
17594TIP3   OH274196   4.862   4.111   3.242 -0.4607  0.5189  0.4885
17594TIP3    H174197   4.882   4.090   3.333  1.0188  0.6606  0.2208
17594TIP3    H274198   4.879   4.030   3.194 -0.3610  0.6893  0.2333
17595TIP3   OH274199   3.942   4.299   3.873  0.1875 -0.6108 -0.7228
17595TIP3    H174200   4.025   4.290   3.827 -0.7588  0.8829 -2.9130
17595TIP3    H274201   3.876   4.296   3.804 -1.3089  2.3497  0.4153
17596TIP3   OH274202   3.830   1.543   3.617 -0.1497  0.4028  0.2774
17596TIP3    H174203   3.905   1.490   3.645  1.0494 -0.0428 -3.2544
17596TIP3    H274204   3.754   1.486   3.631  0.4741 -0.2077  1.3717
17597TIP3   OH274205   3.028   1.488   4.927 -1.3202  0.1545  0.6146
17597TIP3    H174206   3.013   1.508   4.835  0.8067 -0.4300  0.0915
17597TIP3    H274207   2.958   1.426   4.950 -0.9171 -0.9866 -1.0763
17598TIP3   OH274208   4.972   2.975   4.327 -0.1139  0.0387  0.3759
17598TIP3    H174209   4.904   2.987   4.260  1.0180  3.2060 -0.4026
17598TIP3    H274210   4.928   2.926   4.397 -2.3885 -0.3509 -1.2063
17599TIP3   OH274211   4.286   4.525   4.180  0.0153  0.3126  0.5587
17599TIP3    H174212   4.345   4.539   4.255 -0.4272 -1.2430  1.2377
17599TIP3    H274213   4.344   4.509   4.106  0.4711 -0.8169  1.1424
17600TIP3   OH274214   6.986   4.301   3.012  0.2387 -0.2819  0.5410
17600TIP3    H174215   6.902   4.301   3.059  1.1658  0.3579  2.2770
17600TIP3    H274216   6.993   4.390   2.977 -0.6762 -0.8970 -1.3024
17601TIP3   OH274217   3.744   2.470   3.269  0.0878  0.6206 -0.3648
17601TIP3    H174218   3.734   2.535   3.339  0.0024  0.2736 -0.0487
17601TIP3    H274219   3.831   2.432   3.285 -0.4610 -0.3846  0.3609
17602TIP3   OH274220   3.674   3.296   0.818 -0.8425 -0.6577  0.1302
17602TIP3    H174221   3.653   3.214   0.775 -0.6877  0.7635 -2.9235
17602TIP3    H274222   3.589   3.341   0.826 -0.7428 -0.5299  0.5073
17603TIP3   OH274223   1.273   1.123   4.020  0.1786  0.3668  0.0414
17603TIP3    H174224   1.341   1.137   4.086  1.1292  0.6707 -0.9727
17603TIP3    H274225   1.277   1.029   4.002  0.9915  0.5327 -0.6929
17604TIP3   OH274226   6.487   4.048   2.666 -0.1231 -0.0125  0.3009
17604TIP3    H174227   6.392   4.056   2.675 -0.0318 -0.0475  1.3598
17604TIP3    H274228   6.518   4.138   2.658 -0.0781  0.1346  1.8805
17605TIP3   OH274229   1.155   1.115  15.006 -0.3812  0.0102  0.0851
17605TIP3    H174230   1.201   1.052  15.061  0.1656 -0.4908 -0.9182
17605TIP3    H274231   1.084   1.064  14.966  0.7295 -0.2975 -1.5983
17606TIP3   OH274232   0.395   6.734   2.452  0.2068 -0.4004  0.0259
17606TIP3    H174233   0.342   6.810   2.475 -1.1867 -1.1096 -0.6675
17606TIP3    H274234   0.460   6.768   2.390 -0.3052  0.2614 -0.1656
17607TIP3   OH274235   4.319   4.540   2.017  0.2213  0.3120  0.1973
17607TIP3    H174236   4.278   4.593   2.086 -2.6434  0.2928 -1.3374
17607TIP3    H274237   4.357   4.604   1.957  1.3144  0.3835  0.9405
17608TIP3   OH274238   6.363   5.176   3.048 -0.3484 -0.7474  0.0885
17608TIP3    H174239   6.456   5.160   3.062  0.0483  0.1029 -1.3657
17608TIP3    H274240   6.339   5.241   3.114  0.0724 -1.0193  0.5064
17609TIP3   OH274241   0.684   5.995   2.436 -0.5846 -0.2395  0.1093
17609TIP3    H174242   0.631   5.928   2.394  0.7494 -2.3189  1.5676
17609TIP3    H274243   0.670   5.983   2.530 -0.3441  1.5959  0.4285
17610TIP3   OH274244   3.120   4.176   2.738 -0.3923 -0.1613 -0.3971
17610TIP3    H174245   3.118   4.139   2.650 -0.4006  0.7522 -0.7908
17610TIP3    H274246   3.144   4.268   2.725 -1.2666  0.2083  0.4697
17611TIP3   OH274247   4.871   0.002   3.978 -0.3351  0.2825 -0.1149
17611TIP3    H174248   4.929  -0.048   3.921 -0.5651  0.5389 -0.5733
17611TIP3    H274249   4.851  -0.057   4.050 -1.7414 -0.8101 -1.3432
17612TIP3   OH274250   5.385   2.650   2.874  0.3235  0.0420  0.0072
17612TIP3    H174251   5.369   2.693   2.790  0.2060  0.1790  0.1010
17612TIP3    H274252   5.298   2.637   2.912  0.3553 -0.2902 -0.0258
17613TIP3   OH274253   4.993   3.092  13.384 -0.1030 -0.5313  0.0512
17613TIP3    H174254   5.085   3.080  13.406  0.4433  0.8165 -1.3131
17613TIP3    H274255   4.974   3.022  13.321 -0.0019 -0.8020  0.3215
17614TIP3   OH274256   2.805   4.493   0.272 -0.1848  0.3806  0.2681
17614TIP3    H174257   2.740   4.457   0.332  0.0095 -1.6401 -0.6600
17614TIP3    H274258   2.888   4.484   0.318 -0.1482 -0.3283  0.0783
17615TIP3   OH274259   4.413   5.733   3.811  0.1859  0.1942  0.5740
17615TIP3    H174260   4.345   5.800   3.804  0.8856  0.8369 -0.4444
17615TIP3    H274261   4.463   5.742   3.730  1.7263  0.0235  1.4730
17616TIP3   OH274262   5.116   3.923  10.819  0.5001  0.1698 -0.0198
17616TIP3    H174263   5.044   3.906  10.881  0.7339  0.5248  0.3556
17616TIP3    H274264   5.079   3.902  10.733  0.1531 -0.2723  0.2338
17617TIP3   OH274265   6.551   4.652   0.805  0.3010  0.4732 -0.2002
17617TIP3    H174266   6.644   4.650   0.827  0.2964 -1.1042 -0.2150
17617TIP3    H274267   6.513   4.713   0.868  1.1915  0.3981  0.4358
17618TIP3   OH274268   1.134   2.828   5.456  0.1507 -0.3410 -0.2545
17618TIP3    H174269   1.208   2.887   5.470  0.1210 -0.4305  0.2880
17618TIP3    H274270   1.174   2.748   5.421  0.5632 -1.1103  1.8556
17619TIP3   OH274271   1.227   6.003   5.768 -0.1575  0.5799 -0.1380
17619TIP3    H174272   1.311   5.958   5.766 -0.0048  0.8844 -1.7404
17619TIP3    H274273   1.250   6.095   5.781 -0.1923  0.7476 -1.2241
17620TIP3   OH274274   2.048   1.836   5.034  0.5683 -0.0316 -0.4400
17620TIP3    H174275   2.070   1.929   5.048 -1.4439  0.4524 -0.1964
17620TIP3    H274276   1.969   1.838   4.981 -0.4876 -1.5423  0.9699
17621TIP3   OH274277   3.802   3.016   5.465  0.1310  0.2248 -0.1089
17621TIP3    H174278   3.896   3.034   5.464  0.6580 -2.0609 -2.1355
17621TIP3    H274279   3.777   3.026   5.557  1.8548  2.9318  0.1666
17622TIP3   OH274280   1.662   3.130   4.009 -0.3187 -0.2225  0.1185
17622TIP3    H174281   1.731   3.176   3.961 -0.5708 -1.1390 -1.1776
17622TIP3    H274282   1.687   3.137   4.101  3.6252 -3.7038 -0.4014
17623TIP3   OH274283   2.560   4.265   3.176 -0.6457  0.0968  0.0546
17623TIP3    H174284   2.517   4.215   3.106  1.6481 -0.0661 -1.3240
17623TIP3    H274285   2.530   4.355   3.163 -2.0670 -0.2923  0.3883
17624TIP3   OH274286   1.802   4.039   2.862  0.2858 -0.3032 -0.2385
17624TIP3    H174287   1.751   3.962   2.836  0.2674 -0.0905 -0.8310
17624TIP3    H274288   1.764   4.065   2.946 -0.1040 -0.5784 -0.3263
17625TIP3   OH274289   0.391   1.673   3.597  0.2951  0.2999  0.1289
17625TIP3    H174290   0.373   1.733   3.669 -0.6992  0.3987 -0.1882
17625TIP3    H274291   0.386   1.586   3.635  1.0014  0.3854  0.4320
17626TIP3   OH274292   5.785   4.699   3.625  0.5189  0.1024  0.1605
17626TIP3    H174293   5.879   4.688   3.639  0.2982 -2.2721  0.2447
17626TIP3    H274294   5.774   4.689   3.530  0.4980  2.1996 -0.1046
17627TIP3   OH274295   5.049   5.306   1.819  0.1876  0.1619  0.0532
17627TIP3    H174296   5.112   5.287   1.750  0.1232 -2.0103  0.5159
17627TIP3    H274297   4.973   5.252   1.798 -0.0261 -0.1543  1.5033
17628TIP3   OH274298   5.266   4.267   0.382  0.2336  0.2450  0.1849
17628TIP3    H174299   5.319   4.189   0.365 -1.2919 -0.7423 -0.1722
17628TIP3    H274300   5.299   4.332   0.320  0.4091 -0.6396 -0.6784
17629TIP3   OH274301   3.976   6.460   4.889 -0.2885 -0.0776  0.7686
17629TIP3    H174302   4.051   6.519   4.885 -1.3329  1.2738  0.5475
17629TIP3    H274303   4.012   6.379   4.927  1.3635  0.3608  0.2273
17630TIP3   OH274304   1.390   3.234   3.924 -0.2000  0.7010 -0.6092
17630TIP3    H174305   1.464   3.197   3.973 -0.8789  1.2310  0.8830
17630TIP3    H274306   1.324   3.164   3.923  0.5466 -0.0606 -2.6197
17631TIP3   OH274307   3.698   4.773   5.405 -0.4921  0.1115 -0.1721
17631TIP3    H174308   3.719   4.683   5.431 -1.0952  0.1626  0.5123
17631TIP3    H274309   3.781   4.810   5.375  0.0216 -0.2597  0.7824
17632TIP3   OH274310   0.315   2.903   1.879 -0.2436  0.2114 -0.2273
17632TIP3    H174311   0.237   2.860   1.844 -0.3415  0.0263  0.2145
17632TIP3    H274312   0.307   2.994   1.851 -0.0266 -0.0516 -1.1897
17633TIP3   OH274313   3.278   3.853   3.726  0.6324  0.0749 -0.2262
17633TIP3    H174314   3.198   3.873   3.677  0.1443 -0.0850  0.4944
17633TIP3    H274315   3.248   3.810   3.805  1.1000  3.2442  1.8690
17634TIP3   OH274316   3.521   2.316   3.194 -0.2357 -0.1419 -0.1402
17634TIP3    H174317   3.600   2.371   3.201 -2.3788  3.0646  1.2419
17634TIP3    H274318   3.544   2.237   3.242  2.7440 -0.2145 -1.4510
17635TIP3   OH274319   4.249   5.220   5.156  0.3531 -0.6054 -0.0540
17635TIP3    H174320   4.337   5.257   5.151  0.0042  0.1961 -0.6877
17635TIP3    H274321   4.237   5.174   5.073  0.7649 -2.1518  0.7142
17636TIP3   OH274322   2.838   0.995   0.318 -0.0460  0.1423  0.6625
17636TIP3    H174323   2.803   1.058   0.380 -1.7869 -0.8631  0.7712
17636TIP3    H274324   2.858   1.047   0.240 -0.5897  0.9621  1.0556
17637TIP3   OH274325   6.179   0.574   5.223 -0.5498 -0.1628  0.1148
17637TIP3    H174326   6.264   0.548   5.259  0.3839  1.8893 -0.4870
17637TIP3    H274327   6.142   0.492   5.190  1.6137 -0.9847 -0.4700
17638TIP3   OH274328   6.498   3.048   5.385  0.2190 -0.5878 -0.2733
17638TIP3    H174329   6.580   3.000   5.392 -0.5720 -1.7494  3.2688
17638TIP3    H274330   6.509   3.122   5.445 -0.1383  1.3121 -2.4323
17639TIP3   OH274331   6.168   4.572   0.674 -0.5185  0.1530 -0.0629
17639TIP3    H174332   6.210   4.489   0.652 -0.2226  0.3735 -0.3485
17639TIP3    H274333   6.083   4.568   0.632 -0.6803 -0.1835  0.2879
17640TIP3   OH274334   0.394   5.316   1.502  0.3774  0.0085  0.2637
17640TIP3    H174335   0.421   5.354   1.586  0.8301  0.0896  0.0847
17640TIP3    H274336   0.455   5.353   1.438 -1.6324  2.1204 -0.5794
17641TIP3   OH274337   5.799   5.767   0.035  0.4694 -0.3530  1.0248
17641TIP3    H174338   5.864   5.833   0.059 -0.9694  1.4423  0.1824
17641TIP3    H274339   5.809   5.756  -0.060 -0.0659 -0.4786  0.9780
17642TIP3   OH274340   0.240   2.819   1.511  0.3138 -0.3759 -0.1937
17642TIP3    H174341   0.230   2.763   1.435 -0.4537  1.9519 -1.9193
17642TIP3    H274342   0.216   2.764   1.585  0.1619 -2.4478 -1.7037
17643TIP3   OH274343   1.179   0.690   3.136 -0.1137  0.2216  0.1684
17643TIP3    H174344   1.221   0.661   3.217  1.9153  0.2632 -0.8192
17643TIP3    H274345   1.179   0.786   3.142 -1.9510  0.2246  1.0266
17644TIP3   OH274346   3.909   1.297   3.007  0.2093  0.5027  0.5264
17644TIP3    H174347   3.963   1.309   3.085 -0.8968  1.2678  1.2011
17644TIP3    H274348   3.903   1.384   2.969  0.1255  0.2656 -0.0007
17645TIP3   OH274349   0.448   3.307   2.200  0.1379 -0.2453 -0.5194
17645TIP3    H174350   0.476   3.259   2.123  0.0847 -0.5369 -0.3600
17645TIP3    H274351   0.447   3.399   2.173 -0.1091 -0.3671 -0.9363
17646TIP3   OH274352   1.546   1.325   5.711  0.1313  0.3176 -0.3359
17646TIP3    H174353   1.614   1.387   5.684 -0.5904  0.3839 -2.1509
17646TIP3    H274354   1.464   1.372   5.694 -0.3926 -0.1591  0.8188
17647TIP3   OH274355   2.553   4.784   5.449 -0.2286 -0.3419 -0.0678
17647TIP3    H174356   2.599   4.714   5.402 -1.6497 -0.3913 -1.4416
17647TIP3    H274357   2.552   4.754   5.540 -0.1983 -1.7922 -0.5121
17648TIP3   OH274358   2.613   5.987   5.006 -0.5504  0.8240 -0.3774
17648TIP3    H174359   2.621   6.082   5.000 -0.5928  0.8208 -0.4732
17648TIP3    H274360   2.545   5.964   4.944 -0.8983  0.7858  0.0101
17649TIP3   OH274361   6.603   0.421  13.953 -0.1884  0.4003 -0.2963
17649TIP3    H174362   6.513   0.451  13.968 -0.6165 -0.7211 -0.5350
17649TIP3    H274363   6.650   0.449  14.031 -1.4332 -1.6429  1.2805
17650TIP3   OH274364   1.363   2.521   4.091  0.2709 -0.3423 -0.0775
17650TIP3    H174365   1.404   2.437   4.112  2.0316  0.0432 -1.7529
17650TIP3    H274366   1.433   2.586   4.102 -1.3028  1.1369  2.1991
17651TIP3   OH274367   1.520   2.278   4.865 -0.3007 -0.7440  0.2623
17651TIP3    H174368   1.562   2.206   4.912 -1.1096 -2.1182 -1.0392
17651TIP3    H274369   1.479   2.237   4.789 -0.6180  1.1310 -0.6438
17652TIP3   OH274370   6.898   3.239   5.244  0.2397 -0.1587 -0.1612
17652TIP3    H174371   6.927   3.274   5.329 -1.1985  1.7124 -0.3753
17652TIP3    H274372   6.965   3.269   5.182 -0.1566  0.9092 -0.0917
17653TIP3   OH274373   4.967   4.942   4.920  0.5087  0.2284  0.3314
17653TIP3    H174374   4.952   4.942   5.014  0.4869 -0.8378  0.3467
17653TIP3    H274375   4.998   4.853   4.901  0.5765  0.4510 -0.6552
17654TIP3   OH274376   1.645   0.228   5.427 -0.7167  0.0198  0.3186
17654TIP3    H174377   1.655   0.246   5.333  0.0914  0.2064  0.4361
17654TIP3    H274378   1.559   0.186   5.434 -0.4894 -0.6506 -0.6016
17655TIP3   OH274379   2.590   5.465  13.694  0.3552  0.3871 -0.4607
17655TIP3    H174380   2.655   5.415  13.645  0.5341  0.4722 -0.3149
17655TIP3    H274381   2.603   5.438  13.785 -1.4855 -1.4860 -0.6811
17656TIP3   OH274382   0.046   2.123   3.134 -0.0103  0.1741 -0.0967
17656TIP3    H174383   0.107   2.180   3.180  1.9078 -0.2866 -1.9021
17656TIP3    H274384   0.057   2.037   3.175  0.1806  0.2059 -0.0812
17657TIP3   OH274385   3.654   1.289  11.431 -0.1278 -0.0757  0.3830
17657TIP3    H174386   3.723   1.228  11.456 -0.7544 -2.0353 -2.2200
17657TIP3    H274387   3.696   1.349  11.369 -0.5968 -0.9490 -0.8053
17658TIP3   OH274388   4.077   6.847  13.866 -0.2907  0.2386  0.7273
17658TIP3    H174389   4.125   6.847  13.949 -1.1874 -0.3137  1.2509
17658TIP3    H274390   4.014   6.776  13.874 -0.5342  0.3167 -0.3486
17659TIP3   OH274391   2.219   4.397   5.335 -0.6228 -0.1837  0.4194
17659TIP3    H174392   2.178   4.331   5.278 -1.6914 -0.8828  1.9375
17659TIP3    H274393   2.310   4.367   5.344 -0.1404  0.4790 -1.6587
17660TIP3   OH274394   1.050   0.994   6.102 -0.1623  0.3121  0.0281
17660TIP3    H174395   1.134   0.955   6.078  0.1353  0.7433  0.3572
17660TIP3    H274396   1.013   0.932   6.165 -1.7143 -1.7026 -2.6641
17661TIP3   OH274397   2.096   3.763   0.702 -0.1872  0.8823 -0.0638
17661TIP3    H174398   2.188   3.778   0.722  0.0031 -0.8776  0.5240
17661TIP3    H274399   2.049   3.800   0.777  0.3522 -2.5476  2.2088
17662TIP3   OH274400   1.404   3.083   4.364 -0.1629  0.3797  0.1740
17662TIP3    H174401   1.349   3.066   4.440  0.1196  1.9290  0.7731
17662TIP3    H274402   1.382   3.172   4.337  0.9762  0.4959 -0.4901
17663TIP3   OH274403   4.148   0.554   5.685 -0.3306 -0.5225  0.5908
17663TIP3    H174404   4.156   0.459   5.694 -0.8568 -0.8826 -1.8584
17663TIP3    H274405   4.227   0.590   5.726  0.5183 -2.1039  0.4001
17664TIP3   OH274406   2.501   4.616   0.015 -0.3051  0.3892 -0.4117
17664TIP3    H174407   2.455   4.590   0.094 -0.1028  1.9118  0.2441
17664TIP3    H274408   2.572   4.552   0.006 -1.8380 -1.3320 -0.8434
17665TIP3   OH274409   2.351   4.556   0.685  0.1509 -0.5602 -0.0560
17665TIP3    H174410   2.264   4.538   0.650 -0.5827  2.2677  0.0539
17665TIP3    H274411   2.379   4.635   0.639  3.3975 -2.1807 -1.2121
17666TIP3   OH274412   0.950   3.920   5.836  0.1855 -0.3339  0.1220
17666TIP3    H174413   0.958   4.001   5.886  0.4847  0.0554 -0.5424
17666TIP3    H274414   0.992   3.939   5.753  1.4491 -1.5929  0.4401
17667TIP3   OH274415   6.649   2.597   4.731 -0.4989  0.1892 -0.3497
17667TIP3    H174416   6.601   2.602   4.814  0.5360 -0.2335  0.2949
17667TIP3    H274417   6.583   2.572   4.666 -1.2271  0.0539  0.4277
17668TIP3   OH274418   1.578   0.843   5.686  0.1836  0.3007 -0.2707
17668TIP3    H174419   1.602   0.931   5.715 -0.1972  0.3856 -0.2046
17668TIP3    H274420   1.613   0.837   5.597  1.7505 -0.1265  0.3428
17669TIP3   OH274421   6.664   6.492  15.420  0.1659  0.5162  0.1063
17669TIP3    H174422   6.712   6.473  15.339 -0.6642  0.7541 -0.4497
17669TIP3    H274423   6.579   6.451  15.408  0.0746  0.4490  0.9197
17670TIP3   OH274424   5.451   4.641   3.453  0.3508 -0.2208 -0.0772
17670TIP3    H174425   5.437   4.669   3.543  1.3709 -1.4943  0.5148
17670TIP3    H274426   5.365   4.648   3.412 -0.2177 -0.0014  1.1059
17671TIP3   OH274427   5.250   4.662  14.404 -0.4318 -0.1349  0.1967
17671TIP3    H174428   5.337   4.657  14.364 -1.0782 -1.0740 -1.1793
17671TIP3    H274429   5.204   4.729  14.353 -1.1804 -1.1569 -0.5176
17672TIP3   OH274430   5.942   4.783   2.115  0.1125 -0.3452  0.3705
17672TIP3    H174431   6.023   4.810   2.158 -0.3814 -1.7044  2.2414
17672TIP3    H274432   5.880   4.768   2.186 -1.5898 -0.0521 -0.9768
17673TIP3   OH274433   3.985   6.795   3.249  0.1936  0.4004  0.2312
17673TIP3    H174434   3.937   6.713   3.261 -0.2013  0.4193 -0.9942
17673TIP3    H274435   4.021   6.815   3.335 -0.5626 -0.5230  0.7867
17674TIP3   OH274436   5.192   4.212   4.148  0.3520 -0.0959  0.1753
17674TIP3    H174437   5.276   4.200   4.192  0.2673 -2.7885 -0.1958
17674TIP3    H274438   5.215   4.229   4.056  0.5044  0.5234  0.3303
17675TIP3   OH274439   5.861   0.817   0.144 -0.1303 -0.2193 -0.2910
17675TIP3    H174440   5.920   0.832   0.218 -0.1857  0.2203 -0.3330
17675TIP3    H274441   5.773   0.828   0.181 -0.1225  1.9556 -0.8222
17676TIP3   OH274442   5.750   3.690   0.758  0.0256  0.5304 -0.2184
17676TIP3    H174443   5.721   3.668   0.669 -2.4245 -0.2580  0.6861
17676TIP3    H274444   5.809   3.764   0.746  0.0198  0.2424 -2.5285
17677TIP3   OH274445   0.541   2.674   1.486 -0.1024 -0.1536 -0.1126
17677TIP3    H174446   0.553   2.691   1.393  0.4649  0.4953  0.0735
17677TIP3    H274447   0.630   2.671   1.521 -0.3078  2.9781  0.9971
17678TIP3   OH274448   5.106   2.431   3.588 -0.2315  0.0167  0.0443
17678TIP3    H174449   5.095   2.452   3.496  3.0208  1.0340 -0.2411
17678TIP3    H274450   5.132   2.514   3.628  1.3725 -1.0272  1.2700
17679TIP3   OH274451   0.908   6.100   0.411 -0.2588 -0.4304 -1.0777
17679TIP3    H174452   0.859   6.044   0.471  1.2440 -0.5316  0.1273
17679TIP3    H274453   0.849   6.172   0.392  0.1340  1.2824  3.0206
17680TIP3   OH274454   5.821   4.669   3.357 -0.5214  0.8059  0.2852
17680TIP3    H174455   5.882   4.729   3.315 -0.6864 -0.7700 -2.4085
17680TIP3    H274456   5.845   4.583   3.323 -0.8296 -0.6436  3.3517
17681TIP3   OH274457   1.806   0.192   0.878  0.1621  0.3558 -0.2858
17681TIP3    H174458   1.716   0.180   0.907  0.4313 -2.1957 -0.2856
17681TIP3    H274459   1.804   0.271   0.824 -2.5569 -0.8063 -2.1023
17682TIP3   OH274460   6.947   4.968   5.069  0.2714 -0.3060 -0.3252
17682TIP3    H174461   6.983   5.045   5.025  0.6481 -1.2613 -1.7601
17682TIP3    H274462   7.019   4.936   5.123 -0.3769  1.2175  1.5950
17683TIP3   OH274463   4.964   0.506   1.263  0.4015 -0.3027 -0.5329
17683TIP3    H174464   4.903   0.571   1.298  2.1618  1.4333 -0.5631
17683TIP3    H274465   4.927   0.484   1.177 -1.3669 -1.0336  0.3513
17684TIP3   OH274466   1.464   2.131   0.338 -0.2255  0.5141  0.1333
17684TIP3    H174467   1.544   2.109   0.291  0.6621  0.0303  1.8229
17684TIP3    H274468   1.402   2.063   0.311  0.4655 -0.1400  0.1593
17685TIP3   OH274469   2.800   2.021   5.268 -0.1376  0.1133 -0.2368
17685TIP3    H174470   2.778   2.114   5.259 -0.8932  0.2377  2.1343
17685TIP3    H274471   2.715   1.978   5.278  0.2526 -0.7454 -0.5255
17686TIP3   OH274472   2.085   4.009   4.305  0.0729  0.8535 -0.5151
17686TIP3    H174473   2.010   4.068   4.298 -1.0092 -0.3228  0.6805
17686TIP3    H274474   2.161   4.067   4.308 -0.9176  2.1643  0.0538
17687TIP3   OH274475   1.524   2.859   5.016 -0.2341  0.0246 -0.4934
17687TIP3    H174476   1.570   2.868   4.932 -2.2391 -2.1254 -1.9301
17687TIP3    H274477   1.572   2.790   5.062  0.9492  1.2977  0.2744
17688TIP3   OH274478   3.331   1.759  11.977 -0.1037  0.2896 -0.5630
17688TIP3    H174479   3.254   1.761  11.919 -0.7723  0.1930  0.3081
17688TIP3    H274480   3.401   1.724  11.922 -0.4809  1.1091 -1.6015
17689TIP3   OH274481   4.084   3.900   1.562  0.3356 -0.5738  0.7053
17689TIP3    H174482   4.044   3.841   1.626  2.1035 -2.8558 -0.1323
17689TIP3    H274483   4.034   3.884   1.481  1.0071 -1.1802  0.4020
17690TIP3   OH274484   4.807   2.547   5.751 -0.0234 -0.4630  0.4018
17690TIP3    H174485   4.786   2.603   5.825 -1.4739  0.9139 -0.9513
17690TIP3    H274486   4.878   2.592   5.705 -1.4398  0.5617 -0.8961
17691TIP3   OH274487   0.431   0.922   1.764 -0.1503 -0.2073 -0.6503
17691TIP3    H174488   0.451   0.986   1.695  0.8994  0.1612 -0.0301
17691TIP3    H274489   0.409   0.975   1.841 -0.8179 -0.6134 -0.5508
17692TIP3   OH274490   0.712   2.972   2.977  0.3317  0.5345  0.0062
17692TIP3    H174491   0.636   2.924   3.008  0.5390  0.3066  0.1696
17692TIP3    H274492   0.691   2.995   2.887  0.3301 -0.0752 -0.1526
17693TIP3   OH274493   4.802   1.316   1.898  0.5771  0.0074 -0.3162
17693TIP3    H174494   4.822   1.229   1.934  1.1155  0.4823  0.5764
17693TIP3    H274495   4.710   1.310   1.873 -0.7639  0.4131  3.7162
17694TIP3   OH274496   0.237   1.928   5.853  0.1250 -0.3784 -0.5297
17694TIP3    H174497   0.203   1.984   5.922  0.5047  0.9920 -1.4135
17694TIP3    H274498   0.165   1.869   5.831 -0.3502 -0.0925  0.2579
17695TIP3   OH274499   1.768   5.098   0.600 -0.0407  0.6350 -0.5037
17695TIP3    H174500   1.859   5.098   0.570 -0.1179 -1.4308 -0.9141
17695TIP3    H274501   1.736   5.187   0.582  1.5549  1.0618 -1.3913
17696TIP3   OH274502   4.777   6.355   0.639 -0.0895 -0.8677 -0.4725
17696TIP3    H174503   4.868   6.382   0.628 -0.0242 -1.0965 -0.5027
17696TIP3    H274504   4.731   6.393   0.564 -0.1058 -0.3695 -0.2153
17697TIP3   OH274505   6.253   1.856   3.420  0.1984 -0.0420  0.0697
17697TIP3    H174506   6.288   1.768   3.431 -0.9619 -0.7011 -1.2794
17697TIP3    H274507   6.325   1.913   3.445  0.5608 -1.3320  2.2599
17698TIP3   OH274508   2.923   4.395   2.973 -0.6415  0.2451  0.4963
17698TIP3    H174509   2.924   4.485   3.006 -1.8371  0.0896  1.0220
17698TIP3    H274510   2.902   4.404   2.880  1.1039  0.5967  0.1136
17699TIP3   OH274511   0.810   6.611  13.612  0.4805 -0.5527 -0.1147
17699TIP3    H174512   0.851   6.669  13.676  1.2649 -0.6424 -0.5162
17699TIP3    H274513   0.716   6.628  13.621  0.6288 -0.0039  0.5141
17700TIP3   OH274514   6.388   1.643   2.523 -0.2948 -0.1241 -0.1187
17700TIP3    H174515   6.449   1.578   2.489 -1.0683  0.2412 -2.4178
17700TIP3    H274516   6.441   1.699   2.579  0.6767 -1.8709  0.7968
17701TIP3   OH274517   4.378   6.551   4.135 -0.6969 -0.0995 -0.7299
17701TIP3    H174518   4.462   6.581   4.100 -0.0945  0.6299  1.2166
17701TIP3    H274519   4.340   6.499   4.064  0.0450  1.9806 -2.7516
17702TIP3   OH274520   0.177   6.569   4.831  0.1326  0.2574 -0.1217
17702TIP3    H174521   0.146   6.643   4.883  1.6852  0.2273  0.9242
17702TIP3    H274522   0.147   6.492   4.879 -2.7981  0.0834 -1.9964
17703TIP3   OH274523   1.883   6.792  14.792  0.0223 -0.2154  0.4192
17703TIP3    H174524   1.873   6.728  14.722 -0.6626  1.3370 -0.9649
17703TIP3    H274525   1.916   6.742  14.867 -0.9463 -2.2391 -0.4598
17704TIP3   OH274526   2.542   6.322  12.278  0.4964  0.4437  0.1614
17704TIP3    H174527   2.562   6.315  12.371  0.5327  0.3439  0.1466
17704TIP3    H274528   2.447   6.335  12.276  0.8264  3.9171  0.3850
17705TIP3   OH274529   6.768   0.950   0.166 -0.1347 -0.0486  0.2883
17705TIP3    H174530   6.711   1.005   0.219 -0.9047  0.8191 -1.3987
17705TIP3    H274531   6.844   0.933   0.223 -0.7244  1.2098  1.5026
17706TIP3   OH274532   3.378   7.114   5.662 -0.2587 -0.0659 -0.0026
17706TIP3    H174533   3.447   7.136   5.725 -0.5075 -2.1410  1.0974
17706TIP3    H274534   3.349   7.198   5.627  0.9357  1.0435  1.5488
17707TIP3   OH274535   5.838   5.234   0.350  0.1531 -0.0523  0.0121
17707TIP3    H174536   5.919   5.245   0.300  0.3490 -0.3660  0.2635
17707TIP3    H274537   5.832   5.313   0.403  1.4660 -1.0121  1.6744
17708TIP3   OH274538   4.044   2.246   5.021  0.0432 -0.1189 -0.0365
17708TIP3    H174539   4.118   2.291   5.062  0.1004  1.4941 -1.7827
17708TIP3    H274540   4.077   2.221   4.935 -0.8367 -1.2151 -0.0708
17709TIP3   OH274541   5.960   1.320   0.213  0.2168 -0.9883 -0.3239
17709TIP3    H174542   5.870   1.287   0.205  0.1315 -0.9442  0.4379
17709TIP3    H274543   5.960   1.401   0.162 -0.1352 -1.0708 -0.4606
17710TIP3   OH274544   4.891   5.795   2.504  0.1539  0.4290 -0.0020
17710TIP3    H174545   4.902   5.701   2.518  0.2443  0.3375 -0.6873
17710TIP3    H274546   4.935   5.836   2.579 -0.3155 -0.0811  0.5635
17711TIP3   OH274547   3.970   5.697   5.653  0.8057  0.4680 -0.2638
17711TIP3    H174548   3.896   5.728   5.601  1.7207  0.6174 -1.5247
17711TIP3    H274549   4.017   5.776   5.678  2.3938  0.2867 -2.3556
17712TIP3   OH274550   2.948   3.454   5.715  0.3630  0.4480 -0.1371
17712TIP3    H174551   3.016   3.446   5.782  1.9269 -0.4444 -1.7325
17712TIP3    H274552   2.874   3.405   5.750  0.9695  0.3736  1.1121
17713TIP3   OH274553   5.762   6.701   2.377 -0.2096  0.4684  0.0312
17713TIP3    H174554   5.774   6.793   2.354 -0.0303  1.4509  3.5083
17713TIP3    H274555   5.851   6.666   2.383 -0.0166  1.1637  2.2491
17714TIP3   OH274556   3.772   4.111   0.675  0.4616  0.3730 -0.0680
17714TIP3    H174557   3.848   4.131   0.621  1.1429 -0.5169  0.5356
17714TIP3    H274558   3.773   4.016   0.685 -0.2890  0.4173  0.5847
17715TIP3   OH274559   0.203   2.663  13.118 -0.4409 -0.1892  0.2278
17715TIP3    H174560   0.230   2.655  13.027 -0.5312  0.8212  0.1009
17715TIP3    H274561   0.121   2.613  13.123 -1.9445  1.9776 -0.9406
17716TIP3   OH274562   2.835   2.911   4.170  0.5528  0.9227  0.3107
17716TIP3    H174563   2.788   2.870   4.098 -2.3221  0.8590  2.0472
17716TIP3    H274564   2.825   3.005   4.155 -1.2042  0.9251  1.2022
17717TIP3   OH274565   0.485   3.808   0.456  0.2213  0.2245  0.0059
17717TIP3    H174566   0.528   3.764   0.383  0.4026 -0.1627  0.3422
17717TIP3    H274567   0.393   3.810   0.432  0.5366  2.0692 -1.2420
17718TIP3   OH274568   2.357   5.826   1.381 -0.4229 -0.0670  0.5105
17718TIP3    H174569   2.261   5.830   1.380 -0.4110  1.0642 -1.9795
17718TIP3    H274570   2.379   5.764   1.312  0.6609 -1.1871  1.8233
17719TIP3   OH274571   1.871   3.894   4.983  0.0825  0.1930  0.1798
17719TIP3    H174572   1.823   3.822   5.025  0.8462  0.1476  1.0142
17719TIP3    H274573   1.928   3.928   5.053  0.4567  0.9553 -0.4858
17720TIP3   OH274574   6.401   2.388   5.080  0.8580 -0.1602  0.3827
17720TIP3    H174575   6.443   2.435   5.152 -0.3060  0.4817  0.6711
17720TIP3    H274576   6.414   2.296   5.100  4.8294 -0.1552 -1.1202
17721TIP3   OH274577   4.829   4.124   3.841 -0.1123  0.0571  0.4111
17721TIP3    H174578   4.890   4.189   3.807 -2.2466  3.2519  2.1447
17721TIP3    H274579   4.770   4.105   3.768  0.0273  0.7734  0.1044
17722TIP3   OH274580   4.756   2.794   5.243 -0.5506 -0.1131  0.2102
17722TIP3    H174581   4.768   2.699   5.234 -3.3358 -0.6229  0.8082
17722TIP3    H274582   4.710   2.819   5.163 -0.0106  0.7193  0.1506
17723TIP3   OH274583   4.340   3.461   3.470  0.3457  0.4140  0.3026
17723TIP3    H174584   4.283   3.484   3.397  1.0473 -0.5076 -0.5523
17723TIP3    H274585   4.423   3.506   3.451  0.7224 -0.3021  0.2176
17724TIP3   OH274586   7.036   5.457   0.865 -0.0186  0.1553  0.3580
17724TIP3    H174587   7.024   5.375   0.817  1.3686 -0.7040  1.3769
17724TIP3    H274588   7.034   5.431   0.957  2.0738  0.9798  0.6936
17725TIP3   OH274589   0.564   4.215   2.231  0.2190 -0.6719  0.1898
17725TIP3    H174590   0.556   4.304   2.198 -1.2758 -0.0930  1.9421
17725TIP3    H274591   0.498   4.209   2.300  1.2482 -2.6882  1.0841
17726TIP3   OH274592   5.008   5.759   5.120 -0.0726  0.2144 -0.4580
17726TIP3    H174593   5.000   5.853   5.103 -2.0169  0.6629  2.2297
17726TIP3    H274594   5.026   5.753   5.214  0.9056 -2.0968 -0.7422
17727TIP3   OH274595   0.044   3.856   5.004  0.1033 -0.1720  0.0095
17727TIP3    H174596  -0.049   3.880   5.010  0.4563  1.3254 -0.0720
17727TIP3    H274597   0.044   3.761   4.998 -1.3809 -0.2555  0.9294
17728TIP3   OH274598   3.675   1.865   4.157 -0.1939 -0.1471 -0.0109
17728TIP3    H174599   3.737   1.804   4.118  1.9939  0.8939  1.6735
17728TIP3    H274600   3.728   1.937   4.191 -2.3285  0.9027  1.3728
17729TIP3   OH274601   6.293   1.126   4.915  0.1004 -0.4896 -0.1237
17729TIP3    H174602   6.204   1.106   4.944 -0.1359  0.8143  0.1133
17729TIP3    H274603   6.300   1.221   4.925  1.7407 -0.6522  0.4821
17730TIP3   OH274604   5.133   0.441   2.625 -0.4845  0.1551  0.1057
17730TIP3    H174605   5.076   0.515   2.605 -0.2382  0.4051  0.3232
17730TIP3    H274606   5.075   0.376   2.666 -1.0646 -0.4812 -1.6213
17731TIP3   OH274607   3.133   6.014   4.609  0.2891 -0.6451 -0.3297
17731TIP3    H174608   3.180   6.088   4.647  0.9691 -1.8016  1.1500
17731TIP3    H274609   3.183   5.991   4.531  2.3930 -2.0055  1.3414
17732TIP3   OH274610   1.392   3.714   4.399  0.3914  0.1402 -0.6976
17732TIP3    H174611   1.465   3.714   4.337  0.4502  1.5797 -0.6494
17732TIP3    H274612   1.316   3.691   4.346  0.7473 -0.7096 -0.8735
17733TIP3   OH274613   3.269   3.316   3.718  0.1192 -0.0361 -0.0993
17733TIP3    H174614   3.331   3.250   3.688  0.2733 -1.0695  2.2582
17733TIP3    H274615   3.324   3.385   3.756 -0.0810 -0.8623  1.8141
17734TIP3   OH274616   2.502   6.365   3.730  0.3899  0.3271  0.5393
17734TIP3    H174617   2.423   6.385   3.779 -0.5467 -0.1363 -0.7462
17734TIP3    H274618   2.521   6.274   3.750 -0.4487 -0.1032 -0.5409
17735TIP3   OH274619   3.318   6.709   3.202  0.0676 -0.2357 -0.5269
17735TIP3    H174620   3.340   6.659   3.281  1.5389  0.0147 -0.7480
17735TIP3    H274621   3.267   6.649   3.148  0.2310 -0.8717  0.0167
17736TIP3   OH274622   5.451   1.071  15.096  0.2428  0.0598 -0.2036
17736TIP3    H174623   5.516   1.138  15.116 -0.0304 -0.0365  1.0893
17736TIP3    H274624   5.502   0.997  15.061  0.6189  0.6627 -0.9405
17737TIP3   OH274625   0.665   6.971   4.842  0.4307  0.0538 -0.4146
17737TIP3    H174626   0.644   7.015   4.924  1.9434 -0.1971  0.1484
17737TIP3    H274627   0.618   6.888   4.846 -0.8331  0.7454 -0.5760
17738TIP3   OH274628   4.505   6.839   5.594 -0.0300  0.3920 -0.7449
17738TIP3    H174629   4.433   6.902   5.582 -0.7730 -0.3966 -0.5589
17738TIP3    H274630   4.584   6.890   5.579 -0.6317  1.2724 -1.0313
17739TIP3   OH274631   6.690   7.083   3.576 -0.5315 -0.2001 -0.1875
17739TIP3    H174632   6.750   7.085   3.501 -1.0694 -1.3946 -0.6764
17739TIP3    H274633   6.739   7.126   3.646  1.2574 -1.8278 -0.3265
17740TIP3   OH274634   2.070   1.078   1.946  0.0993 -0.1071  0.3644
17740TIP3    H174635   2.052   1.081   1.852 -2.0681  1.2639  0.7330
17740TIP3    H274636   2.156   1.118   1.956  0.0905  0.2991 -0.9976
17741TIP3   OH274637   4.996   2.483   2.757 -0.4959 -0.4643 -0.0149
17741TIP3    H174638   5.042   2.472   2.673  0.3055  2.2082 -0.0127
17741TIP3    H274639   5.066   2.477   2.823 -0.1531  2.6823  0.0489
17742TIP3   OH274640   2.611   3.039   5.457 -0.1943 -0.2215  0.2961
17742TIP3    H174641   2.530   2.988   5.452  0.5544 -1.3699 -2.3409
17742TIP3    H274642   2.659   3.000   5.529 -2.5418  1.5537  3.0369
17743TIP3   OH274643   0.254   4.479   4.654  0.1360 -0.0265  0.1464
17743TIP3    H174644   0.305   4.539   4.709  0.9060 -1.4145  1.0018
17743TIP3    H274645   0.319   4.437   4.599 -0.2441 -0.8490  0.3145
17744TIP3   OH274646   2.489   4.303   5.332  0.3629 -0.0670 -0.6280
17744TIP3    H174647   2.542   4.353   5.394  1.4346 -0.3693 -1.2702
17744TIP3    H274648   2.478   4.217   5.374 -0.2477  0.2302 -0.1697
17745TIP3   OH274649   4.993   2.702   3.761  0.3424 -0.2249  0.1924
17745TIP3    H174650   5.025   2.722   3.849 -0.7388  2.1906  0.1152
17745TIP3    H274651   4.903   2.673   3.774  0.6355 -1.2677 -0.0325
17746TIP3   OH274652   5.168   2.664   0.659  0.6071 -0.1578  0.5170
17746TIP3    H174653   5.262   2.676   0.650  0.6671  0.1191  1.3751
17746TIP3    H274654   5.150   2.681   0.752 -0.5324  1.4163  0.0565
17747TIP3   OH274655   5.368   2.769   3.309 -0.0061 -0.0326  0.1118
17747TIP3    H174656   5.416   2.781   3.391 -0.4752 -0.5558  0.4699
17747TIP3    H274657   5.403   2.689   3.271 -1.5728 -1.2485  1.1026
17748TIP3   OH274658   1.730   4.174   2.346  0.1438  0.4914 -0.2237
17748TIP3    H174659   1.763   4.171   2.435  1.5165  2.2483 -0.6262
17748TIP3    H274660   1.635   4.169   2.355  0.3106 -2.3492  1.0989
17749TIP3   OH274661   2.622   5.843   2.867 -0.1366 -0.2256  0.0675
17749TIP3    H174662   2.675   5.884   2.798 -1.5031  0.5762 -0.5543
17749TIP3    H274663   2.614   5.752   2.840  1.1063 -0.4221  0.3049
17750TIP3   OH274664   5.978   5.330  11.697 -0.1852  0.2015  0.2205
17750TIP3    H174665   6.046   5.298  11.638  0.2147  1.2834  0.0537
17750TIP3    H274666   5.929   5.253  11.723  0.8294 -0.5422 -0.0277
17751TIP3   OH274667   2.320   5.871  15.297 -0.2278  0.0821 -0.1099
17751TIP3    H174668   2.264   5.795  15.313  1.1040 -0.6072  1.7001
17751TIP3    H274669   2.354   5.859  15.208  1.9312 -2.9025  0.9577
17752TIP3   OH274670   4.272   4.218   5.297  0.2895 -0.1747  0.2441
17752TIP3    H174671   4.290   4.129   5.329 -0.9151 -0.1212  1.1324
17752TIP3    H274672   4.274   4.272   5.376  1.2349  0.6409 -0.3220
17753TIP3   OH274673   4.010   6.968   5.305  0.0263 -0.5175  0.4894
17753TIP3    H174674   4.021   7.049   5.255 -1.8576 -0.6424 -0.2287
17753TIP3    H274675   4.008   6.997   5.396 -1.9090  0.4843  0.1926
17754TIP3   OH274676   3.495   2.910   5.010  0.2271  0.6892 -0.1877
17754TIP3    H174677   3.544   2.937   5.087 -0.1538 -1.3461  0.8310
17754TIP3    H274678   3.406   2.940   5.026  0.3664  1.1842 -0.3320
17755TIP3   OH274679   2.591   1.206   2.541 -0.0967  0.3321 -0.0566
17755TIP3    H174680   2.503   1.227   2.572  0.1155 -0.3360  1.0418
17755TIP3    H274681   2.627   1.290   2.513  0.0783  1.2080  2.5225
17756TIP3   OH274682   5.864   2.178   0.905  0.5420  0.0177 -0.5972
17756TIP3    H174683   5.775   2.210   0.920  0.3255  0.1426 -1.9979
17756TIP3    H274684   5.854   2.114   0.834  1.5533 -0.0253 -0.7095
17757TIP3   OH274685   5.937   2.472  12.637  0.0253  0.1447 -0.1300
17757TIP3    H174686   5.932   2.427  12.721  0.5683 -0.1271 -0.2390
17757TIP3    H274687   6.000   2.421  12.586  0.9102  1.2044 -0.1387
17758TIP3   OH274688   0.270   0.167  13.500  0.1227  0.5772 -0.0104
17758TIP3    H174689   0.322   0.122  13.433  2.0321  0.1603  1.6622
17758TIP3    H274690   0.185   0.124  13.497  1.6433 -2.8534  1.0689
17759TIP3   OH274691   0.820   4.720  14.254 -0.1613 -0.1251  0.4900
17759TIP3    H174692   0.728   4.745  14.250 -1.1223 -3.3654 -0.3179
17759TIP3    H274693   0.846   4.709  14.163  0.9532  0.3811  0.7267
17760TIP3   OH274694   3.329   3.349   0.237  0.1259 -0.4568 -0.1555
17760TIP3    H174695   3.237   3.323   0.244  0.4372 -1.6184 -0.2457
17760TIP3    H274696   3.329   3.442   0.260 -1.3984  0.1479 -2.2787
17761TIP3   OH274697   6.735   4.948   4.611 -0.0885  0.1951  0.0452
17761TIP3    H174698   6.824   4.983   4.607  0.7149 -1.8401 -0.8966
17761TIP3    H274699   6.733   4.899   4.693 -0.2348 -0.0528 -0.1068
17762TIP3   OH274700   0.055   1.022   2.023  0.4020 -0.5838 -0.0718
17762TIP3    H174701   0.140   1.044   1.986  1.1615 -0.5413  1.5940
17762TIP3    H274702  -0.008   1.065   1.966  1.5603  0.5376 -0.5497
17763TIP3   OH274703   0.237   4.649  14.877 -0.0162  0.1452  0.3940
17763TIP3    H174704   0.311   4.612  14.828  0.4904  0.7201  0.7255
17763TIP3    H274705   0.271   4.729  14.915 -1.9844  2.9777 -3.1485
17764TIP3   OH274706   2.884   2.402   4.206 -0.0938  0.4262  0.3233
17764TIP3    H174707   2.880   2.435   4.116 -3.0234  0.1036  0.2447
17764TIP3    H274708   2.936   2.322   4.200  1.5772  1.5303 -0.6488
17765TIP3   OH274709   6.601   4.470   4.415 -0.0766 -0.5966 -0.3317
17765TIP3    H174710   6.632   4.545   4.364  0.1976 -1.3187 -1.2789
17765TIP3    H274711   6.681   4.423   4.439 -0.2723 -0.8881 -0.2405
17766TIP3   OH274712   0.680   4.414   0.253 -0.2689 -0.8125 -0.3941
17766TIP3    H174713   0.753   4.362   0.221 -1.6211 -3.4674  0.5353
17766TIP3    H274714   0.709   4.444   0.339  0.3011 -0.5297 -0.6803
17767TIP3   OH274715   6.199   5.899   2.152 -0.2616 -0.3146 -1.0089
17767TIP3    H174716   6.226   5.908   2.061 -0.6094 -0.4929 -1.1322
17767TIP3    H274717   6.126   5.960   2.162  0.6942  0.7584 -0.4593
17768TIP3   OH274718   7.051   0.596   0.400  0.3699  0.4954 -0.2901
17768TIP3    H174719   7.096   0.670   0.440 -0.1446 -0.4855  2.3300
17768TIP3    H274720   7.105   0.520   0.422 -0.9935 -0.3259  0.3677
17769TIP3   OH274721   4.734   5.886   4.118 -0.0381  0.2421  0.4891
17769TIP3    H174722   4.810   5.861   4.171 -0.2934 -0.9393  0.3209
17769TIP3    H274723   4.715   5.809   4.065 -0.7976  0.8458 -0.1388
17770TIP3   OH274724   1.202   5.101  13.230 -0.0921 -0.2155 -0.0963
17770TIP3    H174725   1.286   5.093  13.186 -0.0356  1.8529 -0.4924
17770TIP3    H274726   1.146   5.036  13.187  0.2988  0.9199 -2.5116
17771TIP3   OH274727   2.705   5.260   2.259  0.0741  0.4262  1.0979
17771TIP3    H174728   2.686   5.230   2.348 -0.8273 -1.2779  0.3593
17771TIP3    H274729   2.766   5.195   2.225  0.3038  0.9985  0.3928
17772TIP3   OH274730   6.076   7.085  14.322  0.5553 -0.6092 -0.2284
17772TIP3    H174731   6.002   7.025  14.332  0.3444 -0.2673  0.2923
17772TIP3    H274732   6.036   7.170  14.306  0.7800 -0.1680  1.3381
17773TIP3   OH274733   4.395   3.821   3.449  0.5232 -0.0035  0.6390
17773TIP3    H174734   4.304   3.793   3.443  0.6209 -0.1062 -0.6700
17773TIP3    H274735   4.436   3.758   3.508 -0.1565 -0.1992  0.9067
17774TIP3   OH274736   1.936   6.044  13.264  0.1078  0.2664 -0.0042
17774TIP3    H174737   1.999   6.055  13.192 -1.0842 -1.2259 -1.3323
17774TIP3    H274738   1.926   6.132  13.300  1.8234  0.7994 -0.7192
17775TIP3   OH274739   2.404   5.253   4.080 -0.0657 -0.1751 -0.3738
17775TIP3    H174740   2.430   5.292   3.997 -0.9268  2.9812  0.7019
17775TIP3    H274741   2.483   5.256   4.134  0.1530 -1.0107 -0.6333
17776TIP3   OH274742   5.096   2.839   1.398  0.2953  0.2197 -0.1021
17776TIP3    H174743   5.057   2.919   1.362  0.7338 -0.1835 -1.5274
17776TIP3    H274744   5.027   2.773   1.391  0.0841  0.3439  0.6639
17777TIP3   OH274745   2.785   3.244   5.811  0.1191  0.3800 -0.4362
17777TIP3    H174746   2.752   3.157   5.835 -0.1013  0.8833  1.2267
17777TIP3    H274747   2.781   3.294   5.893  1.8996  1.4406 -0.9470
17778TIP3   OH274748   6.698   6.883  14.269  0.1219  0.4562 -0.7625
17778TIP3    H174749   6.635   6.892  14.198 -1.1015  3.5699  0.5525
17778TIP3    H274750   6.729   6.972  14.285  0.0243 -0.0147  2.8316
17779TIP3   OH274751   0.558   1.042   2.688  0.0352 -0.1421 -0.0405
17779TIP3    H174752   0.595   0.986   2.619  0.9449  0.2827  0.0892
17779TIP3    H274753   0.634   1.077   2.733 -0.5072  1.6022 -0.4273
17780TIP3   OH274754   3.380   3.403   4.445 -0.2277  0.4005  0.0550
17780TIP3    H174755   3.329   3.462   4.501 -0.7371 -0.3162  0.3711
17780TIP3    H274756   3.462   3.389   4.492 -0.2795  0.5300  0.1821
17781TIP3   OH274757   2.453   3.587   3.186 -0.0269 -0.0594  0.2230
17781TIP3    H174758   2.499   3.521   3.134  0.0072  0.4177 -0.3651
17781TIP3    H274759   2.361   3.563   3.179  0.0394 -0.4239  0.5580
17782TIP3   OH274760   6.619   1.655   4.542 -0.4539 -0.1605 -0.1318
17782TIP3    H174761   6.633   1.746   4.568  1.9867  0.2694 -2.4419
17782TIP3    H274762   6.699   1.610   4.569 -0.0337 -0.7518 -2.1658
17783TIP3   OH274763   4.945   3.303   0.099  0.0706  1.0139  0.1160
17783TIP3    H174764   4.865   3.331   0.144  0.2958  0.3053  0.9927
17783TIP3    H274765   4.970   3.222   0.143 -0.1662 -0.1896 -1.8851
17784TIP3   OH274766   5.338   4.900   1.438  0.4829  0.1905 -0.0747
17784TIP3    H174767   5.267   4.953   1.475  1.4414  0.6167  1.2201
17784TIP3    H274768   5.399   4.964   1.401  1.8190  0.0779  1.8000
17785TIP3   OH274769   1.528   1.615   3.323 -0.3603  0.5436 -0.2249
17785TIP3    H174770   1.543   1.705   3.354  0.3370  0.5752 -0.6514
17785TIP3    H274771   1.521   1.623   3.228 -1.7227  0.3342 -0.1677
17786TIP3   OH274772   0.897   3.496   2.891  0.6384 -0.5223 -0.0123
17786TIP3    H174773   0.819   3.445   2.913 -0.2889  1.3262  1.2999
17786TIP3    H274774   0.873   3.545   2.813  1.0332 -1.0591 -0.4750
17787TIP3   OH274775   2.286   3.957  12.420  0.3220  0.6600  0.1176
17787TIP3    H174776   2.268   3.871  12.383  0.2470  1.1176 -0.9444
17787TIP3    H274777   2.316   4.009  12.346 -0.9762  1.9534  0.4575
17788TIP3   OH274778   2.454   5.906   4.821 -0.4477  0.3477 -0.2007
17788TIP3    H174779   2.475   5.860   4.740 -0.5408 -0.4301  0.2010
17788TIP3    H274780   2.377   5.957   4.801 -1.8836 -1.6195 -0.0067
17789TIP3   OH274781   1.464   6.942   2.775  0.1527  0.5537  0.1378
17789TIP3    H174782   1.478   6.887   2.852  0.4811 -0.4189 -0.5842
17789TIP3    H274783   1.550   6.948   2.734  0.2276  2.0455  0.4620
17790TIP3   OH274784   4.709   0.952   2.500 -0.3073  0.0187 -0.0877
17790TIP3    H174785   4.751   0.866   2.503 -1.4626 -0.5535  0.1660
17790TIP3    H274786   4.773   1.011   2.540  0.7430 -0.5987 -0.7930
17791TIP3   OH274787   2.762   1.292   4.874 -0.3486 -0.3332 -0.0973
17791TIP3    H174788   2.772   1.209   4.922  0.4884  1.4895  3.1647
17791TIP3    H274789   2.810   1.278   4.793 -1.4265 -3.4823 -0.3590
17792TIP3   OH274790   2.100   3.745   4.349 -0.1410  0.2378  0.2971
17792TIP3    H174791   2.135   3.726   4.437  1.0282 -1.0516 -0.4114
17792TIP3    H274792   2.093   3.840   4.346 -0.6907  0.2893  1.9584
17793TIP3   OH274793   5.978   4.679   5.443  0.2268 -0.2600 -0.4360
17793TIP3    H174794   6.035   4.622   5.495  0.0682 -0.6837 -0.7278
17793TIP3    H274795   5.934   4.734   5.508 -0.4324 -1.2044 -0.0695
17794TIP3   OH274796   2.697   3.327   4.639  0.4434  0.1932  0.2086
17794TIP3    H174797   2.623   3.334   4.700 -0.3847  0.1912 -0.7728
17794TIP3    H274798   2.697   3.410   4.591  0.6956 -0.0542 -0.2309
17795TIP3   OH274799   6.512   0.160   2.610 -0.1392 -0.1043  0.5869
17795TIP3    H174800   6.542   0.157   2.519  1.5900  2.0404  1.0030
17795TIP3    H274801   6.485   0.070   2.629  0.3245 -0.8138 -1.7515
17796TIP3   OH274802   1.877   5.385   3.641 -0.3389  0.5309  0.1312
17796TIP3    H174803   1.928   5.382   3.723 -0.2356  1.6703  0.1254
17796TIP3    H274804   1.790   5.355   3.666 -0.2157  0.5448  0.6003
17797TIP3   OH274805   1.483   2.296   4.163 -0.0981 -0.0918  0.6132
17797TIP3    H174806   1.547   2.306   4.093 -0.0828 -1.0419  0.4831
17797TIP3    H274807   1.420   2.232   4.129 -0.7511  0.3381  0.9989
17798TIP3   OH274808   5.629   1.324   4.290 -0.3874  0.4452  0.3517
17798TIP3    H174809   5.613   1.411   4.326 -3.6783  0.2849 -0.3992
17798TIP3    H274810   5.649   1.269   4.366  3.7683  2.0844  0.6629
17799TIP3   OH274811   3.542   0.002  14.269 -0.6838 -0.2977 -0.2655
17799TIP3    H174812   3.539  -0.094  14.273 -1.1981 -0.2720  0.1575
17799TIP3    H274813   3.453   0.029  14.292 -0.6178  0.2761 -0.6714
17800TIP3   OH274814   6.099   1.397  14.607 -0.0972 -0.1982  0.0686
17800TIP3    H174815   6.096   1.325  14.543 -0.4872 -1.2078  1.2020
17800TIP3    H274816   6.192   1.421  14.610  0.1594 -1.1596  0.2246
17801TIP3   OH274817   0.381   5.270  14.630  0.4667 -0.1266 -0.1258
17801TIP3    H174818   0.418   5.317  14.555 -1.4007 -1.4135 -1.9699
17801TIP3    H274819   0.405   5.179  14.615 -0.6621 -0.5235  0.3601
17802TIP3   OH274820   5.576   5.917   5.264  0.1306 -0.5859 -0.6007
17802TIP3    H174821   5.578   5.993   5.322  1.0839 -1.3804  0.4686
17802TIP3    H274822   5.495   5.926   5.215 -0.4245  0.4349  0.4466
17803TIP3   OH274823   2.489   0.861   4.386 -1.2806  0.0228  0.1969
17803TIP3    H174824   2.569   0.851   4.335 -0.4315  1.9643  1.0345
17803TIP3    H274825   2.423   0.812   4.336  0.6808 -3.0311  0.3302
17804TIP3   OH274826   3.076   3.372  11.184  0.4978  0.1737  0.1904
17804TIP3    H174827   2.990   3.337  11.208  1.0705 -0.3962  1.5641
17804TIP3    H274828   3.083   3.357  11.090 -0.0207 -1.8364  0.4165
17805TIP3   OH274829   0.421   5.352   0.543 -0.4477  0.0817 -0.6170
17805TIP3    H174830   0.387   5.397   0.466  1.0970  1.0772 -0.7781
17805TIP3    H274831   0.516   5.350   0.529 -0.1941 -0.3094  0.9356
17806TIP3   OH274832   4.861   1.362   3.041 -0.3023 -0.3231 -1.1071
17806TIP3    H174833   4.847   1.331   3.131 -0.3247 -0.6923 -1.2369
17806TIP3    H274834   4.919   1.438   3.051  1.2060 -1.4552 -0.9088
17807TIP3   OH274835   2.044   1.393   2.584  0.5860  0.4233 -0.0457
17807TIP3    H174836   2.084   1.456   2.524 -0.2086  1.2920  0.3008
17807TIP3    H274837   2.083   1.413   2.670  3.2172 -2.1099 -0.5097
17808TIP3   OH274838   3.907   5.651   4.590 -0.2108  0.0591 -0.1093
17808TIP3    H174839   4.000   5.660   4.609 -0.2245 -2.4367  1.6659
17808TIP3    H274840   3.866   5.725   4.635  0.7836  0.1086  0.7516
17809TIP3   OH274841   1.802   2.886   4.472 -0.7366  0.4562  0.0381
17809TIP3    H174842   1.716   2.924   4.453 -1.4729 -0.9365  0.4529
17809TIP3    H274843   1.857   2.961   4.492 -1.8608  1.3817 -0.2130
17810TIP3   OH274844   1.427   1.020   1.462  0.2449  0.2648  0.5445
17810TIP3    H174845   1.427   0.924   1.460 -0.2037  0.2573 -1.4022
17810TIP3    H274846   1.334   1.043   1.469  0.3677  0.5662  1.2129
17811TIP3   OH274847   1.985   4.884   1.650 -0.1917 -0.1886 -0.0587
17811TIP3    H174848   2.017   4.958   1.597 -1.3312 -0.6985 -1.5336
17811TIP3    H274849   2.058   4.863   1.708  0.7444  1.0632 -0.7176
17812TIP3   OH274850   5.206   4.846   0.594  0.7413 -0.2268 -0.5358
17812TIP3    H174851   5.146   4.790   0.545 -1.9583  1.8105  0.2073
17812TIP3    H274852   5.171   4.934   0.583  2.2278  0.7821  1.9348
17813TIP3   OH274853   0.093   5.091  13.920  0.3108  0.4130 -0.1324
17813TIP3    H174854   0.026   5.147  13.880 -0.2587  0.0999  0.3643
17813TIP3    H274855   0.099   5.121  14.010 -0.5342 -0.7673  0.3547
17814TIP3   OH274856   3.855   4.250   0.972  0.4051  0.3522  0.2094
17814TIP3    H174857   3.810   4.301   0.904  2.4906  1.7669 -0.1981
17814TIP3    H274858   3.901   4.181   0.924  2.4005  1.7329  0.0132
17815TIP3   OH274859   1.067   4.848   4.384 -0.0815  0.5047  0.5224
17815TIP3    H174860   1.107   4.782   4.441  0.9818  0.0815 -0.6618
17815TIP3    H274861   0.977   4.817   4.371 -0.1250  0.2478  1.4094
17816TIP3   OH274862   0.429   0.202   4.261  0.4554 -0.0054 -0.3746
17816TIP3    H174863   0.517   0.175   4.235  1.6993  1.4703  1.9542
17816TIP3    H274864   0.391   0.124   4.302  0.1224 -1.0318 -2.5282
17817TIP3   OH274865   3.951   6.031  10.601  0.8276  0.3090  0.4308
17817TIP3    H174866   3.895   6.004  10.674  1.2340 -0.2635  0.5411
17817TIP3    H274867   4.039   6.002  10.627  1.2206  1.4086  0.3731
17818TIP3   OH274868   3.411   6.790   2.467  0.6441  0.4559  0.0234
17818TIP3    H174869   3.352   6.864   2.484 -0.4958 -0.3754 -0.2228
17818TIP3    H274870   3.498   6.828   2.472  0.2704  1.1829  3.2381
17819TIP3   OH274871   5.155   2.905  14.877 -0.0878  0.9551  0.3516
17819TIP3    H174872   5.225   2.924  14.940 -0.0378  0.4862  0.4388
17819TIP3    H274873   5.091   2.855  14.927  0.8451 -1.1397 -0.4248
17820TIP3   OH274874   3.451   6.812   3.603 -0.1983 -0.2622  0.1289
17820TIP3    H174875   3.495   6.753   3.663  0.3358  0.2409  0.2378
17820TIP3    H274876   3.380   6.760   3.565  1.3460 -1.5203 -1.1356
17821TIP3   OH274877   0.286   5.179   2.046  0.1763 -0.2753 -0.0085
17821TIP3    H174878   0.296   5.136   1.961 -1.1707 -1.3715  0.3527
17821TIP3    H274879   0.263   5.270   2.024  0.1170 -0.4762 -0.8126
17822TIP3   OH274880   1.499   5.483   5.433 -0.0443 -0.6335  0.2832
17822TIP3    H174881   1.547   5.561   5.404  1.0642 -1.0283  1.0119
17822TIP3    H274882   1.412   5.516   5.455  0.3512  0.3799  0.4042
17823TIP3   OH274883   5.939   2.370   0.250  0.6202 -0.0792 -0.6709
17823TIP3    H174884   5.964   2.358   0.342 -0.5996  0.3878 -0.2634
17823TIP3    H274885   5.964   2.288   0.208 -0.5702 -1.0754  0.4757
17824TIP3   OH274886   6.130   3.560   3.960  0.1137 -0.2612 -0.5781
17824TIP3    H174887   6.144   3.644   3.917  1.6225 -0.8781 -1.3599
17824TIP3    H274888   6.131   3.580   4.054  1.9775  0.4165 -0.7036
17825TIP3   OH274889   6.244   6.084   4.166  0.0269  0.0373 -0.5139
17825TIP3    H174890   6.316   6.082   4.103  0.8221  0.6297  0.3319
17825TIP3    H274891   6.230   6.178   4.183 -0.5008 -0.0978 -0.1954
17826TIP3   OH274892   1.452   4.196   4.542 -0.3447 -0.0303 -0.0532
17826TIP3    H174893   1.414   4.187   4.455 -1.2120 -1.4775  0.4329
17826TIP3    H274894   1.412   4.125   4.593  2.4889 -1.2010  0.7129
17827TIP3   OH274895   6.263   2.472   5.377  0.5065 -0.4739  0.1574
17827TIP3    H174896   6.356   2.452   5.375  0.6045 -0.4074  2.1749
17827TIP3    H274897   6.242   2.481   5.470 -1.3593  0.2479 -0.2852
17828TIP3   OH274898   1.789   2.376   1.840  0.6110  0.4121  0.3610
17828TIP3    H174899   1.722   2.440   1.863  0.5096  0.0323  1.1681
17828TIP3    H274900   1.846   2.372   1.917  0.3025 -0.8539  0.5399
17829TIP3   OH274901   2.553   5.242   4.399  0.1579  0.3962 -0.0088
17829TIP3    H174902   2.491   5.177   4.365 -0.7303  1.6088 -0.8011
17829TIP3    H274903   2.501   5.294   4.461  1.0474 -0.0520  1.1526
17830TIP3   OH274904   4.969   4.295  12.986  0.9354 -0.5148 -0.0697
17830TIP3    H174905   4.960   4.220  13.044 -1.2398 -1.0175 -0.9781
17830TIP3    H274906   5.020   4.359  13.037 -0.5178 -1.0821  2.2333
17831TIP3   OH274907   1.755   3.985   4.377 -0.2748  0.4100  0.0377
17831TIP3    H174908   1.743   3.983   4.472 -1.0694 -1.2405 -0.0643
17831TIP3    H274909   1.713   3.905   4.345  1.6709 -0.0909 -1.5201
17832TIP3   OH274910   0.337   1.086   2.511 -0.1560  0.1242  0.3470
17832TIP3    H174911   0.390   1.044   2.579  1.4262  2.2081  0.5016
17832TIP3    H274912   0.386   1.071   2.430 -0.0668  0.8594  0.2628
17833TIP3   OH274913   6.865   0.922   4.470 -0.2080 -0.9932 -0.1040
17833TIP3    H174914   6.803   0.929   4.543  0.4597  1.1609  0.3141
17833TIP3    H274915   6.891   0.830   4.470 -1.4740 -1.3953  1.3191
17834TIP3   OH274916   5.796   0.601   2.912 -0.8342 -0.4971  0.0621
17834TIP3    H174917   5.791   0.628   3.004 -0.4507 -0.2160  0.0044
17834TIP3    H274918   5.873   0.544   2.908  1.3431  2.2901 -0.7420
17835TIP3   OH274919   6.365   6.442   3.246  0.2009  0.3254  0.1072
17835TIP3    H174920   6.405   6.458   3.331  0.1330 -0.5591  0.3178
17835TIP3    H274921   6.311   6.364   3.260 -1.1764  1.1722 -0.2973
17836TIP3   OH274922   4.371   5.491   0.826  0.5082  0.3232 -0.3560
17836TIP3    H174923   4.452   5.537   0.845  0.3144 -0.0557  1.5908
17836TIP3    H274924   4.320   5.552   0.773  2.1791  0.4227 -1.9347
17837TIP3   OH274925   2.295   1.394   1.293  0.4705 -0.1028  0.0591
17837TIP3    H174926   2.290   1.438   1.208  0.4222  2.0825  1.1118
17837TIP3    H274927   2.380   1.422   1.329  2.1802 -3.8345 -0.6619
17838TIP3   OH274928   2.737   2.844  13.651 -0.3135 -0.0037  0.5688
17838TIP3    H174929   2.749   2.939  13.655 -0.1977  0.0645 -1.0313
17838TIP3    H274930   2.825   2.809  13.639 -0.4294 -0.2700  0.4961
17839TIP3   OH274931   6.591   5.060   3.627  0.2411 -0.4295 -0.2157
17839TIP3    H174932   6.519   5.123   3.637 -1.4373 -2.2215 -0.3769
17839TIP3    H274933   6.549   4.975   3.640  2.4891 -1.5142  0.2739
17840TIP3   OH274934   4.965   6.804   5.041 -0.4100  0.0978 -0.0198
17840TIP3    H174935   4.998   6.781   5.127 -0.4810  1.0730  0.2727
17840TIP3    H274936   4.942   6.897   5.047 -2.6495 -0.3531 -0.3640
17841TIP3   OH274937   6.757   3.463   5.098  0.2907  0.2812 -0.3045
17841TIP3    H174938   6.664   3.463   5.073  0.2616  1.5369 -0.2691
17841TIP3    H274939   6.761   3.403   5.172 -0.3137 -0.5277 -0.9094
17842TIP3   OH274940   0.894   1.887   2.619  0.8441 -0.1792  0.1233
17842TIP3    H174941   0.931   1.939   2.549 -1.8805 -0.5952 -1.7777
17842TIP3    H274942   0.936   1.801   2.611  1.2171  0.0559 -0.4102
17843TIP3   OH274943   0.478   4.687   3.962  0.5198  0.8349  0.2602
17843TIP3    H174944   0.448   4.645   4.043  1.3088  1.2793  0.7952
17843TIP3    H274945   0.513   4.771   3.990 -0.8037  1.7692 -0.7655
17844TIP3   OH274946   5.886   6.270   1.647 -0.6781  0.3744  0.0255
17844TIP3    H174947   5.917   6.180   1.655 -0.9691  0.3417  0.8069
17844TIP3    H274948   5.965   6.323   1.646 -0.5273  0.1507  0.1260
17845TIP3   OH274949   4.432   6.004   5.622  0.6092 -0.6533  0.1182
17845TIP3    H174950   4.428   6.089   5.577 -1.2083  0.6654  2.5623
17845TIP3    H274951   4.514   6.007   5.671 -0.1461  0.4027  1.3837
17846TIP3   OH274952   5.696   2.808   2.491  0.4134 -0.1922  0.1465
17846TIP3    H174953   5.757   2.793   2.419 -0.3403 -0.2649 -0.4861
17846TIP3    H274954   5.619   2.757   2.469  0.5071 -0.9739  1.4783
17847TIP3   OH274955   4.692   3.446   5.359 -0.3816 -0.0545  0.2651
17847TIP3    H174956   4.631   3.471   5.290  0.0387  0.2608  0.0056
17847TIP3    H274957   4.636   3.429   5.435 -0.6740  1.8352  0.5092
17848TIP3   OH274958   0.010   6.328   1.337 -0.0380  0.3696  0.4482
17848TIP3    H174959   0.005   6.263   1.408 -2.9158  0.6007  0.5730
17848TIP3    H274960   0.004   6.277   1.257  2.0046  0.2092  0.3478
17849TIP3   OH274961   2.261   6.224   4.442 -0.0917 -0.0859  0.0299
17849TIP3    H174962   2.219   6.262   4.365  1.4431  0.6545 -0.5016
17849TIP3    H274963   2.201   6.156   4.472 -2.5069  2.1034  0.4513
17850TIP3   OH274964   2.568   1.129  13.762  0.4706 -0.4774 -0.2195
17850TIP3    H174965   2.534   1.215  13.786 -3.0690 -1.3509 -1.5757
17850TIP3    H274966   2.657   1.146  13.732  1.0456  2.1809  2.5086
17851TIP3   OH274967   5.126   0.233  15.191 -0.3337 -0.0750 -0.4261
17851TIP3    H174968   5.147   0.149  15.233 -0.5077  0.0767 -0.0324
17851TIP3    H274969   5.103   0.291  15.263  0.6465  0.5720 -0.6114
17852TIP3   OH274970   4.564   2.613   2.193  0.4951  0.3055 -0.8954
17852TIP3    H174971   4.476   2.585   2.170  1.3561 -1.4554 -2.3427
17852TIP3    H274972   4.552   2.678   2.262 -1.8059 -1.8344  0.8809
17853TIP3   OH274973   3.565   3.605   2.725  0.0667 -0.0249 -0.1387
17853TIP3    H174974   3.480   3.568   2.703  0.8223 -1.2205 -1.2209
17853TIP3    H274975   3.627   3.534   2.710  1.1611  0.4957  1.6296
17854TIP3   OH274976   0.876   1.726   1.215 -0.0111  0.0885  0.1875
17854TIP3    H174977   0.837   1.788   1.153 -0.8526  0.5630  1.1586
17854TIP3    H274978   0.923   1.781   1.277 -0.8241 -0.2135  1.1025
17855TIP3   OH274979   0.320   6.155   4.396 -0.7181 -0.5173  0.0189
17855TIP3    H174980   0.281   6.202   4.469  0.1828  0.0558  0.1458
17855TIP3    H274981   0.403   6.122   4.431 -0.9417 -1.4873 -0.3216
17856TIP3   OH274982   0.977   0.501   3.864  0.1288 -0.2205  0.9918
17856TIP3    H174983   0.937   0.454   3.938  0.6602 -1.2016  0.6664
17856TIP3    H274984   1.071   0.499   3.882  0.3648 -1.4815 -0.2761
17857TIP3   OH274985   1.501   5.517   3.499  0.3077 -0.9924  0.1104
17857TIP3    H174986   1.431   5.567   3.456  0.2897 -0.2537  0.9549
17857TIP3    H274987   1.534   5.459   3.431 -1.0320 -1.2576 -0.3450
17858TIP3   OH274988   1.629   4.669   1.955  0.3759  0.0908 -0.0171
17858TIP3    H174989   1.676   4.674   1.872  0.8785  1.2619  0.3222
17858TIP3    H274990   1.697   4.655   2.020 -0.1665 -2.9206  0.0619
17859TIP3   OH274991   1.235   7.159   1.762  0.0877  0.0552  0.6896
17859TIP3    H174992   1.166   7.097   1.783 -1.4510  1.7302  0.8592
17859TIP3    H274993   1.253   7.145   1.669 -1.8949  0.8339  0.1281
17860TIP3   OH274994   5.851   0.842   2.784 -0.1884  0.0666  0.0078
17860TIP3    H174995   5.818   0.764   2.829  0.9177 -0.6039 -0.3086
17860TIP3    H274996   5.807   0.841   2.699 -0.1194 -0.2657 -0.0262
17861TIP3   OH274997   0.082   4.350   5.847  0.1109 -0.2758  0.6389
17861TIP3    H174998   0.111   4.260   5.864 -0.8291 -0.7301 -0.0647
17861TIP3    H274999   0.152   4.388   5.794 -0.3935 -1.2604 -0.7954
17862TIP3   OH275000   4.747   5.678   4.857 -0.4984  0.2267  0.4466
17862TIP3    H175001   4.692   5.601   4.869  1.7307 -1.2274  2.3902
17862TIP3    H275002   4.750   5.719   4.943  3.0487 -1.0392  1.1138
17863TIP3   OH275003   3.315   1.162   3.017 -0.1292 -0.3846  0.3335
17863TIP3    H175004   3.273   1.213   2.948  1.4175 -0.5180 -0.7680
17863TIP3    H275005   3.374   1.223   3.060 -1.3204 -0.2159  1.8134
17864TIP3   OH275006   2.014   4.875   4.030  0.6662 -0.8350  0.0746
17864TIP3    H175007   2.028   4.916   3.945 -0.3384 -1.7664 -0.5649
17864TIP3    H275008   2.038   4.942   4.093  1.6393 -0.1997 -0.9313
17865TIP3   OH275009   5.420   2.145  13.216  0.5100  0.2152  0.9196
17865TIP3    H175010   5.420   2.164  13.309 -0.7182  0.1083  0.9594
17865TIP3    H275011   5.385   2.056  13.210  0.5920  0.2176  0.3558
17866TIP3   OH275012   0.284   5.333   1.195 -0.7039  0.1442  0.0499
17866TIP3    H175013   0.323   5.400   1.139  0.3473  0.6608  1.3450
17866TIP3    H275014   0.357   5.277   1.220 -1.3346 -0.6700  0.0868
17867TIP3   OH275015   1.712   3.324   2.595  0.5916 -0.3028 -0.8581
17867TIP3    H175016   1.688   3.397   2.652  2.1133  0.3011 -0.9430
17867TIP3    H275017   1.744   3.256   2.654 -0.5948 -0.8372 -0.7988
17868TIP3   OH275018   2.485   3.108  14.346  0.0877  0.4706  0.2945
17868TIP3    H175019   2.557   3.170  14.360 -0.9305  1.4521  1.3946
17868TIP3    H275020   2.421   3.156  14.295 -0.9996  0.5929  1.7098
17869TIP3   OH275021   5.217   2.183  15.075 -0.0216 -0.3789  0.3782
17869TIP3    H175022   5.241   2.238  15.150  0.6634  0.0243 -0.1236
17869TIP3    H275023   5.185   2.245  15.010  0.7355 -0.5593 -0.1827
17870TIP3   OH275024   6.512   3.575   0.260 -0.0234 -0.0777 -0.3879
17870TIP3    H175025   6.462   3.656   0.253  1.3606  0.7330 -1.1549
17870TIP3    H275026   6.548   3.560   0.173 -0.8979 -1.9847 -0.4863
17871TIP3   OH275027   2.181   4.177   3.058  0.7814 -0.4436  0.5844
17871TIP3    H175028   2.265   4.133   3.044  0.8124 -0.5320  1.0546
17871TIP3    H275029   2.123   4.138   2.992  0.7236 -1.4365  1.2012
17872TIP3   OH275030   5.058   0.253   1.384  0.3987  0.0526  0.3830
17872TIP3    H175031   5.054   0.333   1.332 -0.2307 -0.2512 -0.0490
17872TIP3    H275032   5.075   0.184   1.320 -0.9432 -0.3984  0.4755
17873TIP3   OH275033   2.843   0.692   3.930  0.2792 -0.0766 -0.3940
17873TIP3    H175034   2.784   0.701   3.855 -0.4330  0.7336  0.2342
17873TIP3    H275035   2.786   0.665   4.002  0.7883  0.0861  0.0785
17874TIP3   OH275036   5.831   5.053   4.095  0.2910  0.3787  0.0027
17874TIP3    H175037   5.763   5.119   4.076  0.1473  0.6625  1.3984
17874TIP3    H275038   5.849   5.013   4.010 -1.8508  0.0843 -0.3784
17875TIP3   OH275039   0.036   5.160   4.890  0.7971 -0.5331  0.1679
17875TIP3    H175040   0.120   5.204   4.887  0.7377 -0.4530 -1.6500
17875TIP3    H275041   0.057   5.067   4.884  0.7621 -0.4457 -2.8894
17876TIP3   OH275042   1.653   0.416   0.193  1.0401 -0.1211  0.0996
17876TIP3    H175043   1.715   0.435   0.123 -1.2059  0.8440 -1.7409
17876TIP3    H275044   1.582   0.369   0.150  0.8123 -2.0356  2.3162
17877TIP3   OH275045   3.141   1.226   2.397 -0.0618 -0.4268  0.2299
17877TIP3    H175046   3.181   1.140   2.397 -1.7323 -1.2424  0.2556
17877TIP3    H275047   3.214   1.287   2.382  1.1151 -1.8318  0.0586
17878TIP3   OH275048   2.062   3.954  13.835 -0.1205 -0.2533  0.5437
17878TIP3    H175049   2.094   4.023  13.776  1.4690 -0.8675  0.6213
17878TIP3    H275050   1.967   3.963  13.833  0.0118  1.4699 -0.0040
17879TIP3   OH275051   2.906   2.307   5.361 -1.0951  0.1731  0.3845
17879TIP3    H175052   2.956   2.382   5.393 -1.7801  0.2137  1.4088
17879TIP3    H275053   2.971   2.250   5.320 -0.4167  0.8402  0.5265
17880TIP3   OH275054   1.668   1.376   4.748  0.2356 -0.0589  0.4703
17880TIP3    H175055   1.640   1.412   4.832  0.7764  0.3687  0.4720
17880TIP3    H275056   1.589   1.334   4.713 -0.4171  1.0889  0.4913
17881TIP3   OH275057   5.420   5.483   4.875 -0.0487  0.3099 -0.6736
17881TIP3    H175058   5.376   5.427   4.811 -0.3805  1.6009 -1.6337
17881TIP3    H275059   5.355   5.498   4.943  0.3309 -1.1361  0.0280
17882TIP3   OH275060   2.116   0.397   2.475  0.3082 -0.3101  0.5929
17882TIP3    H175061   2.190   0.458   2.472  0.8886 -1.0306 -1.7890
17882TIP3    H275062   2.136   0.339   2.548  2.3693 -0.7552 -0.2663
17883TIP3   OH275063   2.694   4.830   4.858  0.3257  0.8659 -0.4132
17883TIP3    H175064   2.662   4.895   4.920  0.5647  0.3429  0.2699
17883TIP3    H275065   2.630   4.759   4.861  1.1226  0.1524  0.3975
17884TIP3   OH275066   5.028   3.333   1.758  0.6370  0.2847  0.7607
17884TIP3    H175067   5.065   3.323   1.670  0.6481 -1.0388  0.8911
17884TIP3    H275068   4.982   3.417   1.756  1.3292  0.6540 -0.2535
17885TIP3   OH275069   4.753   6.000  15.000 -0.2002 -0.6976  0.2407
17885TIP3    H175070   4.747   6.083  14.952 -0.7845 -0.7367  0.2390
17885TIP3    H275071   4.825   5.953  14.957 -0.3941 -0.5254 -0.2827
17886TIP3   OH275072   6.480   0.905  12.892 -0.2704 -0.2541 -0.2552
17886TIP3    H175073   6.535   0.983  12.882  0.3547 -0.7418 -0.6976
17886TIP3    H275074   6.463   0.899  12.987 -1.4072  1.1341 -0.3343
17887TIP3   OH275075   6.979   0.264   2.267  0.4080 -0.3104 -0.8626
17887TIP3    H175076   6.992   0.317   2.345 -0.1126 -0.4707 -0.6642
17887TIP3    H275077   6.974   0.174   2.299 -1.9350 -0.2231 -0.8024
17888TIP3   OH275078   4.261   0.394   6.017 -0.2387 -0.4983  0.4540
17888TIP3    H175079   4.227   0.482   6.032 -0.4258 -0.5091  0.1187
17888TIP3    H275080   4.351   0.408   5.987 -0.6519 -0.3482 -0.7777
17889TIP3   OH275081   1.727   0.914   4.158  0.4807 -0.3139 -0.1089
17889TIP3    H175082   1.754   0.823   4.166  0.5392 -0.4813 -1.8180
17889TIP3    H275083   1.753   0.939   4.069 -1.8358  0.5769 -0.6054
17890TIP3   OH275084   4.490   7.009   0.701 -0.3956  0.4219 -0.5594
17890TIP3    H175085   4.483   6.914   0.711  1.2996  0.3235  0.1647
17890TIP3    H275086   4.546   7.022   0.625 -1.6268  0.8966 -1.4171
17891TIP3   OH275087   5.066   0.031   1.246  0.3413 -0.0634  0.3185
17891TIP3    H175088   5.104  -0.002   1.327  0.2236 -0.5182  0.1910
17891TIP3    H275089   4.984  -0.016   1.237  0.0163  0.5006  0.2947
17892TIP3   OH275090   3.341   0.162   0.667 -0.0284  0.0559 -0.2679
17892TIP3    H175091   3.394   0.138   0.592 -0.5960  0.4160 -0.7920
17892TIP3    H275092   3.385   0.238   0.705  1.6214 -1.5555  1.2349
17893TIP3   OH275093   2.534   0.875  11.408  0.1823 -0.3180  0.0332
17893TIP3    H175094   2.625   0.847  11.423  1.0525  1.0399 -2.1120
17893TIP3    H275095   2.537   0.920  11.324 -2.2595  0.9443  0.5293
17894TIP3   OH275096   2.745   5.140   3.723 -0.4362 -0.3327  0.3862
17894TIP3    H175097   2.761   5.129   3.629 -0.4603  1.7680  0.0919
17894TIP3    H275098   2.824   5.105   3.765  0.0732 -0.2498 -0.4783
17895TIP3   OH275099   3.704   5.475  12.506  0.5505  0.0971 -0.0726
17895TIP3    H175100   3.748   5.411  12.449 -0.6616 -0.0282 -0.9054
17895TIP3    H275101   3.733   5.452  12.594  1.4251 -0.5559 -0.5109
17896TIP3   OH275102   2.603   1.583   2.881  0.0554  0.8122 -0.1113
17896TIP3    H175103   2.518   1.539   2.868  1.3315 -1.9162  0.0331
17896TIP3    H275104   2.613   1.586   2.976  0.3796  0.5042 -0.1315
17897TIP3   OH275105   0.455   6.228   1.269  0.5342 -0.3282 -0.3759
17897TIP3    H175106   0.461   6.188   1.356  1.1740 -1.4403 -0.9032
17897TIP3    H275107   0.404   6.307   1.282 -0.6348 -1.2257  0.7663
17898TIP3   OH275108   2.225   1.243  13.335  0.2234 -0.2720  0.0141
17898TIP3    H175109   2.210   1.326  13.380  0.6466  0.4782 -1.1450
17898TIP3    H275110   2.260   1.270  13.249  1.4076 -1.6784  0.0252
17899TIP3   OH275111   6.080   1.567   4.778  0.3707  0.0438  0.3143
17899TIP3    H175112   6.070   1.659   4.800  0.3660  0.3739 -0.9763
17899TIP3    H275113   6.003   1.547   4.724  1.0596 -0.3251 -0.5633
17900TIP3   OH275114   3.568   4.546   0.666  0.2761 -0.1156 -0.1151
17900TIP3    H175115   3.600   4.474   0.720  1.0006  1.0415  1.0498
17900TIP3    H275116   3.628   4.618   0.683 -0.5888  0.8678 -1.0360
17901TIP3   OH275117   4.735   6.822   3.303  0.4426  0.1009  0.0116
17901TIP3    H175118   4.748   6.872   3.384  0.7676  0.4268 -0.2362
17901TIP3    H275119   4.822   6.818   3.263  0.8054 -2.1687  0.8638
17902TIP3   OH275120   6.937   6.919   0.928  0.0238 -0.2192  0.1833
17902TIP3    H175121   7.031   6.911   0.944 -0.0958  0.4868  1.3589
17902TIP3    H275122   6.910   6.831   0.899  0.9756 -0.5229  0.1757
17903TIP3   OH275123   5.559   0.650  14.557 -0.0582 -0.1208  0.1587
17903TIP3    H175124   5.531   0.741  14.551  0.6776  0.0329 -1.1695
17903TIP3    H275125   5.646   0.654  14.599 -0.1062 -0.2316  0.2712
17904TIP3   OH275126   5.943   6.005  14.747  0.5384  0.0813 -0.4558
17904TIP3    H175127   5.953   6.027  14.840  1.8927  0.5123 -0.6970
17904TIP3    H275128   5.901   6.081  14.709 -1.5968 -0.7403  0.0743
17905TIP3   OH275129   0.374   5.714   4.135 -0.0226  0.2807 -0.7053
17905TIP3    H175130   0.314   5.719   4.210 -0.4329  3.0491 -1.1125
17905TIP3    H275131   0.333   5.652   4.075 -1.7537  0.9918 -0.3128
17906TIP3   OH275132   2.861   4.605   4.815  0.4033  0.1594 -0.1265
17906TIP3    H175133   2.789   4.552   4.850 -0.1682  1.6423  1.0601
17906TIP3    H275134   2.834   4.696   4.832  0.9938  0.9047 -2.7690
17907TIP3   OH275135   0.240   0.718   5.878  0.7361 -0.3755 -0.2433
17907TIP3    H175136   0.322   0.767   5.874  0.2131  0.5999  0.5112
17907TIP3    H275137   0.172   0.785   5.890  0.0896 -1.3089  1.8497
17908TIP3   OH275138   0.673   3.191   3.160  0.2729 -0.4657  0.3820
17908TIP3    H175139   0.590   3.237   3.149  1.1481  1.3218  0.9700
17908TIP3    H275140   0.670   3.122   3.093 -0.4613  1.3744 -1.5972
17909TIP3   OH275141   4.115   4.646   5.296 -0.4661 -0.2480  0.0413
17909TIP3    H175142   4.078   4.699   5.367 -2.4137  0.9749 -1.7859
17909TIP3    H275143   4.061   4.566   5.295  0.4631 -0.9114  0.7795
17910TIP3   OH275144   5.550   2.746   0.275  0.5019 -0.1060 -0.1676
17910TIP3    H175145   5.478   2.715   0.221 -2.2287  1.1610  2.4689
17910TIP3    H275146   5.560   2.838   0.251 -0.9498  0.5562  1.5487
17911TIP3   OH275147   1.960   3.868  13.062 -0.0593 -0.0417 -1.1083
17911TIP3    H175148   2.044   3.902  13.094 -0.2339 -0.7790  0.1896
17911TIP3    H275149   1.895   3.931  13.094 -0.1514 -0.3175 -0.7499
17912TIP3   OH275150   4.204   5.317  15.190 -0.5317  0.4349 -0.0078
17912TIP3    H175151   4.225   5.404  15.157  0.3464  0.4201  0.4831
17912TIP3    H275152   4.232   5.258  15.120  1.8238  0.3708  0.8832
17913TIP3   OH275153   6.143   4.204   4.910  0.1421 -0.1082  0.6612
17913TIP3    H175154   6.105   4.225   4.996 -0.4707 -0.7523  0.5580
17913TIP3    H275155   6.078   4.147   4.869 -0.3131  1.4716 -0.8896
17914TIP3   OH275156   7.018   6.703  11.973  0.1018  0.5292 -0.1314
17914TIP3    H175157   6.967   6.742  11.903 -1.3707  0.2344  0.7316
17914TIP3    H275158   6.993   6.752  12.051  0.7130  0.0048  0.4069
17915TIP3   OH275159   3.739   2.349   5.321 -0.4286 -0.0006 -0.4977
17915TIP3    H175160   3.825   2.352   5.363 -0.2676  1.0206 -0.8738
17915TIP3    H275161   3.735   2.263   5.280  1.0350  0.4844 -1.7367
17916TIP3   OH275162   0.008   5.048  13.554  0.0036  0.1016  0.0788
17916TIP3    H175163  -0.053   4.989  13.509 -0.8417  1.8778 -1.2436
17916TIP3    H275164  -0.043   5.083  13.628  0.8115 -1.4728  1.4314
17917TIP3   OH275165   6.014   5.113   4.954 -0.1523  0.1622 -0.4603
17917TIP3    H175166   6.046   5.056   4.884  0.2932  1.0852 -1.0177
17917TIP3    H275167   5.923   5.085   4.967  0.7200 -2.3111  0.9782
17918TIP3   OH275168   5.239   4.218   5.310  0.3674  1.0524 -0.3183
17918TIP3    H175169   5.313   4.213   5.249  0.4480  1.3794 -0.2458
17918TIP3    H275170   5.254   4.298   5.360  1.3575 -0.2082  1.5085
17919TIP3   OH275171   2.419   4.276  12.832  0.2475  0.0200 -0.5930
17919TIP3    H175172   2.419   4.215  12.758  2.2742 -1.2553  0.3506
17919TIP3    H275173   2.502   4.323  12.824 -0.0847  0.7542  0.1646
17920TIP3   OH275174   1.930   0.106   5.388 -0.4353  0.1698 -0.0096
17920TIP3    H175175   1.846   0.151   5.385  0.1494  1.2506 -1.8216
17920TIP3    H275176   1.983   0.150   5.322  1.8183 -0.0031  1.5703
17921TIP3   OH275177   2.831   4.747   0.113 -0.2712 -0.0693  0.7943
17921TIP3    H175178   2.811   4.659   0.144 -0.8157  0.7541  2.9114
17921TIP3    H275179   2.843   4.799   0.192  0.7415  1.6323 -0.4004
17922TIP3   OH275180   2.667   6.429   0.991  0.1358 -0.1204  0.0983
17922TIP3    H175181   2.749   6.458   1.030 -0.0306 -0.9858  1.1212
17922TIP3    H275182   2.628   6.509   0.955  1.1639  0.3825  0.0677
17923TIP3   OH275183   1.595   0.930   3.592 -0.2485  0.2650 -0.1605
17923TIP3    H175184   1.570   0.842   3.564  1.0597  0.3467 -1.7778
17923TIP3    H275185   1.691   0.928   3.594 -0.2129  1.0045  2.1373
17924TIP3   OH275186   1.698   0.869   1.317  0.1741  0.5561 -0.0526
17924TIP3    H175187   1.719   0.794   1.372 -0.7653 -0.0288 -0.4667
17924TIP3    H275188   1.717   0.945   1.373  0.9287  0.0197  0.4413
17925TIP3   OH275189   5.875   4.304   4.538 -0.1887 -0.1771 -0.0649
17925TIP3    H175190   5.942   4.298   4.606 -0.3559 -0.5895  0.0706
17925TIP3    H275191   5.922   4.335   4.461  0.0729 -0.0486  0.1425
17926TIP3   OH275192   2.728   5.531  15.089 -0.1168 -0.0584  0.2209
17926TIP3    H175193   2.652   5.476  15.106 -0.3927  0.5721  1.1498
17926TIP3    H275194   2.745   5.574  15.173  0.0836  1.2491 -0.4606
17927TIP3   OH275195   7.082   1.545  14.600 -0.0752  0.3671  0.6393
17927TIP3    H175196   6.992   1.512  14.592  0.3211 -0.4973 -0.4162
17927TIP3    H275197   7.096   1.551  14.695 -0.8438 -0.6311  0.8397
17928TIP3   OH275198   6.711   3.242   3.259 -0.3182 -0.5835  0.6265
17928TIP3    H175199   6.734   3.283   3.342 -1.3953  1.1991  0.1039
17928TIP3    H275200   6.617   3.258   3.250  0.0501  0.7573 -1.6811
17929TIP3   OH275201   2.853   3.002   3.384 -0.5528  0.2366 -0.6218
17929TIP3    H175202   2.834   2.977   3.474 -1.7147  0.8181 -0.6864
17929TIP3    H275203   2.939   2.964   3.366  0.2050  1.0072  1.0795
17930TIP3   OH275204   7.014   4.863   5.407  0.0792 -0.2012  0.5082
17930TIP3    H175205   7.101   4.864   5.367  0.2051  0.5330  0.7814
17930TIP3    H275206   7.029   4.834   5.497  0.0561 -0.0266  0.5704
17931TIP3   OH275207   3.608   3.816   2.980  0.7562  0.8164 -0.3036
17931TIP3    H175208   3.541   3.771   3.032 -0.3699  0.6001 -1.8566
17931TIP3    H275209   3.671   3.847   3.045 -0.9687  1.2486  1.2835
17932TIP3   OH275210   0.308   6.346  14.333 -0.5136 -0.4092  0.4232
17932TIP3    H175211   0.364   6.269  14.348  1.4224  0.9221  0.4419
17932TIP3    H275212   0.248   6.347  14.407 -1.7316 -2.8170 -0.4396
17933TIP3   OH275213   3.129   5.944   3.237 -0.1693 -0.3665  0.1816
17933TIP3    H175214   3.038   5.973   3.235 -0.4343 -0.9532  1.7847
17933TIP3    H275215   3.126   5.857   3.278  1.1833 -0.0138  1.1196
17934TIP3   OH275216   2.659   5.026  14.529  0.2577  0.1369 -0.2866
17934TIP3    H175217   2.569   5.000  14.511  0.3969 -2.0593  1.7757
17934TIP3    H275218   2.651   5.111  14.573 -0.9019 -0.5245  0.8329
17935TIP3   OH275219   2.843   1.714   5.109  0.0662 -0.4337  0.3779
17935TIP3    H175220   2.898   1.759   5.174 -0.1128  1.6355 -0.8054
17935TIP3    H275221   2.832   1.626   5.144  1.9355 -0.1162  1.9649
17936TIP3   OH275222   0.692   0.813  12.485  0.0415 -0.2462  0.1445
17936TIP3    H175223   0.749   0.880  12.522  0.9584 -0.3525 -1.0157
17936TIP3    H275224   0.614   0.860  12.456  0.4804  0.2587 -0.2381
17937TIP3   OH275225   3.727   4.632   1.226 -0.1993 -0.3696  0.3654
17937TIP3    H175226   3.796   4.626   1.291  0.2934  0.6712 -0.0412
17937TIP3    H275227   3.737   4.719   1.187  0.6803 -1.5561 -2.3467
17938TIP3   OH275228   6.786   0.620   4.869  0.2374  0.7054  0.2171
17938TIP3    H175229   6.823   0.682   4.932  0.3305 -1.8083  2.8601
17938TIP3    H275230   6.692   0.620   4.888  0.2482  0.0041  0.2924
17939TIP3   OH275231   5.105   6.952   4.035 -0.4465 -0.2337  0.2906
17939TIP3    H175232   5.056   6.999   3.967 -1.4365 -2.5020 -0.6599
17939TIP3    H275233   5.047   6.951   4.111 -1.6451 -2.1722 -0.5634
17940TIP3   OH275234   4.977   5.760   3.903 -0.2827 -0.5663  0.4213
17940TIP3    H175235   4.915   5.721   3.840 -1.3657  0.7064  0.6489
17940TIP3    H275236   4.931   5.757   3.987  0.7656 -1.3684  0.9819
17941TIP3   OH275237   1.879   4.742   2.083  0.7070  0.2184  0.2884
17941TIP3    H175238   1.910   4.742   2.174  1.4020  1.0589  0.0709
17941TIP3    H275239   1.915   4.823   2.046  0.3527 -0.0682 -0.7114
17942TIP3   OH275240   2.054   0.345  10.122  0.2858  0.2484 -0.1178
17942TIP3    H175241   1.979   0.388  10.163  1.0381  1.4030  0.0998
17942TIP3    H275242   2.075   0.401  10.047  0.4414 -0.5119 -0.6551
17943TIP3   OH275243   5.286   0.242  12.552  0.1658 -0.2903  0.4604
17943TIP3    H175244   5.375   0.267  12.577 -1.0888  2.9721  2.2966
17943TIP3    H275245   5.256   0.186  12.625  0.0060  0.5108  1.0272
17944TIP3   OH275246   4.974   3.066  15.116  0.0379 -0.7761  0.7443
17944TIP3    H175247   4.909   3.040  15.052  0.5879  0.1375 -0.2117
17944TIP3    H275248   4.926   3.122  15.178 -0.0442  0.1238 -0.1101
17945TIP3   OH275249   2.718   6.860   3.297 -0.1200  0.2928  0.1349
17945TIP3    H175250   2.676   6.816   3.223 -0.6855 -0.3869  0.8536
17945TIP3    H275251   2.811   6.838   3.287 -0.2790 -0.3268 -0.0105
17946TIP3   OH275252   1.590   6.589  15.317 -0.2321  0.0279  0.5032
17946TIP3    H175253   1.650   6.613  15.246 -0.5950  1.2322  0.5790
17946TIP3    H275254   1.647   6.557  15.387  0.2451  0.2702  0.2278
17947TIP3   OH275255   2.302   3.234   2.995  0.1341  0.1183 -0.8267
17947TIP3    H175256   2.242   3.163   2.973  0.8898 -0.5505 -0.8073
17947TIP3    H275257   2.350   3.201   3.072 -0.3820  1.1741 -0.0395
17948TIP3   OH275258   4.867   1.994   3.913  0.0332  0.0616  0.0145
17948TIP3    H175259   4.950   1.963   3.950  0.5105  1.1430 -0.1112
17948TIP3    H275260   4.889   2.022   3.824 -1.0370 -2.2104 -1.0475
17949TIP3   OH275261   4.997   5.220   5.495  0.5037  0.5881 -0.6562
17949TIP3    H175262   4.979   5.295   5.437 -1.9717 -0.6597 -1.6230
17949TIP3    H275263   4.942   5.150   5.461  3.6900 -2.1519 -0.5856
17950TIP3   OH275264   1.052   6.044   4.211 -0.5011 -0.1596  0.0581
17950TIP3    H175265   1.049   6.043   4.306 -1.8616 -0.8404  0.0268
17950TIP3    H275266   0.978   5.990   4.183 -0.6108  0.6741 -1.3889
17951TIP3   OH275267   2.337   4.506   0.960 -0.0683 -0.2716 -0.7120
17951TIP3    H175268   2.258   4.540   1.002  1.8919  2.6158  1.0589
17951TIP3    H275269   2.329   4.533   0.868 -1.4810 -0.7987 -0.7640
17952TIP3   OH275270   6.819   4.010   2.244  0.2288 -0.5494  0.3475
17952TIP3    H175271   6.816   4.033   2.337 -0.8409  0.1374  0.1580
17952TIP3    H275272   6.901   4.047   2.213  0.2764 -0.2034  0.8753
17953TIP3   OH275273   3.273   0.843  14.868 -0.2734  0.0503  0.4666
17953TIP3    H175274   3.185   0.876  14.850 -0.0198 -0.6593 -2.7312
17953TIP3    H275275   3.331   0.908  14.827  0.5448 -0.7673  0.3077
17954TIP3   OH275276   0.786   1.937   5.903  0.0928 -0.0926 -0.1335
17954TIP3    H175277   0.835   1.854   5.905  1.1831  0.5521  0.3349
17954TIP3    H275278   0.710   1.921   5.958  0.0204 -0.9471 -0.4605
17955TIP3   OH275279   5.389   1.185   4.928 -0.3551 -0.2489 -0.6677
17955TIP3    H175280   5.350   1.131   4.860  0.4475 -0.6512 -0.8246
17955TIP3    H275281   5.461   1.230   4.883 -0.4916  0.3037 -0.3380
17956TIP3   OH275282   0.577   1.563   0.755  0.3818 -0.6327 -0.0564
17956TIP3    H175283   0.588   1.649   0.712 -0.0818  0.0897  1.2203
17956TIP3    H275284   0.497   1.573   0.807  1.2662 -1.2566  1.4679
17957TIP3   OH275285   0.530   7.164   5.625  0.5891 -0.4782  0.2489
17957TIP3    H175286   0.558   7.074   5.608  1.6398 -0.2485  0.6823
17957TIP3    H275287   0.611   7.210   5.645  0.1084  0.6638 -0.3860
17958TIP3   OH275288   4.581   3.915   2.073 -0.6774 -0.1626 -0.4402
17958TIP3    H175289   4.658   3.954   2.113  0.7060 -0.3742 -2.6799
17958TIP3    H275290   4.519   3.987   2.064 -1.0753 -0.1211  1.9664
17959TIP3   OH275291   3.692   3.494   1.132 -0.2638  0.2578 -0.1645
17959TIP3    H175292   3.598   3.512   1.124  0.3469  3.4998 -2.2863
17959TIP3    H275293   3.717   3.535   1.215 -0.9056 -2.2895  1.4006
17960TIP3   OH275294   1.521   5.526   2.502 -0.1759 -0.1855 -0.4269
17960TIP3    H175295   1.450   5.463   2.487  1.2275 -1.8787 -0.2842
17960TIP3    H275296   1.577   5.518   2.425  0.8513 -0.2674  0.3086
17961TIP3   OH275297   2.163   6.174   3.495 -0.0041 -0.4262  0.7566
17961TIP3    H175298   2.180   6.080   3.506 -1.2958 -0.8714 -0.7341
17961TIP3    H275299   2.068   6.180   3.486  0.2495  0.6863 -1.8068
17962TIP3   OH275300   0.065   1.261   2.443 -0.0507 -0.4091  0.3498
17962TIP3    H175301  -0.007   1.320   2.420  1.1480  1.2121  0.5916
17962TIP3    H275302   0.036   1.217   2.523 -0.2235  1.2970  1.2699
17963TIP3   OH275303   1.307   3.045   5.502  0.3103 -0.4516 -0.1829
17963TIP3    H175304   1.264   3.109   5.559 -1.9844 -2.2262  0.2189
17963TIP3    H275305   1.264   3.056   5.417 -1.4564 -2.5708  0.3430
17964TIP3   OH275306   5.523   3.154   0.588 -0.4515  0.1087 -0.4682
17964TIP3    H175307   5.522   3.077   0.531 -0.3892 -1.3702  1.4278
17964TIP3    H275308   5.548   3.120   0.674  2.7539  2.7167 -0.1797
17965TIP3   OH275309   4.632   0.340   1.512 -0.5763  0.1770  0.2750
17965TIP3    H175310   4.657   0.400   1.441 -2.0937  1.4227  0.7312
17965TIP3    H275311   4.666   0.255   1.485 -0.3244  0.8009 -1.4996
17966TIP3   OH275312   4.841   7.145  13.761 -0.2797 -0.0162  0.2520
17966TIP3    H175313   4.890   7.094  13.825  2.0710  3.8426  1.8759
17966TIP3    H275314   4.899   7.149  13.684 -1.1532 -0.9731 -0.4914
17967TIP3   OH275315   3.165   2.021   5.561 -0.4046  0.1890 -0.1684
17967TIP3    H175316   3.104   2.051   5.493  0.1020  1.7706  0.0343
17967TIP3    H275317   3.125   1.940   5.595 -1.5937  0.3578 -1.0864
17968TIP3   OH275318   2.918   0.142   4.410 -0.1158 -0.1601  0.7479
17968TIP3    H175319   2.900   0.214   4.471  0.1983  1.3014 -0.7809
17968TIP3    H275320   2.997   0.171   4.363 -0.1642 -1.3757 -0.1208
17969TIP3   OH275321   0.548   6.255   4.575  0.3911 -0.6728  0.0529
17969TIP3    H175322   0.639   6.285   4.576  0.3721 -0.6094 -0.2845
17969TIP3    H275323   0.503   6.312   4.513  0.0375 -0.4634  0.4951
17970TIP3   OH275324   0.185   1.045   1.472  0.0258  0.0575 -0.1975
17970TIP3    H175325   0.168   1.028   1.564 -0.9808 -1.0772 -0.5746
17970TIP3    H275326   0.255   0.985   1.448  0.1576  0.2193 -0.2210
17971TIP3   OH275327   3.754   6.066   0.474  0.3857 -0.6338 -0.2528
17971TIP3    H175328   3.717   5.977   0.475 -0.2099 -0.4126  1.6325
17971TIP3    H275329   3.717   6.108   0.551 -0.8492  1.9092 -2.0814
17972TIP3   OH275330   2.741   2.269   1.443 -0.7909  1.0179 -0.1886
17972TIP3    H175331   2.781   2.348   1.478 -0.5121  0.8502 -0.1302
17972TIP3    H275332   2.748   2.205   1.513  1.3252  0.1498 -1.1064
17973TIP3   OH275333   6.986   1.239  13.804  0.0613  0.7302  0.0174
17973TIP3    H175334   6.907   1.253  13.856  1.1931 -0.2916  2.1855
17973TIP3    H275335   6.976   1.152  13.766 -0.3665  1.0994 -0.7279
17974TIP3   OH275336   5.615   3.173   5.625 -0.0050  0.2157 -0.0664
17974TIP3    H175337   5.558   3.104   5.592 -1.1902  0.8505  0.5495
17974TIP3    H275338   5.695   3.167   5.573 -0.1889 -1.4372 -0.1857
17975TIP3   OH275339   4.698   4.577   1.122  0.3014 -0.2772  0.0058
17975TIP3    H175340   4.603   4.573   1.113  0.3934 -1.0579 -0.6939
17975TIP3    H275341   4.726   4.648   1.064 -0.0461  1.6109  2.0070
17976TIP3   OH275342   5.923   1.612   4.376  0.1117  0.3452  0.1530
17976TIP3    H175343   5.970   1.665   4.439 -0.6971  0.0254  1.0376
17976TIP3    H275344   5.903   1.672   4.304  1.0514  0.7048  0.1841
17977TIP3   OH275345   6.736   5.586   2.773  0.3330  0.3495 -0.5408
17977TIP3    H175346   6.655   5.617   2.816  0.9711 -0.3473  1.2508
17977TIP3    H275347   6.736   5.631   2.688 -1.7373  0.6633 -0.4342
17978TIP3   OH275348   3.788   5.611  13.830  0.0978  0.5035 -0.5778
17978TIP3    H175349   3.866   5.667  13.826  0.8026 -0.4108 -0.2521
17978TIP3    H275350   3.798   5.563  13.912 -0.6038  0.0729 -0.7373
17979TIP3   OH275351   0.495   1.773   1.471  0.4116  0.0721  0.2862
17979TIP3    H175352   0.519   1.738   1.557  0.9166 -0.6628 -0.1477
17979TIP3    H275353   0.416   1.725   1.446 -0.0019  0.6105  0.5345
17980TIP3   OH275354   7.147   1.177  14.040 -0.9398 -0.3193 -0.4240
17980TIP3    H175355   7.089   1.219  13.976 -1.9552  1.3777  1.4590
17980TIP3    H275356   7.173   1.249  14.099  0.3256 -1.6984  0.7818
17981TIP3   OH275357   5.605   3.681  12.411 -0.2059 -0.2916 -0.0117
17981TIP3    H175358   5.677   3.676  12.348  0.1189 -0.5149  0.3763
17981TIP3    H275359   5.540   3.619  12.377 -1.0248  1.2121 -1.3631
17982TIP3   OH275360   5.312   2.998   4.483 -0.5949  0.4763 -0.3305
17982TIP3    H175361   5.329   3.056   4.409  0.7036  0.9625  0.3152
17982TIP3    H275362   5.343   2.912   4.454 -0.9663  0.4555 -0.6779
17983TIP3   OH275363   3.827   3.103  14.869 -0.5667 -0.1781  0.1408
17983TIP3    H175364   3.865   3.163  14.933 -1.2955 -2.2427  2.6901
17983TIP3    H275365   3.732   3.111  14.882 -0.9117  1.2107 -2.5751
17984TIP3   OH275366   3.133   5.023   6.013 -0.0046  0.4338  0.1001
17984TIP3    H175367   3.108   5.115   6.005  0.3970  0.5366  0.0123
17984TIP3    H275368   3.227   5.021   5.993  0.6282  0.4087  2.6934
17985TIP3   OH275369   2.494   2.732   3.540 -0.8472 -0.1355  0.6750
17985TIP3    H175370   2.536   2.649   3.564 -0.6801  0.1619  1.4365
17985TIP3    H275371   2.562   2.798   3.555 -1.0402  0.1590  0.2588
17986TIP3   OH275372   5.746   1.482   9.905  0.1299  0.8899 -0.4185
17986TIP3    H175373   5.666   1.510   9.950  0.7795  0.5990  0.9447
17986TIP3    H275374   5.735   1.387   9.894  1.5403  0.2597  2.5382
17987TIP3   OH275375   7.153   0.648   3.139 -0.6590  0.2619  0.1432
17987TIP3    H175376   7.216   0.694   3.085  0.0229 -0.1676  0.5605
17987TIP3    H275377   7.202   0.623   3.218 -1.3859  0.0705  0.5459
17988TIP3   OH275378   6.964   5.990   2.169 -0.3582  0.0384  0.3265
17988TIP3    H175379   6.885   6.026   2.209 -0.8163  0.0865 -0.5962
17988TIP3    H275380   7.034   6.048   2.198 -0.8975  0.9127 -0.1020
17989TIP3   OH275381   2.803   4.285   4.095 -0.2211  0.2075  0.0453
17989TIP3    H175382   2.832   4.302   4.005 -0.7020 -0.7926 -0.3203
17989TIP3    H275383   2.834   4.360   4.145  0.6782  0.4413 -0.8227
17990TIP3   OH275384   6.525   1.689  13.862 -0.1881  0.1946 -0.2013
17990TIP3    H175385   6.560   1.601  13.848 -0.4600 -0.4797  2.6109
17990TIP3    H275386   6.431   1.680  13.854 -0.1354  0.6187 -1.4954
17991TIP3   OH275387   6.329   1.383   2.749  0.1662 -0.5048  0.0928
17991TIP3    H175388   6.271   1.391   2.673 -0.3517 -0.1590  0.5125
17991TIP3    H275389   6.312   1.462   2.801  1.8487  0.1697 -0.3253
17992TIP3   OH275390   3.467   6.846   2.984 -0.5334  0.1650 -0.3460
17992TIP3    H175391   3.450   6.833   3.077  0.4902  2.0550  0.1566
17992TIP3    H275392   3.523   6.923   2.980  0.8034 -0.8070 -2.4335
17993TIP3   OH275393   0.796   1.647   5.637  0.3761 -0.7117 -0.7894
17993TIP3    H175394   0.884   1.660   5.601  0.2082  0.9613 -0.6952
17993TIP3    H275395   0.775   1.730   5.680 -1.0569 -1.2545 -0.3594
17994TIP3   OH275396   2.464   2.537   1.196  0.1758  0.3001 -0.0988
17994TIP3    H175397   2.397   2.471   1.214 -0.3910  1.5040  2.7125
17994TIP3    H275398   2.547   2.491   1.206 -0.2158 -0.4417 -0.2133
17995TIP3   OH275399   5.953   0.241   0.437  0.2108  0.0297  0.4615
17995TIP3    H175400   6.002   0.186   0.375 -1.7466 -1.8821  0.4679
17995TIP3    H275401   5.862   0.231   0.409 -0.5761  0.2886  2.7784
17996TIP3   OH275402   3.397   5.030   1.464  0.4877  0.7025 -0.1928
17996TIP3    H175403   3.302   5.041   1.470 -0.0563 -1.8844 -2.3600
17996TIP3    H275404   3.422   5.085   1.390  0.5767  0.7808 -0.1053
17997TIP3   OH275405   5.426   1.851  15.378  0.9362  0.3633 -0.5210
17997TIP3    H175406   5.513   1.884  15.357 -0.4376  3.9457 -1.2588
17997TIP3    H275407   5.404   1.793  15.304  2.7609 -0.9662 -0.0949
17998TIP3   OH275408   2.821   0.148  15.004 -0.5222  0.3603  0.0743
17998TIP3    H175409   2.818   0.190  15.090  1.6576 -3.6464  2.3677
17998TIP3    H275410   2.731   0.116  14.990 -1.4421  2.8682 -0.3269
17999TIP3   OH275411   2.575   1.065   0.059 -1.2119 -0.5094  0.5397
17999TIP3    H175412   2.563   1.133   0.125 -2.7744 -0.4818  0.2644
17999TIP3    H275413   2.589   0.985   0.110 -1.7725 -0.3821  0.9049
18000TIP3   OH275414   5.973   7.104   3.529 -0.0660 -0.2296 -0.6230
18000TIP3    H175415   5.885   7.130   3.556  0.1154 -0.6105  0.3458
18000TIP3    H275416   5.998   7.170   3.464 -0.5589  0.6296  0.0327
18001TIP3   OH275417   1.571   0.136   4.978  0.5288 -0.1409 -0.0258
18001TIP3    H175418   1.502   0.108   5.039  1.2909 -0.6316  0.6313
18001TIP3    H275419   1.532   0.209   4.930 -0.3056 -0.1427  0.6196
18002TIP3   OH275420   3.739   1.522   5.991  0.7749  0.6100 -0.5124
18002TIP3    H175421   3.763   1.442   6.037  2.4710  0.9648 -0.7392
18002TIP3    H275422   3.719   1.493   5.902  3.2273  0.6057 -1.1301
18003TIP3   OH275423   1.488   1.646   4.693 -0.0724 -0.4330  0.3413
18003TIP3    H175424   1.571   1.606   4.666  0.6398  1.6131 -0.7383
18003TIP3    H275425   1.435   1.648   4.613 -0.9229 -1.1053  0.8672
18004TIP3   OH275426   5.767   6.526  15.331  0.2058 -0.2425 -0.6924
18004TIP3    H175427   5.751   6.462  15.401 -1.0044  1.3000  0.5305
18004TIP3    H275428   5.762   6.610  15.376  2.1007  0.7290 -2.1849
18005TIP3   OH275429   2.933   2.337   4.783 -0.2750  0.4481  0.3594
18005TIP3    H175430   2.939   2.242   4.777  1.1628  0.4761  0.9667
18005TIP3    H275431   2.971   2.369   4.701 -0.3962  0.5161  0.3277
18006TIP3   OH275432   2.324   6.673  13.550 -0.5813  0.7766 -0.2088
18006TIP3    H175433   2.346   6.588  13.588 -1.8861  0.5698  0.1430
18006TIP3    H275434   2.370   6.674  13.466  1.6062  0.8562  0.9130
18007TIP3   OH275435   2.706   1.032   1.387 -0.1765 -0.7145  0.7578
18007TIP3    H175436   2.745   1.059   1.470 -1.4560 -1.2538  1.5812
18007TIP3    H275437   2.673   0.943   1.404  3.2599 -2.6933 -1.6109
18008TIP3   OH275438   4.257   1.875   6.316  0.4522  0.1723 -0.4970
18008TIP3    H175439   4.184   1.897   6.374 -0.1107 -0.7175 -0.8421
18008TIP3    H275440   4.251   1.939   6.245  0.7924  0.9010  0.1197
18009TIP3   OH275441   1.945   1.500   1.136 -0.0802  0.2254  0.0975
18009TIP3    H175442   1.931   1.418   1.183 -0.4384 -0.0022 -0.3951
18009TIP3    H275443   1.939   1.568   1.203  2.2360 -0.2437  0.8972
18010TIP3   OH275444   0.960   5.094  14.075 -0.1527 -0.0322  0.2437
18010TIP3    H175445   0.993   5.083  14.164 -0.0296 -1.3516  0.0577
18010TIP3    H275446   0.870   5.061  14.079 -1.3257  2.8928  0.5919
18011TIP3   OH275447   6.754   3.085  13.651 -0.2781 -0.0239  0.3878
18011TIP3    H175448   6.780   3.177  13.642  0.9400 -0.3173  0.6927
18011TIP3    H275449   6.835   3.040  13.675 -0.6120 -1.3529 -0.8617
18012TIP3   OH275450   6.181   5.357   3.778 -0.4250  0.0070 -0.0951
18012TIP3    H175451   6.207   5.265   3.775 -1.4346 -0.2697 -0.9699
18012TIP3    H275452   6.210   5.392   3.694 -0.4873  0.3639  0.0329
18013TIP3   OH275453   4.810   5.120   1.343  0.0384 -0.1848 -0.9437
18013TIP3    H175454   4.784   5.041   1.296  2.3759 -1.1783 -0.7335
18013TIP3    H275455   4.864   5.168   1.281 -0.0675  0.4696 -0.5373
18014TIP3   OH275456   0.594   2.860   1.900  0.3433  0.6844  0.2883
18014TIP3    H175457   0.503   2.859   1.871  0.2342  2.3066  0.4456
18014TIP3    H275458   0.645   2.868   1.820  0.3010  0.5323  0.2469
18015TIP3   OH275459   3.474   0.168   4.225  0.7913 -0.1245 -0.5375
18015TIP3    H175460   3.515   0.086   4.248  2.3912  0.6443 -0.5481
18015TIP3    H275461   3.466   0.165   4.129 -0.4298 -0.8114 -0.4435
18016TIP3   OH275462   0.455   4.218   3.269 -0.2032 -0.4216  0.2779
18016TIP3    H175463   0.494   4.153   3.211  0.2548  0.7622 -0.8153
18016TIP3    H275464   0.482   4.192   3.357  0.0057 -1.6615 -0.1402
18017TIP3   OH275465   6.407   4.133   1.861 -0.0928 -0.3776 -0.0200
18017TIP3    H175466   6.391   4.202   1.798  0.2141 -0.6122 -0.3565
18017TIP3    H275467   6.390   4.173   1.946 -0.0648  0.0645 -0.2250
18018TIP3   OH275468   7.083   6.694   3.409 -0.3827  0.3323  0.7465
18018TIP3    H175469   7.172   6.707   3.443 -0.7680  0.5627  1.6883
18018TIP3    H275470   7.096   6.648   3.326  0.6659  1.1985  0.4113
18019TIP3   OH275471   4.072   0.676   0.992  0.1551  0.0794  0.0950
18019TIP3    H175472   4.087   0.731   1.068  0.3593 -1.0469  0.8995
18019TIP3    H275473   4.063   0.587   1.028  0.2490 -0.4726 -1.1874
18020TIP3   OH275474   5.588   3.735   1.332 -0.5271  0.3895 -0.3484
18020TIP3    H175475   5.607   3.799   1.400 -1.2899 -0.1354  0.3861
18020TIP3    H275476   5.504   3.696   1.358 -0.9564  0.3217 -1.7084
18021TIP3   OH275477   2.484   5.808  13.939  0.4013  0.3643 -0.0742
18021TIP3    H175478   2.567   5.836  13.900  0.9472  0.9711  1.4575
18021TIP3    H275479   2.477   5.860  14.019 -1.4216  0.2495 -0.1276
18022TIP3   OH275480   5.498   4.814   2.374 -0.1186 -0.1385 -0.0152
18022TIP3    H175481   5.476   4.897   2.331  1.6354  0.6598  0.5208
18022TIP3    H275482   5.440   4.810   2.450  1.2660  1.7736  1.2466
18023TIP3   OH275483   6.472   0.268   5.287  0.0534  0.1544 -0.2201
18023TIP3    H175484   6.389   0.249   5.244 -0.3387  0.4214  0.3910
18023TIP3    H275485   6.468   0.362   5.305  0.6590  0.2422 -0.5428
18024TIP3   OH275486   1.368   2.809  13.703 -0.0481  0.3809  0.6445
18024TIP3    H175487   1.405   2.884  13.655 -0.3268  0.4050  0.4670
18024TIP3    H275488   1.329   2.848  13.781 -0.4611  0.4582  0.4021
18025TIP3   OH275489   3.604   1.021   3.287 -0.2991  0.2100 -0.2178
18025TIP3    H175490   3.580   1.033   3.195  1.6362  2.8158 -0.5264
18025TIP3    H275491   3.687   1.069   3.296 -0.4293  0.0551  2.9014
18026TIP3   OH275492   4.864   4.151   3.518  0.6401  0.0272  0.1932
18026TIP3    H175493   4.823   4.075   3.558  0.6430  0.4727  1.0773
18026TIP3    H275494   4.920   4.187   3.588 -0.2970  1.5419  0.2018
18027TIP3   OH275495   1.539   5.141   1.556 -0.1141  0.6183 -0.8310
18027TIP3    H175496   1.597   5.084   1.605 -0.3781  0.1052 -1.1057
18027TIP3    H275497   1.504   5.086   1.485  0.9567  1.5724 -2.1551
18028TIP3   OH275498   0.092   0.930   3.001  0.3619  0.1086 -0.2164
18028TIP3    H175499   0.133   0.990   2.939  0.7146 -1.4283 -1.5349
18028TIP3    H275500   0.164   0.891   3.049  0.1505  0.4529  0.4022
18029TIP3   OH275501   6.613   0.778  14.987  0.1330 -0.4692 -0.2217
18029TIP3    H175502   6.597   0.852  14.928 -1.7815 -2.0932 -1.8993
18029TIP3    H275503   6.707   0.781  15.004  0.4378  1.1725 -1.8527
18030TIP3   OH275504   0.739   4.045   1.746  0.2680 -0.1319  0.2850
18030TIP3    H175505   0.753   4.060   1.653  0.2122 -0.4483  0.2249
18030TIP3    H275506   0.741   3.950   1.756  0.9779 -0.0783  0.7200
18031TIP3   OH275507   2.688   1.956   3.241 -0.1024  0.2264  0.1047
18031TIP3    H175508   2.651   1.964   3.153  3.6250 -1.1433 -1.8092
18031TIP3    H275509   2.642   1.882   3.280 -1.5994  0.6697 -0.7337
18032TIP3   OH275510   4.802   0.947  13.763 -0.3459 -0.0113 -0.0228
18032TIP3    H175511   4.892   0.915  13.771 -0.0919  0.6352 -0.2294
18032TIP3    H275512   4.804   1.034  13.803 -0.3160  1.0147 -2.1409
18033TIP3   OH275513   1.032   1.224  10.902  0.7502 -0.1866  0.3237
18033TIP3    H175514   1.072   1.263  10.825  0.6719  1.2026  0.9545
18033TIP3    H275515   0.943   1.201  10.874  0.8102  0.0609 -0.0740
18034TIP3   OH275516   5.518   0.078   1.445  0.3568  0.4964 -0.0308
18034TIP3    H175517   5.553   0.165   1.425  0.1523  0.5681 -0.0816
18034TIP3    H275518   5.424   0.093   1.458 -0.1736 -0.1082 -2.6196
18035TIP3   OH275519   5.998   3.197  14.143 -0.0517 -0.2748  0.0741
18035TIP3    H175520   6.085   3.180  14.180  0.0945  1.2705  0.4850
18035TIP3    H275521   5.941   3.133  14.186  0.7897 -0.9820  0.1566
18036TIP3   OH275522   3.737   0.726  11.406 -0.3078  0.1945 -0.4466
18036TIP3    H175523   3.656   0.763  11.371  0.8257  2.3029 -0.9980
18036TIP3    H275524   3.764   0.661  11.341 -1.1722 -0.0392 -0.5916
18037TIP3   OH275525   3.158   5.844  15.277  0.0740  0.3469 -0.4551
18037TIP3    H175526   3.108   5.835  15.358 -0.7677 -2.6878 -1.1970
18037TIP3    H275527   3.244   5.807  15.298 -0.7349 -2.2431 -1.3330
18038TIP3   OH275528   3.091   6.861   3.035 -0.2742 -0.3725  0.0362
18038TIP3    H175529   3.043   6.802   3.093 -0.2952 -1.7357 -1.3203
18038TIP3    H275530   3.167   6.810   3.007  1.7304  1.5146  1.6484
18039TIP3   OH275531   2.684   1.999   3.538  0.0592 -0.2450 -0.1412
18039TIP3    H175532   2.764   1.967   3.496 -0.5978 -1.2073 -0.6850
18039TIP3    H275533   2.664   1.933   3.605 -0.0811  0.1831  0.2467
18040TIP3   OH275534   4.878   3.549   3.773 -0.8756  0.8448  0.2653
18040TIP3    H175535   4.872   3.482   3.841 -0.0323  0.4398 -0.0449
18040TIP3    H275536   4.928   3.508   3.703  0.1094  1.9664  0.2874
18041TIP3   OH275537   5.552   4.577   0.152  0.0764  0.3883 -0.2973
18041TIP3    H175538   5.643   4.570   0.123  0.7240 -0.3849  1.7995
18041TIP3    H275539   5.531   4.490   0.185 -1.5403  0.4854 -0.9782
18042TIP3   OH275540   3.660   2.436   2.723  0.1635  0.4416  0.5583
18042TIP3    H175541   3.748   2.423   2.760  0.4039  1.4838  0.4088
18042TIP3    H275542   3.662   2.388   2.640  0.5182  0.2685  0.6621
18043TIP3   OH275543   0.598   4.437  13.618  0.0376 -0.2090 -0.7935
18043TIP3    H175544   0.531   4.505  13.627 -1.0232 -1.3071 -0.1500
18043TIP3    H275545   0.626   4.443  13.526  0.2067  1.2962 -0.6703
18044TIP3   OH275546   0.808   5.197   2.332  0.3341 -0.4315 -0.5596
18044TIP3    H175547   0.776   5.278   2.292  0.3056 -1.0436 -1.7912
18044TIP3    H275548   0.866   5.227   2.402 -2.1664  0.6968  1.1607
18045TIP3   OH275549   6.795   0.729   2.125 -0.1925  0.4126  0.8040
18045TIP3    H175550   6.854   0.656   2.109 -1.3470 -0.3514 -0.1632
18045TIP3    H275551   6.833   0.802   2.076  0.3283  0.1349  0.7912
18046TIP3   OH275552   4.458   5.943   0.771  0.5912 -0.6350 -0.0354
18046TIP3    H175553   4.528   5.882   0.794  0.1900 -0.6654  1.1799
18046TIP3    H275554   4.493   6.030   0.791 -0.0564 -0.7147  1.5803
18047TIP3   OH275555   1.126   6.673   1.291 -0.0587  0.3253 -0.1020
18047TIP3    H175556   1.206   6.687   1.239 -0.4068  1.0116 -0.4669
18047TIP3    H275557   1.122   6.748   1.350 -1.1777  1.0612 -1.0696
18048TIP3   OH275558   1.973   3.535   1.923  0.1366  0.4163  0.1597
18048TIP3    H175559   1.958   3.558   2.014  0.4339  0.0608  0.3013
18048TIP3    H275560   1.960   3.617   1.875  0.2293  0.6605  0.5465
18049TIP3   OH275561   3.866   6.670  14.784 -0.4921  0.0095 -0.5923
18049TIP3    H175562   3.825   6.588  14.757  0.5477 -0.5584 -0.5014
18049TIP3    H275563   3.908   6.704  14.704  1.3792 -0.9524 -0.0837
18050TIP3   OH275564   5.967   0.118   1.290  0.1106 -0.0387  0.0650
18050TIP3    H175565   5.970   0.186   1.357  0.9317 -0.7321  0.7644
18050TIP3    H275566   5.882   0.076   1.302 -0.8775  1.5298 -1.0923
18051TIP3   OH275567   1.915   3.674   4.156  0.0157  0.6938  0.2757
18051TIP3    H175568   2.006   3.681   4.185  0.6358 -1.3742 -0.9705
18051TIP3    H275569   1.921   3.666   4.061 -1.1785 -2.5228  0.3571
18052TIP3   OH275570   2.043   0.480  13.313 -0.1012  0.1745  0.1994
18052TIP3    H175571   2.019   0.390  13.331 -2.6558  0.4014 -1.6654
18052TIP3    H275572   2.064   0.482  13.219 -1.2236  1.7043 -0.0614
18053TIP3   OH275573   0.499   4.743   0.744  0.1122 -0.5183  0.0624
18053TIP3    H175574   0.499   4.655   0.706  0.9256 -0.8289  0.7406
18053TIP3    H275575   0.431   4.790   0.697 -1.0397 -1.8145  0.3691
18054TIP3   OH275576   7.128   0.395   2.074  0.5551  0.7114  0.1783
18054TIP3    H175577   7.189   0.462   2.105  0.2275  1.2022 -0.2090
18054TIP3    H275578   7.085   0.362   2.153  1.2597  0.4260  0.4416
18055TIP3   OH275579   5.028   6.458   4.084 -0.1284 -0.1014  0.1262
18055TIP3    H175580   5.106   6.442   4.138  1.0455 -0.1353 -1.4998
18055TIP3    H275581   5.032   6.389   4.017 -1.0676  0.4494 -0.5100
18056TIP3   OH275582   0.684   2.623   0.820  0.0876  0.1545 -0.2869
18056TIP3    H175583   0.593   2.599   0.835 -0.0991  0.0151 -1.5348
18056TIP3    H275584   0.701   2.599   0.729  1.5713 -0.4321  0.1006
18057TIP3   OH275585   3.472   2.613   6.261  0.2365 -0.1510  0.0696
18057TIP3    H175586   3.403   2.678   6.274 -0.9170 -1.2286 -0.4397
18057TIP3    H275587   3.543   2.661   6.218  0.2676  1.2226  1.5392
18058TIP3   OH275588   5.472   3.226   5.094 -0.5829  0.3382 -0.0346
18058TIP3    H175589   5.424   3.196   5.172 -1.7567 -1.7627 -1.4761
18058TIP3    H275590   5.564   3.218   5.118 -0.8958 -2.0767  0.5580
18059TIP3   OH275591   2.347   0.572   4.325 -0.6418 -0.5530 -0.1925
18059TIP3    H175592   2.357   0.479   4.303  1.2817  0.2431 -3.3614
18059TIP3    H275593   2.294   0.607   4.254 -0.4212  0.9641  0.3607
18060TIP3   OH275594   3.639   5.639   0.266  0.1564 -0.0765  0.3272
18060TIP3    H175595   3.626   5.571   0.332 -1.3703 -0.0140  0.1442
18060TIP3    H275596   3.638   5.721   0.315  1.3494 -0.1437  0.4754
18061TIP3   OH275597   2.186   5.567  14.854 -0.1107  0.0102  0.0627
18061TIP3    H175598   2.163   5.619  14.931  0.6267 -0.6379  0.7486
18061TIP3    H275599   2.194   5.477  14.888 -1.1717 -0.5278 -1.0558
18062TIP3   OH275600   3.205   5.886   3.533  0.0198 -0.5922 -0.0675
18062TIP3    H175601   3.280   5.829   3.518  0.1005 -0.7098  0.7215
18062TIP3    H275602   3.241   5.975   3.529 -0.0004 -0.6058 -0.7225
18063TIP3   OH275603   2.752   5.291  12.422  0.1472  0.8659 -0.0877
18063TIP3    H175604   2.839   5.292  12.463 -0.4240  0.8581  1.1644
18063TIP3    H275605   2.705   5.221  12.467 -0.4046  0.6183 -1.0102
18064TIP3   OH275606   1.075   6.046   4.509  0.2939  0.9239  0.2366
18064TIP3    H175607   1.042   6.003   4.588 -1.6843  0.1043 -0.9636
18064TIP3    H275608   1.164   6.010   4.498  0.0368 -0.0867  1.2738
18065TIP3   OH275609   5.633   4.268   3.980  0.1807 -0.0823  1.0157
18065TIP3    H175610   5.649   4.309   4.065 -0.5051 -1.9959  2.1574
18065TIP3    H275611   5.565   4.322   3.940  2.1168  2.1817  0.6036
18066TIP3   OH275612   3.899   2.916   2.631 -0.2182 -0.1209  0.4370
18066TIP3    H175613   3.964   2.984   2.652 -0.3032  0.4512 -1.0637
18066TIP3    H275614   3.951   2.839   2.609  0.0113  0.4480 -1.1536
18067TIP3   OH275615   6.354   3.681  14.986 -0.2154 -0.0090  0.2159
18067TIP3    H175616   6.443   3.674  14.951  0.3337  1.3926  1.2237
18067TIP3    H275617   6.307   3.734  14.922  0.1512  0.6127  0.4449
18068TIP3   OH275618   5.903   0.000   4.325 -0.1446 -0.1230  0.0978
18068TIP3    H175619   5.886   0.089   4.357 -1.0017 -0.1251 -0.3188
18068TIP3    H275620   5.825  -0.049   4.351 -0.9799 -0.0771 -2.1370
18069TIP3   OH275621   1.795   3.506   5.536  0.4148  0.2608 -0.2367
18069TIP3    H175622   1.865   3.448   5.567  0.6116 -0.4686 -1.9295
18069TIP3    H275623   1.715   3.469   5.572  0.6399 -0.5101 -0.5213
18070TIP3   OH275624   6.449   0.779   4.213  0.0330  0.6942 -0.5823
18070TIP3    H175625   6.418   0.794   4.123  0.0815  0.2702 -0.6707
18070TIP3    H275626   6.439   0.685   4.227  1.1792  0.5551 -0.5785
18071TIP3   OH275627   6.531   1.036   2.293  0.2829 -0.3455 -0.8380
18071TIP3    H175628   6.509   1.088   2.370  1.7498 -1.7967  0.6359
18071TIP3    H275629   6.493   1.084   2.220 -3.2433 -0.1019  0.9418
18072TIP3   OH275630   4.337   2.753   3.130 -0.1885 -0.8143  0.1409
18072TIP3    H175631   4.408   2.710   3.083  0.2949  0.3496 -0.2469
18072TIP3    H275632   4.359   2.846   3.126 -0.8395 -0.5721  1.5236
18073TIP3   OH275633   6.572   1.494   4.159  0.0199  0.1124 -0.1707
18073TIP3    H175634   6.501   1.540   4.115  0.2710 -0.2841 -1.0075
18073TIP3    H275635   6.551   1.401   4.148  0.9120 -0.0250 -0.8664
18074TIP3   OH275636   0.205   1.342   5.248  0.2189 -0.1166 -0.0011
18074TIP3    H175637   0.232   1.393   5.171  1.9896  0.4942  0.9739
18074TIP3    H275638   0.287   1.314   5.288 -0.6445  0.0306  1.9647
18075TIP3   OH275639   4.431   4.236   4.278  0.0026 -0.3884 -0.1442
18075TIP3    H175640   4.454   4.243   4.185  0.0144  1.3651 -0.0387
18075TIP3    H275641   4.410   4.325   4.304 -2.5951 -1.2179  0.8894
18076TIP3   OH275642   1.695   4.394   4.306 -0.1538  0.3499  0.6320
18076TIP3    H175643   1.697   4.418   4.399  0.1466 -0.4249  0.8322
18076TIP3    H275644   1.658   4.471   4.262 -0.0724  0.8133  1.3618
18077TIP3   OH275645   2.072   1.525   2.822  0.5119 -0.6807  1.0794
18077TIP3    H175646   1.985   1.536   2.861  0.9232  0.5270  1.7149
18077TIP3    H275647   2.122   1.477   2.887  0.8954  0.4293  1.6385
18078TIP3   OH275648   4.251   0.234  15.210 -0.8417  0.4250 -0.3974
18078TIP3    H175649   4.342   0.206  15.214 -0.7264  0.6093 -1.4561
18078TIP3    H275650   4.224   0.243  15.302  0.0126 -0.2280 -0.0739
18079TIP3   OH275651   0.697   1.452   5.471 -0.1755 -0.8885 -0.5607
18079TIP3    H175652   0.753   1.504   5.414 -0.8920 -0.2763 -0.7297
18079TIP3    H275653   0.724   1.476   5.559 -0.7711  0.1121 -0.6287
18080TIP3   OH275654   2.389   5.461  12.786  0.4708 -0.0147  0.6973
18080TIP3    H175655   2.328   5.390  12.803 -0.7836  0.6636 -0.6560
18080TIP3    H275656   2.385   5.473  12.691  0.8361  1.6860  0.8634
18081TIP3   OH275657   3.387   1.601   3.963 -0.2841  0.2867  0.9571
18081TIP3    H175658   3.304   1.650   3.961 -0.5741 -0.2434 -0.7209
18081TIP3    H275659   3.436   1.633   3.888  1.0631  0.5729  1.9101
18082TIP3   OH275660   5.647   4.389  15.128 -0.4051  0.2069 -0.7774
18082TIP3    H175661   5.694   4.382  15.045 -0.2770 -1.0448 -0.6237
18082TIP3    H275662   5.577   4.324  15.121  0.2009 -0.6268  0.4550
18083TIP3   OH275663   2.288   6.817   3.205  0.5154 -0.0086 -0.3710
18083TIP3    H175664   2.199   6.823   3.239  0.7927  0.3667  0.3182
18083TIP3    H275665   2.307   6.905   3.173  0.7354 -0.0156 -0.2622
18084TIP3   OH275666   1.532   3.065   3.414 -0.0102  0.6804  0.3617
18084TIP3    H175667   1.507   3.056   3.506  0.5887  0.1996  0.4893
18084TIP3    H275668   1.457   3.031   3.365  0.2930 -0.5927  0.7271
18085TIP3   OH275669   2.609   3.846   1.644  0.4702 -0.2050 -0.0067
18085TIP3    H175670   2.647   3.922   1.687 -0.1813  1.2661 -1.8962
18085TIP3    H275671   2.595   3.874   1.553 -1.3006 -2.0216 -0.3759
18086TIP3   OH275672   3.785   4.419  12.151  0.0348 -0.3642 -0.2967
18086TIP3    H175673   3.767   4.482  12.221  2.3555  0.8627 -0.7088
18086TIP3    H275674   3.715   4.354  12.159 -1.6220  1.4549  1.0810
18087TIP3   OH275675   0.807   3.465   4.385 -0.1674 -0.1543 -0.0503
18087TIP3    H175676   0.716   3.443   4.404 -0.5519  2.2718  1.2858
18087TIP3    H275677   0.806   3.558   4.365  1.7653 -0.4947 -2.1276
18088TIP3   OH275678   2.922   2.115  13.123  0.0867 -0.2141 -0.1584
18088TIP3    H175679   2.924   2.138  13.215  3.8829 -0.0835 -0.1420
18088TIP3    H275680   2.907   2.020  13.122  0.9670 -0.3666  0.6486
18089TIP3   OH275681   6.578   1.374   3.139 -0.3210  0.4846  0.1700
18089TIP3    H175682   6.542   1.311   3.077  0.1276  1.3455 -0.9809
18089TIP3    H275683   6.652   1.414   3.094 -0.2470  1.4326  1.0970
18090TIP3   OH275684   0.916   3.737  10.170  0.1924 -0.8039  0.1741
18090TIP3    H175685   0.848   3.682  10.131 -0.7337  1.0929 -1.0094
18090TIP3    H275686   0.981   3.746  10.101  0.5460 -0.7470  0.5126
18091TIP3   OH275687   1.867   1.253   4.369  0.1463 -0.4747 -0.0236
18091TIP3    H175688   1.919   1.301   4.434  0.0703 -1.7010  0.9809
18091TIP3    H275689   1.906   1.277   4.285 -0.7351  2.4004  0.2778
18092TIP3   OH275690   3.943   2.872   2.285  0.1772 -0.5016 -0.9167
18092TIP3    H175691   3.994   2.809   2.336 -0.6896 -1.3984 -1.1499
18092TIP3    H275692   3.854   2.838   2.284 -0.0437  0.0231 -2.1656
18093TIP3   OH275693   4.043   0.767  14.242 -0.3931 -0.4250  0.1723
18093TIP3    H175694   3.948   0.765  14.228 -0.4792 -1.8041  0.7647
18093TIP3    H275695   4.074   0.839  14.187 -2.0671  1.7750  1.8993
18094TIP3   OH275696   0.701   2.224   3.525  0.0780  0.0738 -0.4173
18094TIP3    H175697   0.625   2.174   3.555  1.0718 -1.7208 -0.7456
18094TIP3    H275698   0.737   2.263   3.605  0.8080 -1.9687  0.3209
18095TIP3   OH275699   5.113   6.489   2.640  0.2280 -0.0427 -0.1465
18095TIP3    H175700   5.025   6.516   2.614  0.3514  0.0507 -0.4703
18095TIP3    H275701   5.135   6.546   2.714 -0.6465 -1.1910  1.0369
18096TIP3   OH275702   4.996   7.041   3.776  0.4115 -0.9472  0.4000
18096TIP3    H175703   4.964   6.989   3.703 -2.8159  1.5867 -0.2073
18096TIP3    H275704   5.039   7.117   3.736 -1.8050  0.7163  0.9453
18097TIP3   OH275705   6.077   1.942   0.003  0.0296 -0.0865 -0.0371
18097TIP3    H175706   6.028   1.870  -0.037  1.1665 -1.0800  0.2863
18097TIP3    H275707   6.166   1.908   0.013  1.1223  2.0589 -1.6691
18098TIP3   OH275708   0.480   2.795   2.994 -0.3036  0.0802 -0.5496
18098TIP3    H175709   0.445   2.846   3.067  0.2090  2.7485 -2.0118
18098TIP3    H275710   0.437   2.832   2.916  1.1048 -0.8206 -1.8116
18099TIP3   OH275711   0.702   1.730   5.384  0.2529 -0.3180  0.0046
18099TIP3    H175712   0.708   1.724   5.479  2.2500 -0.2395 -0.0656
18099TIP3    H275713   0.776   1.785   5.358  0.7640 -1.6914 -1.6935
18100TIP3   OH275714   4.062   3.652   3.771  0.1840 -0.0874  0.1907
18100TIP3    H175715   4.031   3.722   3.829  0.5476 -0.7926  1.2643
18100TIP3    H275716   4.021   3.573   3.806 -0.8623 -0.3320 -1.4874
18101TIP3   OH275717   0.391   6.683  13.380 -0.6296  0.1301 -0.3542
18101TIP3    H175718   0.337   6.613  13.418 -0.9373  1.6765  2.3190
18101TIP3    H275719   0.399   6.748  13.450  3.5261  0.6824 -1.0690
18102TIP3   OH275720   2.264   2.560  12.297 -0.0984 -0.8331  0.2452
18102TIP3    H175721   2.227   2.556  12.385  0.8464  1.3473  0.8114
18102TIP3    H275722   2.322   2.485  12.292  1.4494  0.1391  2.3125
18103TIP3   OH275723   5.396   2.384   2.889 -0.5738 -0.0496  0.2393
18103TIP3    H175724   5.468   2.322   2.878 -0.2289 -0.0005  1.9120
18103TIP3    H275725   5.437   2.470   2.877 -0.3463 -0.0237  1.1402
18104TIP3   OH275726   3.070   3.823   4.760  0.4154  0.1179  0.3726
18104TIP3    H175727   3.094   3.731   4.774  2.2826  0.6674  1.0542
18104TIP3    H275728   3.153   3.867   4.742 -0.4381  1.7057  0.1257
18105TIP3   OH275729   3.097   6.026  13.367 -0.0470 -0.2574  0.3051
18105TIP3    H175730   3.154   5.957  13.334 -0.4138 -0.9340  1.0498
18105TIP3    H275731   3.070   6.075  13.289  2.1794  0.6085  0.0120
18106TIP3   OH275732   5.079   6.913  13.255  0.1090 -0.7371 -1.1561
18106TIP3    H175733   5.105   6.823  13.236 -1.5891 -1.6289  0.4518
18106TIP3    H275734   5.150   6.948  13.308 -0.5829 -2.2100  0.8584
18107TIP3   OH275735   0.230   1.304   5.739  0.0863  0.8294  0.3157
18107TIP3    H175736   0.274   1.337   5.817  0.8199 -0.3154  0.4170
18107TIP3    H275737   0.167   1.372   5.716  0.4196  1.5424  1.4307
18108TIP3   OH275738   2.521   2.042   2.184  0.2739 -0.1658  0.1142
18108TIP3    H175739   2.493   2.104   2.250 -0.4973  0.4404 -0.7490
18108TIP3    H275740   2.447   2.037   2.123  0.5501 -1.4843 -0.1541
18109TIP3   OH275741   0.776   5.363   1.004 -0.8230  0.1819  0.2622
18109TIP3    H175742   0.826   5.318   0.936 -0.6645  0.2343  0.3443
18109TIP3    H275743   0.689   5.376   0.965 -0.9169 -0.3202  0.2854
18110TIP3   OH275744   3.276   3.263  15.202 -0.4051  0.2091 -0.5451
18110TIP3    H175745   3.282   3.268  15.298 -2.7251 -0.5150 -0.2883
18110TIP3    H275746   3.218   3.335  15.178  1.9469  1.8203 -1.7230
18111TIP3   OH275747   0.446   2.544   3.008 -0.7619  0.3004  0.3022
18111TIP3    H175748   0.527   2.503   2.976 -0.8172 -0.5284  1.1816
18111TIP3    H275749   0.463   2.638   3.000 -0.1125  0.1339 -0.4880
18112TIP3   OH275750   1.366   5.443   4.285  0.4797  0.3099  0.1025
18112TIP3    H175751   1.290   5.501   4.292  0.9742  1.0968 -0.8073
18112TIP3    H275752   1.381   5.412   4.374 -0.9483  0.0772  0.2935
18113TIP3   OH275753   5.436   3.672   4.393  0.4427 -0.1934  0.2087
18113TIP3    H175754   5.457   3.626   4.474 -0.1210 -0.8319 -0.0042
18113TIP3    H275755   5.509   3.653   4.334 -0.1421 -1.4343 -0.1313
18114TIP3   OH275756   4.246   4.237   5.612  0.2369  0.3505  0.1314
18114TIP3    H175757   4.218   4.199   5.695 -1.2105  0.4802 -0.2803
18114TIP3    H275758   4.282   4.164   5.563 -1.1291 -0.2233 -0.0559
18115TIP3   OH275759   3.293   1.285   2.751 -0.1306  0.2657  0.1428
18115TIP3    H175760   3.374   1.253   2.713  0.3633  0.3088  1.1184
18115TIP3    H275761   3.283   1.374   2.716  0.0652  0.1360 -0.2445
18116TIP3   OH275762   2.667   4.083   3.531 -0.1005 -0.0284  0.5011
18116TIP3    H175763   2.660   4.079   3.627 -1.7185 -1.2265  0.3723
18116TIP3    H275764   2.578   4.066   3.500  0.6504 -0.9876 -1.2490
18117TIP3   OH275765   0.884   1.262   2.488 -0.4508  0.2422 -0.0053
18117TIP3    H175766   0.893   1.296   2.577 -0.4293 -1.3220  0.6232
18117TIP3    H275767   0.795   1.288   2.462 -1.0863 -0.6763  1.1266
18118TIP3   OH275768   4.364   5.421   1.767  0.4172 -0.3810  1.0442
18118TIP3    H175769   4.402   5.339   1.736  1.2607  0.2989  0.1692
18118TIP3    H275770   4.274   5.400   1.790  0.0692 -1.2047 -0.8644
18119TIP3   OH275771   4.853   6.306   5.450 -0.1543  0.2380  0.6414
18119TIP3    H175772   4.774   6.280   5.498  1.4595 -2.3057  2.0939
18119TIP3    H275773   4.859   6.401   5.466 -2.2866  0.3174  1.3864
18120TIP3   OH275774   1.409   5.337   4.529 -0.4113  0.6598  1.0730
18120TIP3    H175775   1.461   5.315   4.606 -0.5354 -0.4826  0.8386
18120TIP3    H275776   1.343   5.269   4.523 -0.1703  0.5082 -0.2554
18121TIP3   OH275777   0.346   1.735   5.093 -0.4559  0.4626 -0.1407
18121TIP3    H175778   0.376   1.701   5.177 -0.2976 -0.5427 -0.5953
18121TIP3    H275779   0.305   1.819   5.115 -0.3793  0.2343  0.9329
18122TIP3   OH275780   4.941   6.135   0.289 -0.7202  0.2457  0.1631
18122TIP3    H175781   4.871   6.186   0.249  0.6748  1.8484 -0.3165
18122TIP3    H275782   4.966   6.071   0.222  0.0358  1.4092 -0.7121
18123TIP3   OH275783   3.527   3.850   3.612 -0.3057  0.0351  0.0585
18123TIP3    H175784   3.514   3.809   3.698  1.0105 -0.9831 -0.1874
18123TIP3    H275785   3.622   3.854   3.602 -0.4272  1.4867 -0.7508
18124TIP3   OH275786   2.064   0.411   4.162  0.3736 -0.2882  0.6709
18124TIP3    H175787   2.072   0.320   4.134 -0.6385  0.5354 -2.8279
18124TIP3    H275788   1.980   0.416   4.207 -0.1839 -0.8964 -0.2704
18125TIP3   OH275789   3.477   0.718   5.309 -0.6597 -0.4000 -0.4658
18125TIP3    H175790   3.566   0.686   5.295 -0.9466 -0.4978 -2.4450
18125TIP3    H275791   3.484   0.776   5.385  0.6982 -1.8180  0.5681
18126TIP3   OH275792   1.316   1.986   3.092 -0.1581  0.5335 -0.8598
18126TIP3    H175793   1.352   2.049   3.155  0.0937  0.7042 -1.1742
18126TIP3    H275794   1.233   2.025   3.064 -0.5810  0.1590 -0.1659
18127TIP3   OH275795   1.723   1.023   3.054  0.1646 -0.5977 -0.0361
18127TIP3    H175796   1.697   0.960   2.987 -2.3309  0.8378 -0.5353
18127TIP3    H275797   1.647   1.029   3.112  1.3456  0.0459  1.5208
18128TIP3   OH275798   0.685   7.014   4.428 -0.1622 -0.4629  0.0580
18128TIP3    H175799   0.766   6.965   4.445 -1.0755 -1.9237  0.4478
18128TIP3    H275800   0.655   6.981   4.343 -0.7186 -0.4759  0.2575
18129TIP3   OH275801   0.092   0.727   2.691  0.0654 -0.1556 -0.1769
18129TIP3    H175802   0.060   0.638   2.705  0.3490 -0.3766 -0.9076
18129TIP3    H275803   0.014   0.782   2.698  0.0461 -0.3372  1.3389
18130TIP3   OH275804   2.348   0.611   3.611  0.2779  0.1379  0.2482
18130TIP3    H175805   2.401   0.608   3.691  1.4670  0.4668 -0.4993
18130TIP3    H275806   2.346   0.521   3.579 -0.2129  0.0033  0.6474
18131TIP3   OH275807   3.152   7.098  12.871  0.6571 -0.7295  0.2965
18131TIP3    H175808   3.111   7.150  12.940 -0.9684  1.4184 -2.1235
18131TIP3    H275809   3.116   7.010  12.882 -2.8989  0.5028 -0.2193
18132TIP3   OH275810   0.183   6.744   5.672 -0.7338 -0.1409 -0.6689
18132TIP3    H175811   0.094   6.754   5.705 -0.6846 -3.0846  0.6234
18132TIP3    H275812   0.236   6.797   5.732 -1.3852 -0.0684 -0.1391
18133TIP3   OH275813   6.165   2.416   3.824  0.1459 -0.5604  0.4907
18133TIP3    H175814   6.172   2.367   3.742  1.9841  1.0753 -0.3975
18133TIP3    H275815   6.244   2.469   3.828 -1.0764  1.3138  2.0914
18134TIP3   OH275816   5.519   3.045   0.276  0.3280 -0.4711 -0.4424
18134TIP3    H175817   5.441   3.080   0.318  1.1355 -1.8451  2.4309
18134TIP3    H275818   5.575   3.121   0.260 -1.2138  0.4280 -1.8261
18135TIP3   OH275819   4.298   4.404   9.977  0.4259 -0.0872  0.8600
18135TIP3    H175820   4.314   4.492  10.011 -0.1590  0.7246 -0.8426
18135TIP3    H275821   4.349   4.400   9.896 -1.3037 -0.4819 -0.2691
18136TIP3   OH275822   0.197   6.484   2.594 -0.1307  0.4902 -0.1975
18136TIP3    H175823   0.238   6.569   2.613 -0.3700  1.0054 -1.8298
18136TIP3    H275824   0.269   6.429   2.564 -0.0845  0.3097  0.2358
18137TIP3   OH275825   3.251   6.681  12.970  0.4323  0.0638 -0.5404
18137TIP3    H175826   3.308   6.754  12.996 -0.8229  1.1946 -0.8787
18137TIP3    H275827   3.312   6.611  12.946  1.7241  1.5902 -1.9818
18138TIP3   OH275828   6.594   7.027   4.354  0.0762 -0.7109  0.0704
18138TIP3    H175829   6.577   7.120   4.338 -0.4267  0.0488  3.9261
18138TIP3    H275830   6.686   7.023   4.379  0.9886 -1.8787 -3.0616
18139TIP3   OH275831   4.212   3.926   5.014  0.5649  0.1584  0.1464
18139TIP3    H175832   4.253   3.841   5.004  0.7167  0.3076 -0.5492
18139TIP3    H275833   4.177   3.926   5.103  0.2130 -0.7761  0.0145
18140TIP3   OH275834   1.879   6.065   2.427 -0.2666  0.0990  0.2333
18140TIP3    H175835   1.810   6.057   2.361 -0.4275 -0.9345  0.4950
18140TIP3    H275836   1.868   6.152   2.464 -2.1836 -0.4351  1.0560
18141TIP3   OH275837   3.879   3.080  12.958 -0.1711  0.3226 -0.2377
18141TIP3    H175838   3.962   3.062  12.914 -0.7534 -0.1970 -1.1542
18141TIP3    H275839   3.825   3.003  12.942 -0.2984 -0.0665  1.7422
18142TIP3   OH275840   1.932   4.626   4.273  0.0473  0.7064 -0.4033
18142TIP3    H175841   1.892   4.554   4.322  0.0328  0.5210 -0.6843
18142TIP3    H275842   1.903   4.705   4.318 -0.8932  0.5915 -0.7963
18143TIP3   OH275843   4.685   0.234  14.161 -0.6272 -0.2735 -0.4671
18143TIP3    H175844   4.607   0.258  14.110 -1.0361 -1.6007 -0.5080
18143TIP3    H275845   4.708   0.314  14.208 -1.4029  0.4304 -1.2344
18144TIP3   OH275846   4.962   5.687   4.181  0.4287 -0.4427 -0.2054
18144TIP3    H175847   5.009   5.693   4.264 -1.4599  1.9054  0.8139
18144TIP3    H275848   4.917   5.602   4.185  1.6416 -1.0864  0.4008
18145TIP3   OH275849   5.754   5.948   2.264 -0.0466  0.3802  0.6920
18145TIP3    H175850   5.755   5.923   2.356  1.4095  0.4999  0.7301
18145TIP3    H275851   5.683   5.895   2.226 -0.8823  0.5660  1.9171
18146TIP3   OH275852   6.858   0.894  15.288 -0.4522  0.3338  0.8747
18146TIP3    H175853   6.826   0.964  15.232  0.2340 -0.4469 -0.5673
18146TIP3    H275854   6.789   0.828  15.286  1.1075 -1.4555 -2.4297
18147TIP3   OH275855   4.285   3.028   2.626  0.3110  0.1968 -0.2473
18147TIP3    H175856   4.340   2.982   2.689  0.1147  0.6561  0.2689
18147TIP3    H275857   4.254   2.960   2.566 -0.1773 -0.3825  0.6461
18148TIP3   OH275858   3.544   5.166   5.327 -0.9343 -0.3967 -0.9078
18148TIP3    H175859   3.606   5.237   5.315  1.0091 -1.4862  1.7254
18148TIP3    H275860   3.581   5.092   5.278  0.7931 -1.4579  1.7639
18149TIP3   OH275861   2.625   4.104   1.727 -0.6907  0.2122  0.4013
18149TIP3    H175862   2.543   4.135   1.767 -1.1713 -0.4147 -0.0794
18149TIP3    H275863   2.618   4.130   1.635  0.6264  2.0869  0.7610
18150TIP3   OH275864   4.316   3.695   3.828  0.1088 -0.4899 -0.2979
18150TIP3    H175865   4.326   3.604   3.853 -1.8688 -0.7377 -0.2106
18150TIP3    H275866   4.223   3.703   3.804 -0.3637  1.9850  1.8618
18151TIP3   OH275867   4.659   0.326   2.956 -0.4472 -0.1835  0.0174
18151TIP3    H175868   4.627   0.286   3.037 -2.3057 -0.1143 -0.6366
18151TIP3    H275869   4.593   0.305   2.890  0.4028  0.8056 -1.2190
18152TIP3   OH275870   2.700   3.033   2.918 -0.3930  0.4816 -0.1949
18152TIP3    H175871   2.716   2.966   2.851 -0.2425 -0.6565  0.9520
18152TIP3    H275872   2.660   3.105   2.869  1.0520  0.2946 -1.7810
18153TIP3   OH275873   2.228   0.778  15.317 -0.2338  0.3763  0.2753
18153TIP3    H175874   2.299   0.795  15.255 -0.7193 -1.0374 -0.7318
18153TIP3    H275875   2.270   0.779  15.403  1.1509 -0.9719 -0.3296
18154TIP3   OH275876   1.881   0.676   3.649 -0.1082  0.1347  0.0387
18154TIP3    H175877   1.960   0.728   3.658  0.7836 -1.1490 -0.1009
18154TIP3    H275878   1.901   0.594   3.695 -1.8422  0.2914  1.1860
18155TIP3   OH275879   4.867   2.805   2.225  0.2148  0.0199 -0.8220
18155TIP3    H175880   4.793   2.749   2.250 -0.7716  1.4148 -0.4493
18155TIP3    H275881   4.928   2.746   2.181 -0.8640 -1.2919 -0.6482
18156TIP3   OH275882   2.534   3.018   4.152  0.3049  0.6107 -0.3231
18156TIP3    H175883   2.548   3.052   4.064 -0.7667  0.0395 -0.7222
18156TIP3    H275884   2.444   3.042   4.173  0.9735  2.0156  1.1966
18157TIP3   OH275885   0.365   5.640   4.597 -0.4344 -0.2754  0.2434
18157TIP3    H175886   0.297   5.600   4.544 -0.3002 -0.5338  0.2679
18157TIP3    H275887   0.445   5.594   4.573 -0.3912 -0.4633  0.7455
18158TIP3   OH275888   7.089   5.461  12.168 -0.0126 -0.4001 -0.5942
18158TIP3    H175889   7.117   5.541  12.212 -3.4749  0.2768  0.6609
18158TIP3    H275890   7.108   5.476  12.076  0.2743  1.4694 -0.2613
18159TIP3   OH275891   3.003   1.336   2.895  0.1801  0.6492 -0.3706
18159TIP3    H175892   3.025   1.276   2.823 -2.0065  0.9141 -1.3737
18159TIP3    H275893   2.915   1.309   2.921 -0.0244  2.1341  0.5563
18160TIP3   OH275894   3.808   5.842   1.219  0.7607  0.4859  0.0630
18160TIP3    H175895   3.791   5.795   1.300  1.0661  0.8331  0.3342
18160TIP3    H275896   3.848   5.777   1.161  0.6789  0.2754  0.2420
18161TIP3   OH275897   6.894   6.640   0.843 -0.1675  0.0687  0.6843
18161TIP3    H175898   6.859   6.670   0.759 -2.3844 -0.7536  1.2467
18161TIP3    H275899   6.929   6.553   0.824 -0.1371  0.1220  0.4951
18162TIP3   OH275900   2.476   1.125   3.088 -0.3167  0.2325 -0.2871
18162TIP3    H175901   2.460   1.206   3.040  0.3470  0.9402  0.6528
18162TIP3    H275902   2.470   1.149   3.180  0.4474 -0.6543  0.0234
18163TIP3   OH275903   2.382   3.714   2.898 -0.0542 -0.2762 -0.3842
18163TIP3    H175904   2.296   3.720   2.939  0.5790  4.3494  0.8234
18163TIP3    H275905   2.443   3.697   2.970  0.5135  2.5282 -0.0863
18164TIP3   OH275906   5.949   3.949   5.221  0.0991  0.0614 -0.7598
18164TIP3    H175907   5.900   4.005   5.161 -0.6921 -0.9185 -1.0532
18164TIP3    H275908   5.933   3.987   5.307 -1.9588 -0.7220 -0.7321
18165TIP3   OH275909   2.922   5.885   5.698 -0.5205  0.0200 -0.2321
18165TIP3    H175910   2.962   5.889   5.612  1.4217 -1.1304  0.5436
18165TIP3    H275911   2.924   5.976   5.730  1.6964  0.0116 -0.1830
18166TIP3   OH275912   2.207   5.261   4.297  0.2305 -0.0691  0.1759
18166TIP3    H175913   2.258   5.233   4.221  0.9265  0.2186  0.5250
18166TIP3    H275914   2.131   5.306   4.261 -0.0410 -0.9429 -0.3636
18167TIP3   OH275915   1.473   6.196   5.807 -0.6424  0.0488  0.1702
18167TIP3    H175916   1.438   6.255   5.874 -0.3595  0.4240 -0.0067
18167TIP3    H275917   1.532   6.251   5.755 -0.6502 -0.3056 -0.2198
18168TIP3   OH275918   6.083   4.925   4.372  0.9379 -0.2261 -0.6772
18168TIP3    H175919   6.083   4.833   4.348 -0.0997 -0.0352 -1.4688
18168TIP3    H275920   6.131   4.968   4.301 -0.2100  0.0628 -1.3000
18169TIP3   OH275921   4.356   6.893   4.391 -0.4264  0.4255  0.2041
18169TIP3    H175922   4.291   6.824   4.374  0.2156 -0.0433 -0.4259
18169TIP3    H275923   4.307   6.975   4.381 -0.5856  0.1367 -1.9420
18170TIP3   OH275924   6.052   5.666   2.249 -0.3354  0.0065 -0.5795
18170TIP3    H175925   6.092   5.752   2.242 -0.3707  0.2340  1.4374
18170TIP3    H275926   5.980   5.668   2.186  1.0688  0.5723 -2.2480
18171TIP3   OH275927   6.064   3.672   4.733 -0.2248 -0.4169 -0.3079
18171TIP3    H175928   6.069   3.738   4.663 -0.1314 -0.5621 -0.4396
18171TIP3    H275929   5.998   3.610   4.703  0.8527 -1.2782 -0.9616
18172TIP3   OH275930   2.284   3.915   3.223 -0.0692 -0.1976 -0.2614
18172TIP3    H175931   2.345   3.972   3.177  0.2286  1.2858  1.8258
18172TIP3    H275932   2.212   3.902   3.162  1.3714 -0.2792 -1.9972
18173TIP3   OH275933   2.336   1.790   4.640 -0.1747 -0.1951  0.2993
18173TIP3    H175934   2.400   1.719   4.634  0.4617  0.3714  0.2805
18173TIP3    H275935   2.342   1.820   4.731 -0.2818 -0.0173  0.2476
18174TIP3   OH275936   1.428   6.229   4.407  0.1942 -0.1754  0.1604
18174TIP3    H175937   1.375   6.163   4.363 -0.5370 -0.1410  0.9623
18174TIP3    H275938   1.478   6.180   4.473 -0.9996  0.1470  1.3554
18175TIP3   OH275939   5.984   2.171  13.724  0.2621  0.7380 -0.9210
18175TIP3    H175940   5.942   2.098  13.680 -0.5651  1.1006 -0.7520
18175TIP3    H275941   5.921   2.199  13.790  1.4103  0.3117  0.4002
18176TIP3   OH275942   4.184   4.368   4.708 -0.4443  0.2792 -0.9121
18176TIP3    H175943   4.182   4.279   4.743 -0.3104  0.3357 -0.7581
18176TIP3    H275944   4.275   4.381   4.682  0.3172  1.4658  1.9708
18177TIP3   OH275945   2.536   0.809   3.764 -0.6650 -0.2848  0.4482
18177TIP3    H175946   2.584   0.793   3.683  1.0050  0.1967  1.2974
18177TIP3    H275947   2.470   0.875   3.740  0.2853  0.4004 -0.3690
18178TIP3   OH275948   1.688   2.314   4.572 -0.0178 -0.4142  0.5855
18178TIP3    H175949   1.694   2.359   4.657 -1.2660 -1.3103  1.1793
18178TIP3    H275950   1.633   2.371   4.519  1.6724  0.7056 -0.0372
18179TIP3   OH275951   6.161   6.383   3.792 -0.0856 -0.0836  0.7637
18179TIP3    H175952   6.123   6.438   3.861 -0.8885 -1.8581  1.8009
18179TIP3    H275953   6.089   6.326   3.765  1.0066 -1.3932  0.5116
18180TIP3   OH275954   5.212   5.046   2.792  0.3104  0.0888 -0.5972
18180TIP3    H175955   5.216   5.037   2.697  1.9242  0.4776 -0.6002
18180TIP3    H275956   5.133   5.099   2.808  1.3931  2.2666 -1.9491
18181TIP3   OH275957   6.488   6.145   3.994 -0.2365  0.1646 -0.0380
18181TIP3    H175958   6.486   6.238   3.974  1.2571  0.2916  0.3098
18181TIP3    H275959   6.572   6.131   4.037  0.2546 -1.6273 -1.4498
18182TIP3   OH275960   5.583   0.934   5.215  0.1183 -0.2345  0.4041
18182TIP3    H175961   5.554   0.961   5.302 -1.7650 -1.8309  0.3442
18182TIP3    H275962   5.573   0.839   5.215  0.0656 -0.2659 -1.5714
18183TIP3   OH275963   5.903   5.977   1.659  0.5244  0.1613  0.1737
18183TIP3    H175964   5.881   5.990   1.567 -1.3070  0.7287  0.6460
18183TIP3    H275965   5.969   5.908   1.659  1.0175  0.5887 -1.5903
18184TIP3   OH275966   3.917   3.981   0.425 -0.1424 -0.2345  0.1089
18184TIP3    H175967   3.966   3.902   0.405 -0.1331 -0.2895  0.3452
18184TIP3    H275968   3.830   3.949   0.451 -0.4700 -0.1166 -0.7869
18185TIP3   OH275969   1.119   6.869   3.675 -0.2286  0.2209 -0.1109
18185TIP3    H175970   1.205   6.888   3.713  0.6544 -0.5116 -1.6655
18185TIP3    H275971   1.107   6.775   3.690 -0.0587  0.0118 -1.2495
18186TIP3   OH275972   6.938   3.720   1.866 -0.4225  0.2446  0.2496
18186TIP3    H175973   6.976   3.659   1.803 -1.0911  1.8346 -1.8217
18186TIP3    H275974   6.978   3.697   1.950 -0.0223 -2.4282 -0.5844
18187TIP3   OH275975   1.701   3.700   2.510 -0.1184  0.1850 -0.1031
18187TIP3    H175976   1.752   3.624   2.536 -0.0235 -0.1856 -1.3369
18187TIP3    H275977   1.695   3.753   2.590  1.8120  0.0392  0.1827
18188TIP3   OH275978   4.647   2.618  14.345  0.1270 -0.5638 -0.2619
18188TIP3    H175979   4.573   2.561  14.327  0.9580 -1.3320 -1.3735
18188TIP3    H275980   4.724   2.562  14.333  0.8907  0.0651  1.3837
18189TIP3   OH275981   3.676   4.003   4.024 -0.1799 -0.4469 -0.1044
18189TIP3    H175982   3.735   4.078   4.019 -2.4810  1.6933  1.9709
18189TIP3    H275983   3.695   3.964   4.110 -2.2386  0.8242  1.0097
18190TIP3   OH275984   0.350   1.439  13.262 -0.0920 -0.4324  0.0360
18190TIP3    H175985   0.347   1.485  13.345  1.6541  0.3981 -0.3279
18190TIP3    H275986   0.322   1.503  13.197  2.0151  0.1030 -0.4283
18191TIP3   OH275987   0.192   5.111   1.538 -0.3599 -1.0480  0.2125
18191TIP3    H175988   0.114   5.117   1.593 -1.6692 -1.2283 -1.5309
18191TIP3    H275989   0.239   5.193   1.554 -1.1482 -0.7219  0.9266
18192TIP3   OH275990   0.230   6.668   0.940 -0.9489 -0.5202  0.0543
18192TIP3    H175991   0.206   6.643   0.851  0.6617  0.8058 -0.7992
18192TIP3    H275992   0.270   6.589   0.977 -0.5845 -0.7471 -0.7968
18193TIP3   OH275993   5.274   3.591   4.164  0.0787 -0.0852  0.6063
18193TIP3    H175994   5.258   3.684   4.146  2.0710  0.0487 -0.8087
18193TIP3    H275995   5.317   3.590   4.250  1.2133  0.4824  0.0764
18194TIP3   OH275996   5.990   2.218   3.782  0.1732 -0.5974 -0.1316
18194TIP3    H175997   6.049   2.210   3.707 -0.3396 -0.7892 -0.5200
18194TIP3    H275998   6.007   2.306   3.816 -1.1040  0.3650 -1.7943
18195TIP3   OH275999   3.484   3.509  13.603  0.0895  0.0862  0.1438
18195TIP3    H176000   3.524   3.596  13.589 -0.3734 -0.0809 -2.7694
18195TIP3    H276001   3.557   3.448  13.595  0.0101  0.0678 -0.5066
18196TIP3   OH276002   6.974   3.623   4.801  0.3535 -0.7855  0.3103
18196TIP3    H176003   6.884   3.621   4.771 -0.2554 -1.4710  2.0920
18196TIP3    H276004   6.970   3.602   4.894  2.4288 -1.7364  0.2530
18197TIP3   OH276005   1.455   6.850  13.742 -0.1886  0.5571  0.6832
18197TIP3    H176006   1.508   6.868  13.819  0.1342  0.4494  0.4899
18197TIP3    H276007   1.480   6.917  13.678  0.5764 -0.1797  0.1803
18198TIP3   OH276008   5.232   1.743   3.101  0.2154 -0.5171  0.1646
18198TIP3    H176009   5.264   1.810   3.162  0.6951 -1.2394  0.7136
18198TIP3    H276010   5.279   1.760   3.020 -0.1036  0.1736  0.1114
18199TIP3   OH276011   5.608   0.471   5.784  0.4510 -0.5147  0.1388
18199TIP3    H176012   5.579   0.535   5.850  0.3721  2.1009 -2.2222
18199TIP3    H276013   5.536   0.409   5.778 -0.0704 -0.1123  1.6131
18200TIP3   OH276014   3.882   1.636   4.085 -0.4018 -0.0919  0.1308
18200TIP3    H176015   3.939   1.559   4.084  0.7017  0.6799  0.7390
18200TIP3    H276016   3.904   1.680   4.167 -1.2826  0.6700 -0.0316
18201TIP3   OH276017   5.495   2.620  14.484 -0.0872  0.3258 -0.3333
18201TIP3    H176018   5.526   2.562  14.415 -1.1517  0.6296 -1.0952
18201TIP3    H276019   5.419   2.664  14.446  0.0934  1.4805  0.5741
18202TIP3   OH276020   3.768   5.093  12.436  0.3418 -0.3963 -0.3541
18202TIP3    H176021   3.796   5.015  12.388 -0.8827 -0.4991 -0.9187
18202TIP3    H276022   3.781   5.071  12.528  0.0643 -1.2394 -0.5140
18203TIP3   OH276023   4.963   0.707   3.366 -0.4908  0.3371  0.6130
18203TIP3    H176024   4.875   0.677   3.342 -0.2008 -1.1322  1.2777
18203TIP3    H276025   4.991   0.646   3.434  0.8827  1.0464  0.7117
18204TIP3   OH276026   4.614   3.506   3.819 -0.1761 -0.0099  0.1803
18204TIP3    H176027   4.621   3.521   3.913  1.8415 -0.6775  0.1900
18204TIP3    H276028   4.688   3.552   3.782 -0.2555 -0.7639 -0.9537
18205TIP3   OH276029   2.143   4.260  14.144 -0.5395 -0.1802  0.6461
18205TIP3    H176030   2.183   4.291  14.225 -2.8483  1.9930  1.1045
18205TIP3    H276031   2.087   4.332  14.116 -0.8120 -1.3596 -2.2301
18206TIP3   OH276032   3.535   6.638  13.549  0.4829 -0.0524 -0.1878
18206TIP3    H176033   3.536   6.722  13.502 -2.5713 -0.7954 -1.8294
18206TIP3    H276034   3.614   6.593  13.517 -0.0870  0.5215 -2.6847
18207TIP3   OH276035   1.511   6.876   4.904  0.3362 -0.2378  0.2707
18207TIP3    H176036   1.471   6.961   4.922 -1.4249 -1.3457  1.8949
18207TIP3    H276037   1.605   6.895   4.901  0.0393  1.6778  1.2596
18208TIP3   OH276038   1.870   0.657   2.604  0.3997  0.4747  0.3141
18208TIP3    H176039   1.870   0.748   2.574  2.0843  0.3675 -0.1209
18208TIP3    H276040   1.837   0.608   2.529  0.8443  0.5907  0.0407
18209TIP3   OH276041   3.523   1.712   4.346 -0.6620 -0.1738  0.1026
18209TIP3    H176042   3.552   1.727   4.436 -0.6795 -0.8798  0.2306
18209TIP3    H276043   3.561   1.785   4.297 -1.4970  0.7944  0.8490
18210TIP3   OH276044   6.425   1.768   3.697  0.4313  0.0416  0.0530
18210TIP3    H176045   6.350   1.821   3.723  0.6808  0.7002 -0.5413
18210TIP3    H276046   6.500   1.827   3.704  0.4977  0.3109 -2.2625
18211TIP3   OH276047   3.461   0.177   6.036  0.3702  0.1445  0.7259
18211TIP3    H176048   3.441   0.258   6.084  0.6907  0.5094  0.2501
18211TIP3    H276049   3.554   0.163   6.049  0.0397 -1.0110  2.0976
18212TIP3   OH276050   3.307   5.196   0.784  0.8497  0.1191  0.7631
18212TIP3    H176051   3.315   5.264   0.851 -0.5739  0.9846  0.1073
18212TIP3    H276052   3.214   5.172   0.785  1.4614 -2.6020  1.6850
18213TIP3   OH276053   3.409   3.515   1.375  0.1561 -0.1344 -0.4783
18213TIP3    H176054   3.447   3.595   1.411  1.3359 -0.4446 -0.9722
18213TIP3    H276055   3.321   3.540   1.349  0.2779  0.8309 -0.0150
18214TIP3   OH276056   3.939   3.363   4.397 -0.2224 -0.4512 -0.4390
18214TIP3    H176057   3.913   3.309   4.472  0.1289  0.0880  0.0733
18214TIP3    H276058   4.033   3.375   4.406  0.2110 -2.0753 -2.0902
18215TIP3   OH276059   6.705   4.529   1.448 -0.1438  0.0104  0.1384
18215TIP3    H176060   6.649   4.453   1.428 -0.2842 -0.2985  1.5961
18215TIP3    H276061   6.748   4.506   1.530  0.0202  1.4136  0.4692
18216TIP3   OH276062   3.611   5.084   5.603  0.0197 -0.5046  0.1118
18216TIP3    H176063   3.595   5.156   5.542  3.5604  0.0339 -0.3910
18216TIP3    H276064   3.606   5.125   5.690  0.5227  0.0034 -0.0971
18217TIP3   OH276065   6.977   6.881  12.194 -0.2856  0.3780  1.2931
18217TIP3    H176066   7.071   6.874  12.213  0.3063  1.4023 -0.8814
18217TIP3    H276067   6.951   6.964  12.234  0.5355  1.6653 -0.7005
18218TIP3   OH276068   2.262   6.765   4.167 -0.2676 -0.3599 -0.1355
18218TIP3    H176069   2.350   6.802   4.155 -0.4466 -0.6005 -2.7928
18218TIP3    H276070   2.274   6.671   4.152 -0.3965 -1.0535  3.2908
18219TIP3   OH276071   4.302   7.110   2.595 -0.0447  0.2739 -0.1949
18219TIP3    H176072   4.257   7.117   2.511 -0.2959 -0.2493 -0.1063
18219TIP3    H276073   4.264   7.033   2.636  0.7117  0.0119  0.0214
18220TIP3   OH276074   6.097   6.791  14.609 -0.5866  0.0908 -0.2327
18220TIP3    H176075   6.066   6.755  14.692 -0.3845 -0.3771 -0.3544
18220TIP3    H276076   6.133   6.715  14.562 -0.0584  0.4771 -0.4529
18221TIP3   OH276077   0.482   0.641   4.164  0.1212 -0.7674 -0.1182
18221TIP3    H176078   0.523   0.612   4.083 -1.7846 -0.0373 -1.4377
18221TIP3    H276079   0.507   0.734   4.172  0.3857 -0.8627  0.1997
18222TIP3   OH276080   1.056   5.124   4.324  0.2751  0.5531 -0.1427
18222TIP3    H176081   1.071   5.033   4.350  1.6901  0.8990  0.3776
18222TIP3    H276082   1.112   5.174   4.383  0.6266  1.6542 -1.3839
18223TIP3   OH276083   1.368   0.231   4.249  0.4839  0.8441  0.1596
18223TIP3    H176084   1.303   0.297   4.224 -0.6160 -0.1143  0.4149
18223TIP3    H276085   1.325   0.181   4.319  1.6408  0.4054  0.5788
18224TIP3   OH276086   0.139   2.260   4.256 -0.2246  0.3253  0.1581
18224TIP3    H176087   0.155   2.285   4.165 -1.5268 -0.3532 -0.2712
18224TIP3    H276088   0.113   2.342   4.299  0.5703  0.6835 -0.0193
18225TIP3   OH276089   3.965   6.128  12.287 -0.1539 -0.0265 -0.0568
18225TIP3    H176090   3.904   6.102  12.355  1.3913 -1.0033  1.0111
18225TIP3    H276091   4.003   6.046  12.255  0.6796  0.5506 -0.6122
18226TIP3   OH276092   2.413   0.446   3.190 -0.0243 -0.3078 -0.1902
18226TIP3    H176093   2.332   0.406   3.220 -1.1198  0.3253 -2.1685
18226TIP3    H276094   2.456   0.378   3.138  0.8173 -0.6732  0.9248
18227TIP3   OH276095   3.854   6.195   2.618  0.3383  0.1491  0.1966
18227TIP3    H176096   3.854   6.191   2.714  0.0035  1.7289  0.2860
18227TIP3    H276097   3.807   6.275   2.598 -1.6990 -1.3394 -1.3783
18228TIP3   OH276098   6.983   1.890   3.787 -0.3671 -0.1694  0.0509
18228TIP3    H176099   6.987   1.835   3.865 -1.3502  0.9499  0.9296
18228TIP3    H276100   7.020   1.974   3.815 -0.1533  0.0518 -0.8660
18229TIP3   OH276101   2.038   6.089  13.973  0.2077  0.9909 -0.9745
18229TIP3    H176102   2.045   6.141  14.053 -2.1678 -1.6573  1.2115
18229TIP3    H276103   2.119   6.106  13.925  1.3911  3.3239  1.6036
18230TIP3   OH276104   1.006   6.319   5.576  0.6192 -0.6642 -0.2585
18230TIP3    H176105   0.943   6.344   5.644 -0.0514 -2.1305 -0.3198
18230TIP3    H276106   1.068   6.392   5.574 -0.6287  0.4620  0.3402
18231TIP3   OH276107   2.681   5.803  11.714  0.4204  0.5172 -0.1038
18231TIP3    H176108   2.668   5.747  11.790 -0.2439  0.6270 -0.1301
18231TIP3    H276109   2.775   5.823  11.715  0.5339 -0.0009  0.3151
18232TIP3   OH276110   6.729   2.172  10.824 -0.1641  0.2198 -0.3972
18232TIP3    H176111   6.654   2.173  10.883  0.0523  1.0097 -0.1280
18232TIP3    H276112   6.768   2.085  10.835 -0.2444  0.2900  0.4719
18233TIP3   OH276113   3.455   5.291   1.382  0.4099  0.0989 -0.6474
18233TIP3    H176114   3.466   5.371   1.331  0.0635  0.4943 -0.1122
18233TIP3    H276115   3.474   5.317   1.472 -0.9798 -0.0992 -0.2718
18234TIP3   OH276116   4.423   6.060   3.977 -0.5497  0.1662 -0.0898
18234TIP3    H176117   4.502   6.035   3.930 -0.3533 -0.0190  0.3279
18234TIP3    H276118   4.420   5.999   4.051 -1.7226 -0.6119 -0.7564
18235TIP3   OH276119   3.674   5.155   3.289 -0.1789  0.1085 -0.1029
18235TIP3    H176120   3.692   5.079   3.344  0.7662  0.9606  0.8247
18235TIP3    H276121   3.579   5.163   3.289 -0.2456 -0.5715  0.4836
18236TIP3   OH276122   1.416   0.214   1.754 -0.0170  0.5610  0.2849
18236TIP3    H176123   1.351   0.180   1.692  0.8432 -0.6937  0.0423
18236TIP3    H276124   1.443   0.138   1.806 -1.6860  1.7673  3.2008
18237TIP3   OH276125   1.668   2.354  13.073  0.6666  0.6057 -0.4586
18237TIP3    H176126   1.606   2.428  13.072 -0.6138 -0.3938  0.5849
18237TIP3    H276127   1.730   2.376  13.142 -0.6330  0.0496  0.9501
18238TIP3   OH276128   2.843   3.888   1.452 -0.1409 -0.5803  0.3839
18238TIP3    H176129   2.920   3.923   1.405 -0.3889 -0.8908 -0.2665
18238TIP3    H276130   2.801   3.830   1.388 -1.3591  0.1916  0.4544
18239TIP3   OH276131   4.246   0.248   1.838 -0.5492  0.2162 -0.3667
18239TIP3    H176132   4.333   0.208   1.835 -0.2546  0.2979  3.2582
18239TIP3    H276133   4.258   0.335   1.801  0.7353 -0.0014 -0.5070
18240TIP3   OH276134   1.735   3.635  11.962 -0.2499  0.2521  0.1030
18240TIP3    H176135   1.790   3.566  12.000 -0.5261  0.0078  0.0610
18240TIP3    H276136   1.661   3.588  11.923  0.2423  0.4387 -1.1310
18241TIP3   OH276137   4.091   3.647  13.934 -0.3413 -0.0923 -0.2936
18241TIP3    H176138   4.028   3.644  13.862  0.7673 -3.6487 -1.3662
18241TIP3    H276139   4.172   3.679  13.894 -0.0377 -0.9646 -0.4187
18242TIP3   OH276140   2.331   2.080   2.899  1.1442  0.2668  0.0736
18242TIP3    H176141   2.244   2.073   2.938  2.5044 -0.4634  3.3162
18242TIP3    H276142   2.348   2.174   2.895 -0.1950  0.5017 -1.8540
18243TIP3   OH276143   6.053   2.626   3.991 -0.0420 -0.1020 -0.0158
18243TIP3    H176144   6.060   2.685   3.916  1.9149  0.7587  0.7866
18243TIP3    H276145   6.071   2.539   3.955  0.5693  0.2622 -0.6089
18244TIP3   OH276146   5.649   4.934   5.268 -0.3426  0.9136 -0.0182
18244TIP3    H176147   5.665   4.958   5.360 -0.5335 -0.9992  0.5585
18244TIP3    H276148   5.556   4.913   5.265 -0.0999 -0.2126 -0.3231
18245TIP3   OH276149   2.624   2.788  14.922  0.1723 -0.1409 -0.0707
18245TIP3    H176150   2.635   2.872  14.877 -1.5771  0.4289  0.4455
18245TIP3    H276151   2.708   2.771  14.964  0.5106  1.4292 -0.0635
18246TIP3   OH276152   2.261   5.459   1.271  0.3255 -0.1514  0.5876
18246TIP3    H176153   2.236   5.377   1.227  0.4044  0.1672 -0.0610
18246TIP3    H276154   2.187   5.517   1.255  1.1555  0.5808 -0.7643
18247TIP3   OH276155   2.248   5.592   4.888  0.2068 -0.1227 -0.4658
18247TIP3    H176156   2.325   5.608   4.833  1.1468 -1.1865  0.4982
18247TIP3    H276157   2.228   5.499   4.875  1.0032 -0.6426  1.6311
18248TIP3   OH276158   5.138   2.003   3.470 -0.0666  0.3322 -0.5688
18248TIP3    H176159   5.079   2.030   3.541 -0.4101 -1.9291  0.1005
18248TIP3    H276160   5.080   1.966   3.404  0.4904 -1.6997 -0.0111
18249TIP3   OH276161   4.659   6.207   0.294 -0.1842  0.0344  0.0231
18249TIP3    H176162   4.642   6.140   0.360  0.2755  0.3600  0.4905
18249TIP3    H276163   4.656   6.290   0.343 -0.1809  0.3082 -0.4325
18250TIP3   OH276164   6.025   5.938  12.137 -0.2398  0.4685  0.6751
18250TIP3    H176165   6.034   5.850  12.176 -0.3796  0.3008  0.3318
18250TIP3    H276166   6.100   5.987  12.171  0.0585  0.0999  0.5607
18251TIP3   OH276167   1.731   1.487   0.907 -0.3761 -0.0914  0.0378
18251TIP3    H176168   1.745   1.517   0.997  0.1220 -0.2400  0.0139
18251TIP3    H276169   1.803   1.426   0.891 -1.0948 -0.9308 -0.0715
18252TIP3   OH276170   2.989   2.918   4.712  0.5552  0.0580  0.5064
18252TIP3    H176171   2.972   2.875   4.628  0.3348 -1.0541  1.1047
18252TIP3    H276172   3.011   3.008   4.688 -0.9962  0.1691 -0.6382
18253TIP3   OH276173   4.007   4.050   0.844 -0.2701  0.0438  0.5414
18253TIP3    H176174   4.063   3.976   0.824  0.5313  1.2108 -1.8734
18253TIP3    H276175   4.057   4.102   0.908  0.2696 -0.2332  0.3469
18254TIP3   OH276176   1.377   6.721   1.719 -0.2095  0.1553 -0.5994
18254TIP3    H176177   1.459   6.678   1.741  0.2247  0.6899 -1.1126
18254TIP3    H276178   1.318   6.650   1.692  0.4735 -0.1313 -1.3724
18255TIP3   OH276179   5.851   5.749   4.650  0.2302 -0.1130 -0.0974
18255TIP3    H176180   5.884   5.689   4.584  2.5402 -0.4573  1.2785
18255TIP3    H276181   5.787   5.698   4.700  1.9030 -1.3774  0.8271
18256TIP3   OH276182   2.192   5.022   4.883 -0.4412  0.2256  0.0546
18256TIP3    H176183   2.174   4.929   4.896  0.0149  0.2213  0.6973
18256TIP3    H276184   2.109   5.065   4.901 -0.1803  0.0960  1.6931
18257TIP3   OH276185   5.215   5.662   3.951  0.9950 -0.0974 -0.5938
18257TIP3    H176186   5.222   5.590   3.888  2.4179 -0.6244  0.1484
18257TIP3    H276187   5.123   5.688   3.946  0.3122 -2.3215 -0.4740
18258TIP3   OH276188   5.018   4.786   0.375 -0.1305  0.1591  0.1335
18258TIP3    H176189   4.984   4.721   0.314  1.6685  0.3007 -1.0820
18258TIP3    H276190   5.051   4.857   0.320  2.8972 -0.3553  1.0954
18259TIP3   OH276191   3.637   2.182   4.429 -0.0076  0.4951  0.6178
18259TIP3    H176192   3.646   2.212   4.520  2.8630  1.3311  0.1361
18259TIP3    H276193   3.714   2.129   4.414 -0.7271 -0.0841 -1.2081
18260TIP3   OH276194   2.452   4.260   4.537 -0.4378  0.0237 -0.1805
18260TIP3    H176195   2.417   4.231   4.453 -0.6535 -0.8744  0.2028
18260TIP3    H276196   2.453   4.181   4.591 -2.6077  0.9954  1.4626
18261TIP3   OH276197   6.622   4.335  13.270  0.3537 -0.5133  0.0365
18261TIP3    H176198   6.532   4.336  13.303 -0.5208  0.9971 -2.1027
18261TIP3    H276199   6.669   4.398  13.325 -0.1485 -0.5775  0.5452
18262TIP3   OH276200   3.036   0.639   3.162 -0.4293  0.1681  0.2585
18262TIP3    H176201   2.975   0.575   3.197  0.9907 -1.7106 -0.5461
18262TIP3    H276202   3.115   0.629   3.216  0.3226  0.1949 -0.7988
18263TIP3   OH276203   3.058   5.862   2.810 -0.2263 -0.3916  0.2638
18263TIP3    H176204   3.106   5.867   2.727  0.0795 -1.8283  0.3255
18263TIP3    H276205   3.035   5.953   2.830  1.7923  0.2703 -0.1824
18264TIP3   OH276206   3.457   3.713   4.236  0.3450 -0.4225  0.2990
18264TIP3    H176207   3.445   3.660   4.157 -0.0900 -0.9572  0.7227
18264TIP3    H276208   3.520   3.780   4.210  3.6217 -3.1074  0.6776
18265TIP3   OH276209   3.476   0.561   3.928 -0.0593  0.0802  0.0911
18265TIP3    H176210   3.408   0.619   3.893 -0.0072  0.4948  0.6748
18265TIP3    H276211   3.554   0.584   3.878 -0.1673  0.1371 -0.0531
18266TIP3   OH276212   5.460   2.243  13.822  0.2510  0.1726  0.1649
18266TIP3    H176213   5.507   2.251  13.739  0.2047 -0.9862  0.0151
18266TIP3    H276214   5.457   2.149  13.839 -0.8370  0.3189  0.8503
18267TIP3   OH276215   4.367   1.419   5.684  0.5938 -0.3330  0.6502
18267TIP3    H176216   4.436   1.481   5.661  0.2435  0.5000  1.7419
18267TIP3    H276217   4.287   1.471   5.683  0.2917 -0.7462  1.5873
18268TIP3   OH276218   6.315   6.252   1.871  0.5891 -0.1682  0.3486
18268TIP3    H176219   6.407   6.237   1.847  0.3664 -0.1437 -0.5599
18268TIP3    H276220   6.276   6.165   1.872  0.6084 -0.1756  0.7077
18269TIP3   OH276221   3.683   5.220   0.538  0.7892  0.2984  0.3825
18269TIP3    H176222   3.589   5.208   0.550  0.6069  0.5671 -0.6765
18269TIP3    H276223   3.719   5.219   0.626 -0.1887  0.0336  0.7872
18270TIP3   OH276224   5.420   7.128  12.479 -0.1848 -0.1087  0.4273
18270TIP3    H176225   5.506   7.159  12.510  0.3499  2.1100 -2.8224
18270TIP3    H276226   5.391   7.068  12.548  2.1986  1.9878  3.5701
18271TIP3   OH276227   0.710   6.153   3.502 -0.3587 -0.3118 -0.2150
18271TIP3    H176228   0.685   6.069   3.464  0.7550 -1.2951  1.1281
18271TIP3    H276229   0.804   6.161   3.482 -0.0695 -0.2130  1.0911
18272TIP3   OH276230   0.375   0.329  10.268  0.2567  0.7715 -0.0058
18272TIP3    H176231   0.373   0.258  10.332  1.2302  0.7849  0.0466
18272TIP3    H276232   0.285   0.334  10.236  0.0248 -0.0326  0.4830
18273TIP3   OH276233   6.104   2.501  14.064 -0.0046 -0.5917  0.0106
18273TIP3    H176234   6.109   2.453  13.982 -0.9303 -1.6048  0.5154
18273TIP3    H276235   6.037   2.567  14.049  1.0424  0.3625 -0.5830
18274TIP3   OH276236   1.521   2.165   0.633  0.2817 -0.4473 -0.0717
18274TIP3    H176237   1.499   2.111   0.557 -2.8829 -1.1803  1.2206
18274TIP3    H276238   1.542   2.102   0.702 -1.2982 -0.0208  0.8487
18275TIP3   OH276239   4.525   0.702   2.552  0.1071 -0.5748 -0.4871
18275TIP3    H176240   4.579   0.702   2.472  1.2341 -2.4111  0.2237
18275TIP3    H276241   4.512   0.610   2.573 -1.8018 -0.1416  0.4137
18276TIP3   OH276242   0.837   0.754   2.707 -0.0888 -0.3275 -0.0040
18276TIP3    H176243   0.871   0.794   2.787  0.2837  1.2989 -0.9174
18276TIP3    H276244   0.755   0.712   2.734 -0.2015  0.5798  1.1507
18277TIP3   OH276245   4.904   1.107   2.052 -0.1183 -0.2943  0.1366
18277TIP3    H176246   4.994   1.076   2.064 -0.0362  0.4215  1.6381
18277TIP3    H276247   4.857   1.072   2.128 -0.6708  0.8210  0.3337
18278TIP3   OH276248   6.942   6.740  15.103  0.3827 -0.2806 -0.2396
18278TIP3    H176249   6.934   6.752  15.197  0.6526 -1.7302 -0.0094
18278TIP3    H276250   6.855   6.714  15.074  0.5370 -0.8242 -0.2237
18279TIP3   OH276251   4.381   1.122  15.385  0.1791  0.0481  0.0179
18279TIP3    H176252   4.363   1.174  15.307 -0.0844 -0.1177 -0.0340
18279TIP3    H276253   4.400   1.034  15.351  1.4370  0.2840  0.0412
18280TIP3   OH276254   3.891   6.722   1.257  0.6506 -0.5881  0.1172
18280TIP3    H176255   3.950   6.727   1.332 -0.5924  1.8555  1.0696
18280TIP3    H276256   3.813   6.676   1.289  0.5505 -0.4978  0.0083
18281TIP3   OH276257   1.605   3.081   2.481  0.6883  0.1301  0.5766
18281TIP3    H176258   1.628   3.168   2.513 -1.2773  1.3261 -1.0501
18281TIP3    H276259   1.660   3.067   2.405  0.2505  0.4370  0.1983
18282TIP3   OH276260   3.980   5.019   3.304  0.4099  0.2310  0.4872
18282TIP3    H176261   4.011   5.086   3.365  1.7535  1.0049 -0.9538
18282TIP3    H276262   4.023   4.938   3.333  0.5461  0.4580  0.9302
18283TIP3   OH276263   5.215   2.352   1.522  0.4844 -0.1889 -0.4310
18283TIP3    H176264   5.261   2.433   1.498  0.2306 -0.3382 -1.4663
18283TIP3    H276265   5.202   2.359   1.616  1.2255  0.5867 -0.3741
18284TIP3   OH276266   0.867   4.976   4.132 -0.7511  0.4364  0.0090
18284TIP3    H176267   0.924   5.033   4.184  0.9515  0.3549 -1.6455
18284TIP3    H276268   0.853   4.899   4.188 -1.8544  1.7806  1.6671
18285TIP3   OH276269   6.814   5.995  13.656  0.0880 -0.0306 -0.0021
18285TIP3    H176270   6.854   5.909  13.667  0.0384  0.0545  0.9674
18285TIP3    H276271   6.720   5.980  13.665 -0.3133 -0.4205 -3.4544
18286TIP3   OH276272   4.733   3.070   2.004  0.4455  0.4194  0.5064
18286TIP3    H176273   4.691   3.114   2.078  2.6693  2.2219  0.8402
18286TIP3    H276274   4.756   3.141   1.944  2.3578 -0.4973  0.0670
18287TIP3   OH276275   4.306   5.083   3.748  0.1943 -0.0246  0.6518
18287TIP3    H176276   4.249   5.019   3.706 -0.1099 -0.0628  1.1238
18287TIP3    H276277   4.249   5.157   3.769  0.4134  0.1356  0.6939
18288TIP3   OH276278   0.637   3.101   4.571 -0.0586 -0.0494  0.1970
18288TIP3    H176279   0.562   3.058   4.612  1.7053 -4.0917 -0.3169
18288TIP3    H276280   0.675   3.154   4.640 -2.8787  1.5385  0.6645
18289TIP3   OH276281   4.685   1.370   2.397  0.0467 -0.4056  0.5587
18289TIP3    H176282   4.621   1.440   2.392 -0.0864 -0.6109 -1.5468
18289TIP3    H276283   4.692   1.337   2.307  1.7713 -1.5828  1.0659
18290TIP3   OH276284   6.765   4.016  15.312  0.7352  0.1794 -0.1358
18290TIP3    H176285   6.716   3.962  15.250  0.9254 -1.9962  1.4962
18290TIP3    H276286   6.822   4.070  15.257 -1.2184  0.5711 -1.9430
18291TIP3   OH276287   5.470   2.705  10.965  0.0879  0.2232 -0.6976
18291TIP3    H176288   5.429   2.782  11.006 -0.2400  0.5683 -1.6326
18291TIP3    H276289   5.407   2.678  10.898  0.5393 -0.4118 -0.8683
18292TIP3   OH276290   0.342   7.012   5.262 -0.0121  0.0808 -0.0380
18292TIP3    H176291   0.312   7.011   5.353  1.4354 -1.6746  0.4795
18292TIP3    H276292   0.267   7.047   5.213 -0.5004  2.0230  1.8865
18293TIP3   OH276293   6.852   2.471   0.207  0.1898  0.2278  0.0509
18293TIP3    H176294   6.936   2.504   0.174  0.2037 -0.6813 -0.8467
18293TIP3    H276295   6.874   2.433   0.292  0.9497 -1.1093 -0.7058
18294TIP3   OH276296   5.205   1.044   4.256 -0.3008 -0.3405 -0.0212
18294TIP3    H176297   5.175   0.955   4.235  0.7239 -0.7885  0.3293
18294TIP3    H276298   5.255   1.071   4.179  0.3651 -0.5352  0.3355
18295TIP3   OH276299   4.457   1.937   1.186 -0.2582  0.2073  0.7110
18295TIP3    H176300   4.496   1.963   1.269 -0.1762  0.2451  0.6603
18295TIP3    H276301   4.401   2.010   1.161 -2.1119 -0.7308  1.8877
18296TIP3   OH276302   4.879   1.702   2.705  0.0549  0.2042 -0.0207
18296TIP3    H176303   4.862   1.636   2.639 -0.0437  0.3496 -0.1418
18296TIP3    H276304   4.837   1.668   2.784 -0.9624  0.6416 -0.3641
18297TIP3   OH276305   0.033   1.588   5.445  0.3114 -0.4694  0.0946
18297TIP3    H176306   0.025   1.682   5.458 -1.6358 -0.6007  0.0707
18297TIP3    H276307   0.020   1.550   5.532  3.1513 -0.6843  0.5184
18298TIP3   OH276308   6.281   0.370   2.455  0.0728  0.0187  0.4610
18298TIP3    H176309   6.271   0.279   2.426 -0.5972  0.4258 -0.6455
18298TIP3    H276310   6.332   0.411   2.386 -0.1936  0.6354  0.6279
18299TIP3   OH276311   1.384   0.268   2.474  0.1110 -0.0371 -0.7321
18299TIP3    H176312   1.316   0.316   2.521 -0.3940 -0.2403 -1.2329
18299TIP3    H276313   1.463   0.320   2.485  0.0450 -0.1675  0.4659
18300TIP3   OH276314   3.185   1.140  10.217  0.4188 -0.1646 -0.3846
18300TIP3    H176315   3.213   1.229  10.237  0.0801 -0.3179  0.8793
18300TIP3    H276316   3.140   1.110  10.297 -1.6694 -0.5834 -1.6415
18301TIP3   OH276317   1.207   5.478   2.227 -0.4003 -0.3953 -0.0949
18301TIP3    H176318   1.218   5.567   2.260  0.4082 -1.3579  2.4391
18301TIP3    H276319   1.274   5.427   2.271 -0.4024 -2.1784 -1.9977
18302TIP3   OH276320   5.114   6.034   1.907  0.5282 -0.3905 -0.1986
18302TIP3    H176321   5.187   6.030   1.845  1.2097  2.2937  0.3310
18302TIP3    H276322   5.037   6.009   1.855  1.7698 -4.2487 -0.5398
18303TIP3   OH276323   7.139   6.462   0.541  0.1093  0.0343  0.1123
18303TIP3    H176324   7.065   6.454   0.482  0.2519 -2.0365  0.1628
18303TIP3    H276325   7.205   6.510   0.490 -0.6161  0.3668 -0.5384
18304TIP3   OH276326   5.789   2.740   0.412 -0.3577  1.0029 -0.3675
18304TIP3    H176327   5.702   2.722   0.375  0.0818  0.6190 -1.2521
18304TIP3    H276328   5.804   2.833   0.394 -1.2683  1.5019  1.2833
18305TIP3   OH276329   2.098   0.157  10.985  0.9049 -0.0734  0.3038
18305TIP3    H176330   2.016   0.124  11.022  1.0195 -0.1464  0.4911
18305TIP3    H276331   2.070   0.218  10.916  0.6956  0.3328  0.7431
18306TIP3   OH276332   0.721   2.409   3.141  0.1728  0.0514 -0.2193
18306TIP3    H176333   0.757   2.479   3.087  1.8941  0.4466  1.3165
18306TIP3    H276334   0.785   2.338   3.135  0.1067 -0.1144  0.7971
18307TIP3   OH276335   4.410   5.487   3.460 -0.5823 -0.0290  0.0765
18307TIP3    H176336   4.495   5.532   3.456 -1.0537  1.0809  1.7516
18307TIP3    H276337   4.426   5.411   3.516 -0.5427 -0.2053 -0.1716
18308TIP3   OH276338   2.111   4.294   3.313 -0.2925  0.5350 -0.2663
18308TIP3    H176339   2.143   4.236   3.382 -0.4106  1.7882  0.8796
18308TIP3    H276340   2.144   4.255   3.232 -1.2103 -1.6854  0.3450
18309TIP3   OH276341   0.707   4.581   2.676  0.0964 -0.3367  0.0465
18309TIP3    H176342   0.698   4.511   2.611  0.8737  0.2849 -0.7508
18309TIP3    H276343   0.692   4.661   2.627  1.1768  0.1780  0.5190
18310TIP3   OH276344   5.471   3.487   1.776  0.1403  0.3752  0.7691
18310TIP3    H176345   5.437   3.515   1.691  0.6740 -0.4362  0.2750
18310TIP3    H276346   5.425   3.541   1.840 -1.6802 -0.3290  0.1054
18311TIP3   OH276347   5.797   3.842   4.168  0.6545 -0.9368  0.2342
18311TIP3    H176348   5.748   3.763   4.145 -1.0875  0.1296  0.1784
18311TIP3    H276349   5.736   3.914   4.153  1.9215  0.3745  1.1191
18312TIP3   OH276350   3.012   1.825  10.484 -0.2370  0.3049 -0.2032
18312TIP3    H176351   3.070   1.836  10.408 -0.8799 -0.0546 -0.7593
18312TIP3    H276352   2.978   1.912  10.501  0.1598  0.4464 -0.1230
18313TIP3   OH276353   0.017   6.277   2.582  0.6367  0.0414 -0.5651
18313TIP3    H176354   0.068   6.358   2.582 -0.2934  0.6579 -1.6955
18313TIP3    H276355   0.012   6.251   2.674 -0.5649  2.2576  0.0623
18314TIP3   OH276356   0.951   6.181   3.321 -0.0492 -0.6698 -0.0818
18314TIP3    H176357   1.021   6.230   3.278 -1.1744 -0.0238 -1.2390
18314TIP3    H276358   0.985   6.161   3.408  0.5208  2.0232  0.3778
18315TIP3   OH276359   1.493   6.820   5.363 -1.4617 -0.2820  0.1400
18315TIP3    H176360   1.508   6.824   5.458  0.6427 -0.3970 -0.1504
18315TIP3    H276361   1.422   6.882   5.348 -1.4664  0.1418  1.7205
18316TIP3   OH276362   5.468   7.132  15.420  0.3937 -0.0962 -0.1573
18316TIP3    H176363   5.549   7.164  15.380 -0.2838  2.5326  0.3319
18316TIP3    H276364   5.496   7.073  15.489  1.9014  0.6248 -0.1149
18317TIP3   OH276365   6.868   6.497   1.814 -0.6998 -0.2960 -0.8663
18317TIP3    H176366   6.841   6.407   1.796 -0.9355 -0.0613 -1.7466
18317TIP3    H276367   6.823   6.520   1.896 -0.6241 -0.9793 -0.6286
18318TIP3   OH276368   0.845   0.464  13.845 -0.1845  0.2073 -0.0388
18318TIP3    H176369   0.824   0.514  13.767 -1.6069  0.0293  0.1995
18318TIP3    H276370   0.827   0.524  13.918 -0.2394 -0.0861  0.1911
18319TIP3   OH276371   1.770   0.274   0.425  0.8697  0.1182  0.1001
18319TIP3    H176372   1.741   0.299   0.338  0.9283  0.3406  0.1433
18319TIP3    H276373   1.709   0.205   0.452  0.0611  0.9252  0.3956
18320TIP3   OH276374   4.207   3.963   4.478  0.4189 -0.2380  0.3106
18320TIP3    H176375   4.283   3.970   4.535  0.8095  0.0625 -0.2478
18320TIP3    H276376   4.135   4.002   4.528  1.0392  1.2589  0.0731
18321TIP3   OH276377   3.795   6.205   2.910 -0.1288 -0.0015  0.3411
18321TIP3    H176378   3.857   6.227   2.980  0.8435 -0.6847 -0.2879
18321TIP3    H276379   3.734   6.143   2.950 -0.2208  0.4237  0.8736
18322TIP3   OH276380   7.150   2.013   4.535  0.0284  0.1465 -0.0950
18322TIP3    H176381   7.087   1.981   4.599 -0.2017  0.7621 -0.0061
18322TIP3    H276382   7.104   2.083   4.489  1.3890  2.2025  1.5038
18323TIP3   OH276383   6.270   4.490   2.011 -0.6060  0.5323 -0.6395
18323TIP3    H176384   6.333   4.557   2.038  0.5098 -1.1187  1.1929
18323TIP3    H276385   6.255   4.506   1.918  2.3163  1.1997 -1.0844
18324TIP3   OH276386   2.291   3.854  14.323 -0.6696 -0.0512  0.3465
18324TIP3    H176387   2.268   3.946  14.318 -1.1104 -0.1363  0.7723
18324TIP3    H276388   2.210   3.807  14.301  0.1403 -0.3522 -2.4962
18325TIP3   OH276389   5.905   1.796   2.553 -0.0781  0.5792 -0.0720
18325TIP3    H176390   5.949   1.880   2.566 -0.7088  0.9096 -0.0346
18325TIP3    H276391   5.977   1.732   2.545  0.3928  1.0257  0.5125
18326TIP3   OH276392   6.475   5.693  12.681  0.5399  0.0878  0.5887
18326TIP3    H176393   6.457   5.610  12.725  0.8175 -0.2136  0.1434
18326TIP3    H276394   6.515   5.748  12.749  1.2692 -0.4817  0.6429
18327TIP3   OH276395   5.234   5.604   1.610  0.2474  0.1650 -0.0152
18327TIP3    H176396   5.167   5.622   1.676 -0.7865 -0.5026 -0.8686
18327TIP3    H276397   5.251   5.689   1.570 -2.9522 -0.1760 -2.4546
18328TIP3   OH276398   2.100   6.145   1.865 -0.0429  0.2440 -0.3582
18328TIP3    H176399   2.015   6.169   1.901 -0.5962 -1.3454 -0.5335
18328TIP3    H276400   2.140   6.089   1.931  0.6521  0.5840 -0.4863
18329TIP3   OH276401   6.779   0.661   4.579 -0.0766  0.0408 -0.3183
18329TIP3    H176402   6.778   0.651   4.674  0.9338 -0.3484 -0.3337
18329TIP3    H276403   6.697   0.705   4.559  0.3995  1.5746  0.9034
18330TIP3   OH276404   1.436   5.399  14.499  0.2371 -0.0761  0.4624
18330TIP3    H176405   1.352   5.355  14.511 -0.1534  0.0318 -1.5439
18330TIP3    H276406   1.417   5.492  14.511 -0.3261  0.1141 -1.6412
18331TIP3   OH276407   1.255   6.767   1.963 -0.3004  0.4230  0.0409
18331TIP3    H176408   1.315   6.739   1.894 -0.3773  0.4159 -0.0231
18331TIP3    H276409   1.188   6.819   1.918 -2.0119 -1.9484 -0.3999
18332TIP3   OH276410   1.535   5.075  10.597  0.4632  0.3067  0.1249
18332TIP3    H176411   1.444   5.067  10.568  0.1039 -1.0616  1.5456
18332TIP3    H276412   1.552   5.169  10.596 -0.8787  0.5648 -0.3974
18333TIP3   OH276413   4.844   0.320  10.481  0.4014  0.0372 -0.2235
18333TIP3    H176414   4.924   0.365  10.453  1.4859 -1.9634 -0.5636
18333TIP3    H276415   4.780   0.341  10.413  0.3598  2.2774  0.4379
18334TIP3   OH276416   2.065   1.449  11.760  0.4020 -0.5810  0.1519
18334TIP3    H176417   2.108   1.418  11.680  3.3485  0.3691  1.2297
18334TIP3    H276418   2.012   1.524  11.732  1.5611 -0.1214 -0.9063
18335TIP3   OH276419   0.668   6.727   2.515 -0.2599 -0.1677 -0.0185
18335TIP3    H176420   0.676   6.632   2.529 -0.7621 -0.0076  1.5216
18335TIP3    H276421   0.753   6.752   2.477 -0.7746 -1.4793 -2.2281
18336TIP3   OH276422   1.570   7.004   2.452  0.0508  0.1993 -0.0782
18336TIP3    H176423   1.624   7.083   2.447  1.3660 -0.3815  2.7092
18336TIP3    H276424   1.623   6.937   2.409 -0.6132  0.5558 -1.5241
18337TIP3   OH276425   4.122   6.610   4.577 -0.1846 -0.1553 -0.2552
18337TIP3    H176426   4.123   6.630   4.671 -0.6011  0.4913 -0.3802
18337TIP3    H276427   4.182   6.536   4.568  1.2774  0.9103  0.2575
18338TIP3   OH276428   4.513   4.023  15.418 -0.0856 -0.1472  0.5795
18338TIP3    H176429   4.456   4.039  15.343 -0.1986  0.9969  0.9012
18338TIP3    H276430   4.497   4.096  15.477 -0.3690 -1.2877  1.9631
18339TIP3   OH276431   3.542   7.054   2.647 -0.7225 -0.0318 -0.1367
18339TIP3    H176432   3.484   7.117   2.690  0.3364  0.0675  1.2396
18339TIP3    H276433   3.615   7.107   2.614 -1.2184 -0.1933 -1.5593
18340TIP3   OH276434   7.060   2.557   4.524  0.4706 -0.6479 -0.1076
18340TIP3    H176435   7.120   2.490   4.557 -0.2742 -0.8627  0.8562
18340TIP3    H276436   7.050   2.619   4.596 -1.0470 -1.0263  0.0521
18341TIP3   OH276437   1.136   0.536   5.179 -0.1657  0.3428  0.6478
18341TIP3    H176438   1.072   0.590   5.224 -0.4650 -1.0456  1.9816
18341TIP3    H276439   1.084   0.484   5.117  0.3213  2.7448 -1.9518
18342TIP3   OH276440   1.084   3.481  14.432 -0.1012 -0.2826 -0.2780
18342TIP3    H176441   1.046   3.569  14.440  1.0625  0.2871 -0.8517
18342TIP3    H276442   1.066   3.440  14.517 -0.6299  0.5081  0.0109
18343TIP3   OH276443   3.050   2.966   2.050  0.2843  0.2466 -0.0070
18343TIP3    H176444   3.091   3.023   2.114 -0.5547  0.0661  0.7200
18343TIP3    H276445   3.006   3.025   1.989  0.7228  0.4080 -0.1665
18344TIP3   OH276446   6.470   5.845  14.955 -0.2710  0.5102  0.4826
18344TIP3    H176447   6.439   5.928  14.918  2.0864  0.6793 -1.3766
18344TIP3    H276448   6.516   5.803  14.882 -0.9102 -2.2101  1.5345
18345TIP3   OH276449   2.201   0.579   2.007 -0.9954  0.1299 -0.5870
18345TIP3    H176450   2.144   0.588   1.931  0.4141 -0.1183 -1.7142
18345TIP3    H276451   2.221   0.669   2.032  0.2926  0.2545 -1.9193
18346TIP3   OH276452   4.337   5.268  15.456 -0.0554 -0.3857  0.3109
18346TIP3    H176453   4.258   5.215  15.472  1.7571 -3.1671  0.9049
18346TIP3    H276454   4.348   5.268  15.361  0.4655 -2.0998  0.3346
18347TIP3   OH276455   6.032   0.380   4.742 -0.4559  0.4176 -0.7901
18347TIP3    H176456   6.057   0.376   4.650  0.0517 -0.3148 -0.6269
18347TIP3    H276457   6.052   0.293   4.777 -0.0538  0.8744  0.1634
18348TIP3   OH276458   6.548   5.760   0.886 -0.5479  0.4763 -0.0661
18348TIP3    H176459   6.551   5.694   0.954 -0.8081  1.8311  1.3157
18348TIP3    H276460   6.620   5.820   0.907 -1.5900  1.7682 -0.0398
18349TIP3   OH276461   2.320   6.394  12.515  0.6349 -0.1398 -0.0698
18349TIP3    H176462   2.287   6.330  12.453  0.9492 -0.1055 -0.2773
18349TIP3    H276463   2.247   6.454  12.530  1.2812  1.3944 -2.4218
18350TIP3   OH276464   1.370   4.753   1.879  0.3489  0.5100  0.5170
18350TIP3    H176465   1.438   4.729   1.942  0.3235  1.1934  0.8037
18350TIP3    H276466   1.289   4.756   1.931 -0.2658 -2.0605 -0.1289
18351TIP3   OH276467   0.989   0.899  15.011  0.4240  0.3883 -0.0489
18351TIP3    H176468   1.047   0.826  15.033  0.5231  0.9255  1.6093
18351TIP3    H276469   0.917   0.858  14.963  0.2225 -0.9152  1.2846
18352TIP3   OH276470   5.827   1.927   3.577 -0.6326 -0.2303 -0.1745
18352TIP3    H176471   5.898   1.983   3.545 -0.9055 -0.5298 -1.3653
18352TIP3    H276472   5.862   1.838   3.571 -0.0320 -0.1961  2.1641
18353TIP3   OH276473   5.713   0.065   4.101 -0.5317 -0.6011 -0.1689
18353TIP3    H176474   5.675   0.066   4.188  1.8092 -1.4653  0.9442
18353TIP3    H276475   5.659   0.126   4.050 -2.7228 -1.0499  1.5027
18354TIP3   OH276476   4.655   0.717  15.374 -0.4486  0.8626  0.1606
18354TIP3    H176477   4.709   0.680  15.445  0.1135 -1.2051 -1.2585
18354TIP3    H276478   4.706   0.792  15.342 -0.1663  1.1226  1.1830
18355TIP3   OH276479   0.256   6.924   1.621 -0.3175  0.2131 -0.4541
18355TIP3    H176480   0.327   6.883   1.571 -0.5870 -0.0806 -0.5933
18355TIP3    H276481   0.245   7.010   1.581 -0.7887 -0.1672 -1.1472
18356TIP3   OH276482   0.438   6.307   2.530  0.6945  0.1064  0.6813
18356TIP3    H176483   0.433   6.220   2.569  0.0374  0.1405  0.6791
18356TIP3    H276484   0.530   6.331   2.536  1.4321 -1.7235 -1.7988
18357TIP3   OH276485   5.241   0.661   0.110  0.2906  0.3734  0.4030
18357TIP3    H176486   5.215   0.752   0.091  3.2416  2.0681  3.4223
18357TIP3    H276487   5.316   0.646   0.052 -0.8660 -0.6514 -0.8917
18358TIP3   OH276488   3.810   2.638   4.161  0.6917 -0.0870  0.7813
18358TIP3    H176489   3.749   2.664   4.091  2.0017  0.2511 -0.2958
18358TIP3    H276490   3.803   2.708   4.226  0.7059  0.5236  0.1456
18359TIP3   OH276491   6.485   1.865   1.788  0.1996  0.3683 -0.0344
18359TIP3    H176492   6.404   1.916   1.777 -0.7427 -0.6740  1.7002
18359TIP3    H276493   6.484   1.803   1.715 -0.6834  0.2203  0.0915
18360TIP3   OH276494   0.717   0.907   2.491  0.3315 -0.1232  0.0601
18360TIP3    H176495   0.770   0.861   2.555  2.4679 -0.0613 -1.5608
18360TIP3    H276496   0.751   0.879   2.406 -0.6223  1.7688 -1.0293
18361TIP3   OH276497   7.071   3.923   4.550 -0.0982  0.3246 -0.1791
18361TIP3    H176498   7.128   3.871   4.607  0.1040  3.1556  2.4250
18361TIP3    H276499   7.131   3.979   4.501 -0.4550  2.1542  1.3691
18362TIP3   OH276500   2.389   6.287   5.083  0.0306  0.3898  0.0031
18362TIP3    H176501   2.430   6.365   5.045  0.2989  0.6153  0.7316
18362TIP3    H276502   2.435   6.273   5.166 -0.2407 -0.3506  0.0418
18363TIP3   OH276503   6.369   1.661   4.413  0.0253 -0.1200 -0.1301
18363TIP3    H176504   6.448   1.673   4.466 -0.5815  1.3947  0.4851
18363TIP3    H276505   6.376   1.572   4.379  1.8486 -0.1212  0.1478
18364TIP3   OH276506   4.920   6.130   2.259  0.9821  0.7437  0.1444
18364TIP3    H176507   4.906   6.046   2.216  1.2154 -0.3504  2.0637
18364TIP3    H276508   4.962   6.185   2.193  1.6908 -0.9519 -0.8797
18365TIP3   OH276509   0.117   1.966   4.789 -0.6945  0.2204  0.0365
18365TIP3    H176510   0.052   1.994   4.724  1.2846  0.8460 -1.7820
18365TIP3    H276511   0.192   1.936   4.737  0.1840 -1.2854  2.0481
18366TIP3   OH276512   2.944   3.614  15.093  0.2373 -0.1522  0.1425
18366TIP3    H176513   2.869   3.597  15.150  0.0730  1.0289  0.3028
18366TIP3    H276514   2.997   3.677  15.141  0.9816 -0.4590 -0.2688
18367TIP3   OH276515   0.366   5.807   5.174  0.1162 -0.4323 -0.5824
18367TIP3    H176516   0.430   5.868   5.137  0.4337 -1.1849 -1.3079
18367TIP3    H276517   0.294   5.806   5.111 -0.2473 -0.2239 -0.1820
18368TIP3   OH276518   0.242   6.265  10.990  0.3919  0.6141 -0.3781
18368TIP3    H176519   0.190   6.185  10.978  0.4445  0.1709  1.8118
18368TIP3    H276520   0.217   6.321  10.918 -1.0898 -0.6547 -0.9161
18369TIP3   OH276521   2.905   6.500   4.742 -0.0745  0.5344 -0.1995
18369TIP3    H176522   2.885   6.455   4.660 -2.4106 -0.3095  0.7539
18369TIP3    H276523   2.921   6.591   4.716 -2.4531  0.6822 -1.4856
18370TIP3   OH276524   3.788   6.491   5.090 -0.5322  0.3727 -0.1262
18370TIP3    H176525   3.858   6.479   5.027  0.4057  0.5763  0.8536
18370TIP3    H276526   3.752   6.578   5.069  0.6366  1.0149  0.4230
18371TIP3   OH276527   4.242   5.660   2.637  0.1645 -0.4892  0.3061
18371TIP3    H176528   4.220   5.751   2.657 -0.0348 -0.6155  0.6704
18371TIP3    H276529   4.236   5.615   2.721 -0.3620 -0.9662  0.0145
18372TIP3   OH276530   3.658   4.104   2.653 -0.7248 -0.8236  0.2233
18372TIP3    H176531   3.667   4.116   2.748 -0.2829 -0.7045  0.1684
18372TIP3    H276532   3.609   4.022   2.644  1.8961 -2.5339  0.5559
18373TIP3   OH276533   0.039   6.993   1.240  0.4831 -0.0372 -0.5021
18373TIP3    H176534   0.103   7.059   1.263  1.4841 -1.4016  0.8587
18373TIP3    H276535   0.056   6.974   1.148  0.7299  0.9797 -0.6795
18374TIP3   OH276536   6.962   5.021   3.011  0.1944  0.6911  0.5226
18374TIP3    H176537   6.963   5.092   3.075  0.6528  0.3345  0.9202
18374TIP3    H276538   6.981   4.942   3.062  0.7057  0.4243 -0.0669
18375TIP3   OH276539   3.494   6.678   5.661 -0.5194 -0.0037 -0.2915
18375TIP3    H176540   3.519   6.762   5.623  2.5906 -0.3697  0.6315
18375TIP3    H276541   3.555   6.615   5.622 -2.0088 -1.6460 -0.0828
18376TIP3   OH276542   6.926   4.650   5.237  0.7235  0.1892  0.0607
18376TIP3    H176543   6.995   4.646   5.172 -0.9683 -0.9642 -1.7553
18376TIP3    H276544   6.941   4.733   5.282  2.2049  0.8309 -1.5112
18377TIP3   OH276545   4.492   3.711   5.479  0.5637  0.3301 -0.5219
18377TIP3    H176546   4.562   3.765   5.517 -0.5688  2.5060 -1.3334
18377TIP3    H276547   4.423   3.712   5.545  0.9947 -1.2280 -0.0186
18378TIP3   OH276548   2.156   5.181  13.742 -0.2078 -0.5143  0.1675
18378TIP3    H176549   2.240   5.226  13.740 -0.3650 -0.2264 -0.3268
18378TIP3    H276550   2.176   5.092  13.771  0.0478 -0.0115  1.6302
18379TIP3   OH276551   3.405   1.848   5.187 -0.4259 -0.8091 -0.4256
18379TIP3    H176552   3.375   1.757   5.196 -0.0161 -0.8796  0.2926
18379TIP3    H276553   3.454   1.849   5.105  1.2699 -1.7202  0.5334
18380TIP3   OH276554   1.497   5.597   2.153 -0.2259 -0.2469 -0.1420
18380TIP3    H176555   1.584   5.601   2.193 -0.3925  1.0025  0.1255
18380TIP3    H276556   1.470   5.506   2.165  1.3212 -0.8216 -0.8495
18381TIP3   OH276557   4.343   2.651   0.408  0.2897 -0.2313 -0.1357
18381TIP3    H176558   4.376   2.731   0.367 -0.5242  0.4313  0.4629
18381TIP3    H276559   4.382   2.652   0.496  1.3350 -1.1931 -0.5709
18382TIP3   OH276560   3.528   2.998   3.078 -0.0907  0.3478  0.2777
18382TIP3    H176561   3.535   2.984   3.172  1.1995 -0.6310  0.0684
18382TIP3    H276562   3.619   3.002   3.047 -0.4334 -1.2704 -1.1514
18383TIP3   OH276563   3.005   3.391  15.264  0.2675  0.0763  0.0915
18383TIP3    H176564   3.084   3.427  15.304  0.0777  1.0110 -0.3439
18383TIP3    H276565   2.941   3.462  15.269 -1.3227 -1.3910  2.5412
18384TIP3   OH276566   1.442   4.752   5.079 -0.2326  0.0813  0.1554
18384TIP3    H176567   1.397   4.691   5.137 -0.5846  1.1032  0.9786
18384TIP3    H276568   1.535   4.737   5.096 -0.3058 -0.4221  0.1298
18385TIP3   OH276569   0.087   0.204   4.862 -0.8039  0.2416  0.2808
18385TIP3    H176570   0.112   0.112   4.872 -0.1458  0.2378 -1.1505
18385TIP3    H276571   0.080   0.217   4.767  0.0536  1.8946  0.4065
18386TIP3   OH276572   4.275   6.972   0.361  0.5057 -0.3603 -0.2790
18386TIP3    H176573   4.364   6.993   0.335  0.0831 -0.5047 -1.9087
18386TIP3    H276574   4.248   6.901   0.303 -0.4026 -0.8884  0.7302
18387TIP3   OH276575   3.163   7.117   1.583  0.3959  0.5720 -0.3638
18387TIP3    H176576   3.127   7.033   1.555  0.7026  0.7347 -1.2918
18387TIP3    H276577   3.173   7.109   1.677  0.3615 -0.4177 -0.4364
18388TIP3   OH276578   2.107   2.710   4.021  0.2141 -0.0331  0.0468
18388TIP3    H176579   2.026   2.662   4.041  1.1871 -1.2860  1.1649
18388TIP3    H276580   2.173   2.642   4.009  1.1054  0.9607 -1.0085
18389TIP3   OH276581   3.820   1.979   2.967 -0.4927  0.0292  0.9410
18389TIP3    H176582   3.805   1.959   3.059 -1.6841  0.6523  0.9075
18389TIP3    H276583   3.761   1.921   2.920 -0.2944  0.1039  0.5973
18390TIP3   OH276584   4.983   6.517   1.220  0.0256 -0.2520  0.2819
18390TIP3    H176585   5.058   6.565   1.254 -2.0302  2.0561  1.9271
18390TIP3    H276586   4.945   6.575   1.154 -0.7557 -1.0434  0.0075
18391TIP3   OH276587   0.605   5.638   2.815 -0.0814  0.1385  0.5373
18391TIP3    H176588   0.639   5.553   2.790  1.6167  1.3618 -1.7461
18391TIP3    H276589   0.640   5.654   2.902  0.2551 -1.1390  0.6505
18392TIP3   OH276590   0.156   3.807  13.981 -0.5695  0.3469 -0.0139
18392TIP3    H176591   0.182   3.769  13.897 -0.1439 -0.8931  0.6487
18392TIP3    H276592   0.087   3.868  13.959  0.9634  1.6474 -1.5251
18393TIP3   OH276593   3.797   1.343   0.771 -0.1260 -0.3184  0.5725
18393TIP3    H176594   3.842   1.274   0.820 -0.4973 -0.5963  0.5294
18393TIP3    H276595   3.821   1.424   0.817 -1.4332 -0.6779  1.9898
18394TIP3   OH276596   6.179   2.624  14.614 -0.0964  0.6176  0.0552
18394TIP3    H176597   6.145   2.543  14.652  0.2924  0.3241 -0.2058
18394TIP3    H276598   6.264   2.636  14.657 -0.6217  1.4754  0.8859
18395TIP3   OH276599   6.053   6.558  13.442 -0.1483 -0.3221 -0.4429
18395TIP3    H176600   5.970   6.511  13.430  0.2049 -2.0691  2.9283
18395TIP3    H276601   6.028   6.644  13.474 -0.6691  0.5636 -2.9834
18396TIP3   OH276602   4.376   4.661   3.697  0.5024 -0.1818  0.0540
18396TIP3    H176603   4.464   4.632   3.671  0.6265  0.6293 -0.4561
18396TIP3    H276604   4.320   4.586   3.677  1.0912 -0.7473  0.4825
18397TIP3   OH276605   3.429   7.115   5.331 -0.1308  0.1623  0.8502
18397TIP3    H176606   3.380   7.034   5.344 -1.2426  0.8295  0.9169
18397TIP3    H276607   3.402   7.171   5.403 -0.7693  1.2461 -0.2010
18398TIP3   OH276608   1.750   0.063   2.446  0.0322 -0.6356 -0.1153
18398TIP3    H176609   1.774   0.109   2.527  0.4966 -0.5887 -0.2818
18398TIP3    H276610   1.833   0.042   2.404 -0.1705 -1.5631 -0.0779
18399TIP3   OH276611   4.675   4.471   3.067 -0.2918  0.2808 -0.1846
18399TIP3    H176612   4.644   4.562   3.059  1.0770  0.8255  0.5019
18399TIP3    H276613   4.761   4.478   3.109 -0.3716 -1.3760  0.3217
18400TIP3   OH276614   4.670   4.819   3.496  0.8644  0.1528  0.1344
18400TIP3    H176615   4.580   4.835   3.523  0.8423  0.0995  0.0923
18400TIP3    H276616   4.709   4.771   3.570  1.0589  0.7899  0.4504
18401TIP3   OH276617   3.768   1.658  15.416 -0.6721  0.3131  0.3897
18401TIP3    H176618   3.718   1.606  15.478 -1.0062 -0.9745 -0.8897
18401TIP3    H276619   3.703   1.697  15.358 -0.3199  0.6341  0.2012
18402TIP3   OH276620   2.513   6.572  12.488 -0.0395  0.2069  0.3099
18402TIP3    H176621   2.453   6.498  12.495  1.1689 -1.0508 -1.6957
18402TIP3    H276622   2.509   6.614  12.574 -2.1256 -1.0931  0.9295
18403TIP3   OH276623   4.075   5.006  13.149  0.1207 -0.6110  0.5024
18403TIP3    H176624   4.026   5.038  13.073  0.2756 -1.2345  0.1367
18403TIP3    H276625   4.166   5.031  13.132  0.3024 -1.5453  0.0397
18404TIP3   OH276626   4.884   1.046  14.323 -0.5786  0.7009 -0.3261
18404TIP3    H176627   4.971   1.063  14.359 -0.3940 -1.2332  0.2354
18404TIP3    H276628   4.825   1.100  14.376  0.3420  3.3282 -1.7566
18405TIP3   OH276629   5.431   6.111   3.092  0.4505 -0.4871 -0.0998
18405TIP3    H176630   5.345   6.083   3.122 -0.0794  0.3135 -0.8118
18405TIP3    H276631   5.424   6.206   3.083  0.7262 -0.6104 -2.1637
18406TIP3   OH276632   0.856   0.616  13.627 -0.1459  0.2944  0.0521
18406TIP3    H176633   0.855   0.577  13.540 -0.7000 -2.0935  1.0520
18406TIP3    H276634   0.810   0.700  13.617 -0.5213 -0.1069 -1.8547
18407TIP3   OH276635   3.294   5.486   2.980 -0.0850  0.1237  0.3507
18407TIP3    H176636   3.273   5.416   3.042  0.5222 -1.8423 -1.5409
18407TIP3    H276637   3.382   5.514   3.005 -0.6933  0.9148  1.7016
18408TIP3   OH276638   1.919   4.267  15.387  0.2452  0.8761  0.0395
18408TIP3    H176639   1.937   4.320  15.465 -0.4205  1.0910  0.0603
18408TIP3    H276640   1.824   4.272  15.377  0.0377 -1.1926  0.6473
18409TIP3   OH276641   5.807   4.025   4.551  0.0115 -0.0916 -0.2437
18409TIP3    H176642   5.778   4.115   4.534 -1.5052  0.3533  3.7593
18409TIP3    H276643   5.870   4.033   4.622  0.4962 -2.1528 -0.3956
18410TIP3   OH276644   3.717   2.860  11.345  0.1368  0.2605  0.2182
18410TIP3    H176645   3.668   2.906  11.413 -0.1590 -2.1099  1.7133
18410TIP3    H276646   3.652   2.805  11.302  0.9186 -0.7090  0.2444
18411TIP3   OH276647   0.307   0.858   5.092 -0.4533 -0.3295  0.6086
18411TIP3    H176648   0.240   0.926   5.094 -0.4133 -0.2993  1.6723
18411TIP3    H276649   0.274   0.793   5.030 -0.4584  0.6700 -0.4816
18412TIP3   OH276650   4.778   2.976  15.481  0.1886 -0.1906 -0.0020
18412TIP3    H176651   4.730   2.894  15.476  0.7507 -0.6508  1.5583
18412TIP3    H276652   4.750   3.015  15.564  2.1914 -0.3118  0.7902
18413TIP3   OH276653   4.690   0.375   5.276 -0.0173  0.0646  0.1380
18413TIP3    H176654   4.777   0.344   5.299 -0.2367  0.1756  1.1464
18413TIP3    H276655   4.657   0.309   5.214  0.3312 -0.5950  0.6506
18414TIP3   OH276656   2.053   0.122   4.102 -0.1104  0.0327 -0.2932
18414TIP3    H176657   2.053   0.067   4.180  1.7583 -1.4422 -1.2362
18414TIP3    H276658   1.969   0.103   4.059 -1.5186  1.4599  1.6539
18415TIP3   OH276659   5.773   4.493   4.938  0.5881 -0.5207 -0.5557
18415TIP3    H176660   5.705   4.527   4.996  0.9720 -0.5382 -0.0876
18415TIP3    H276661   5.770   4.398   4.950  1.4561 -0.4519  0.3455
18416TIP3   OH276662   2.169   3.397  11.385 -0.0356  0.6821 -0.1836
18416TIP3    H176663   2.186   3.343  11.462 -0.6371  0.7380 -0.0059
18416TIP3    H276664   2.242   3.459  11.384  0.3163  0.2803 -0.0232
18417TIP3   OH276665   5.414   3.277  14.067 -0.3257 -0.4961 -0.4741
18417TIP3    H176666   5.505   3.305  14.067 -0.3452  0.0099  2.6528
18417TIP3    H276667   5.384   3.291  13.977  2.4725 -0.1191 -1.4446
18418TIP3   OH276668   0.263   0.710  14.235 -0.5255 -0.1825 -0.2906
18418TIP3    H176669   0.241   0.652  14.309  2.5116 -0.5761  0.4147
18418TIP3    H276670   0.209   0.787  14.249 -1.8872 -1.2795  0.8848
18419TIP3   OH276671   6.204   6.392   0.755 -0.1277 -0.0146 -0.4831
18419TIP3    H176672   6.190   6.301   0.783 -0.9585  0.3158  0.1877
18419TIP3    H276673   6.270   6.425   0.816  0.7289 -0.3688 -1.1838
18420TIP3   OH276674   3.221   0.718   5.570  0.4822 -0.4415  0.4625
18420TIP3    H176675   3.140   0.755   5.535  0.4831 -0.7118  0.1680
18420TIP3    H276676   3.281   0.793   5.576  0.6767 -0.4860 -0.6940
18421TIP3   OH276677   5.984   2.436   3.579  0.0986 -0.6719 -0.8850
18421TIP3    H176678   5.893   2.422   3.553 -0.6860  0.1126  1.2162
18421TIP3    H276679   6.032   2.443   3.496 -1.8658 -0.3481 -2.0626
18422TIP3   OH276680   6.384   4.723   4.805  0.4356  0.1239  0.2304
18422TIP3    H176681   6.339   4.742   4.723 -0.5949 -2.8335 -0.0233
18422TIP3    H276682   6.425   4.638   4.791  1.9827  0.4777  2.1446
18423TIP3   OH276683   3.183   0.141   3.678 -0.0626 -0.0671 -0.4270
18423TIP3    H176684   3.219   0.190   3.604  0.4045  0.6948  0.2965
18423TIP3    H276685   3.171   0.206   3.747  0.0609 -0.8711  0.3771
18424TIP3   OH276686   2.435   0.388  14.488  0.5444 -0.7420 -0.4718
18424TIP3    H176687   2.471   0.399  14.400 -0.5036 -0.5421 -0.8917
18424TIP3    H276688   2.343   0.368  14.474 -0.3159  1.9486  0.5847
18425TIP3   OH276689   6.616   6.981  10.223 -0.9247  0.0949 -0.3151
18425TIP3    H176690   6.530   7.003  10.186 -0.9601  1.5687  0.5666
18425TIP3    H276691   6.672   6.968  10.147 -1.7182 -0.0224 -0.9013
18426TIP3   OH276692   1.312   2.835  14.809  0.4303 -0.0157 -0.2401
18426TIP3    H176693   1.343   2.759  14.759 -0.3710  0.2439 -1.1608
18426TIP3    H276694   1.366   2.836  14.888  2.1160 -0.1050 -1.3618
18427TIP3   OH276695   0.594   0.844   0.362  0.3224 -0.0700  0.0871
18427TIP3    H176696   0.526   0.889   0.311 -0.9621 -1.1343  0.8220
18427TIP3    H276697   0.579   0.873   0.452  0.9031 -0.2688  0.2510
18428TIP3   OH276698   4.223   1.309   1.500  0.0947 -0.3612 -0.4668
18428TIP3    H176699   4.300   1.352   1.535 -0.7005  0.1548  0.7167
18428TIP3    H276700   4.175   1.378   1.453 -0.1150 -0.4506 -0.3885
18429TIP3   OH276701   0.056   0.107  14.307  0.1449 -0.3657 -0.4345
18429TIP3    H176702   0.016   0.145  14.229 -0.0249 -2.8923 -1.6786
18429TIP3    H276703  -0.008   0.121  14.376 -0.0001  1.3080 -0.8543
18430TIP3   OH276704   4.304   4.962  10.808 -0.2828 -0.3742 -0.2906
18430TIP3    H176705   4.240   4.962  10.737 -2.0764 -1.6197  1.2260
18430TIP3    H276706   4.252   4.980  10.887  1.4865  0.0279  0.8413
18431TIP3   OH276707   4.757   4.948   4.663 -0.3810  0.1038 -0.0427
18431TIP3    H176708   4.851   4.933   4.671 -0.2666  1.1203  0.6554
18431TIP3    H276709   4.732   4.898   4.585  0.6804 -0.3940 -0.0871
18432TIP3   OH276710   6.421   3.643   4.513  0.2515  0.3977 -0.2405
18432TIP3    H176711   6.506   3.656   4.471 -0.4026  0.1764 -1.7209
18432TIP3    H276712   6.369   3.719   4.486 -0.2752  0.1074 -0.0629
18433TIP3   OH276713   2.741   1.780  13.845 -0.2884 -0.5802 -0.3310
18433TIP3    H176714   2.819   1.834  13.861 -0.7125 -0.4328  1.4326
18433TIP3    H276715   2.711   1.807  13.759  0.6288  0.6096 -0.3125
18434TIP3   OH276716   1.563   1.902   3.326  0.0329  0.1203  0.7846
18434TIP3    H176717   1.534   1.992   3.317  1.9022  0.7636  0.7226
18434TIP3    H276718   1.651   1.901   3.286  0.2048 -1.6292  1.1277
18435TIP3   OH276719   2.318   2.580   4.577  0.6705  0.1191 -0.3624
18435TIP3    H176720   2.303   2.506   4.518  2.9073  0.4851 -1.5303
18435TIP3    H276721   2.384   2.549   4.638  0.1086  0.5158  0.4660
18436TIP3   OH276722   2.270   5.214   3.717  0.2908  0.1491  0.4585
18436TIP3    H176723   2.218   5.289   3.746 -0.7559 -0.0671 -0.7585
18436TIP3    H276724   2.359   5.234   3.744 -0.2576  1.0190  1.6867
18437TIP3   OH276725   6.013   2.321   5.809  0.0715 -0.2022 -0.7372
18437TIP3    H176726   5.955   2.246   5.791 -1.4926  0.6999  0.3478
18437TIP3    H276727   5.976   2.392   5.757 -1.3073  1.0140  1.7138
18438TIP3   OH276728   6.816   5.468   4.770 -0.6655  0.2942 -0.4031
18438TIP3    H176729   6.830   5.455   4.677 -2.2227 -0.9868 -0.5000
18438TIP3    H276730   6.882   5.413   4.813 -1.5437 -1.1011 -0.7874
18439TIP3   OH276731   1.624   0.765   5.417  0.1422 -0.1959  0.1566
18439TIP3    H176732   1.706   0.722   5.391  1.1070  0.7266  1.4968
18439TIP3    H276733   1.576   0.777   5.336  2.2758  1.1228 -0.9912
18440TIP3   OH276734   0.073   1.447  14.352  0.1700 -0.0666 -0.1100
18440TIP3    H176735   0.034   1.473  14.268  1.2415 -0.8153 -0.8623
18440TIP3    H276736   0.025   1.498  14.417 -0.3816  0.8664 -1.2080
18441TIP3   OH276737   5.264   5.783   3.636  0.1942 -0.2685  0.0546
18441TIP3    H176738   5.330   5.732   3.589  0.8023  0.3734  0.1881
18441TIP3    H276739   5.255   5.737   3.720 -0.1782 -0.8546 -0.2945
18442TIP3   OH276740   6.296   3.139   5.631 -0.2076  0.3265 -0.4745
18442TIP3    H176741   6.333   3.059   5.670 -0.6751  0.2680 -0.1544
18442TIP3    H276742   6.373   3.190   5.605  0.0993 -0.4430 -1.1357
18443TIP3   OH276743   1.710   4.909   3.782 -0.3439  0.1026 -0.6566
18443TIP3    H176744   1.702   4.880   3.873 -0.0131  0.7100 -0.4270
18443TIP3    H276745   1.674   4.998   3.782 -1.7070 -0.4040 -1.4241
18444TIP3   OH276746   3.957   1.765   4.748  0.4151 -0.3425  0.2749
18444TIP3    H176747   3.999   1.738   4.830  1.0214  0.1328  0.1204
18444TIP3    H276748   4.029   1.794   4.692 -0.0905  0.2301 -0.0871
18445TIP3   OH276749   1.780   2.844   4.027 -0.2483  0.7441  0.1360
18445TIP3    H176750   1.826   2.871   3.947  1.0230  0.4036  0.7232
18445TIP3    H276751   1.821   2.895   4.097  0.8198 -1.1624  0.9877
18446TIP3   OH276752   5.228   1.159  13.795 -0.1337 -0.3195  0.1477
18446TIP3    H176753   5.151   1.136  13.847  0.1290  1.0704  1.2004
18446TIP3    H276754   5.294   1.185  13.859  0.9428 -0.6639 -0.7878
18447TIP3   OH276755   2.877   0.952   4.458  0.0382 -0.4033  0.0237
18447TIP3    H176756   2.949   0.972   4.398  0.1271  0.2538  0.3317
18447TIP3    H276757   2.901   0.868   4.498  0.2521 -0.5659 -0.4399
18448TIP3   OH276758   0.778   5.085   4.510  0.0656  0.1163  0.5660
18448TIP3    H176759   0.805   5.127   4.429 -0.2657 -1.7152 -0.5564
18448TIP3    H276760   0.814   5.140   4.579  3.2983 -0.0660 -0.7981
18449TIP3   OH276761   2.947   5.437  14.950 -0.2230  0.2857 -0.1113
18449TIP3    H176762   2.914   5.347  14.949  1.4248 -0.3677  0.0082
18449TIP3    H276763   2.870   5.491  14.962 -1.6142 -0.9295 -2.7324
18450TIP3   OH276764   2.371   3.758   3.758  0.2442  0.3220  0.1610
18450TIP3    H176765   2.464   3.765   3.735  0.7283  0.6243  1.9838
18450TIP3    H276766   2.344   3.672   3.726  0.6350  0.9451 -1.9808
18451TIP3   OH276767   3.800   1.331   5.367 -0.2587  0.8401 -0.1679
18451TIP3    H176768   3.790   1.374   5.452 -0.7254  0.0460  0.1916
18451TIP3    H276769   3.857   1.257   5.384 -0.2777  0.7302 -0.5678
18452TIP3   OH276770   5.612   7.102   1.094 -0.0015  0.5965 -0.5268
18452TIP3    H176771   5.596   7.007   1.098  1.3911  0.3527 -0.2728
18452TIP3    H276772   5.540   7.136   1.041 -0.8188 -0.5315 -0.1841
18453TIP3   OH276773   1.440   4.067   1.978  0.0632 -0.1098 -0.2011
18453TIP3    H176774   1.442   4.052   2.073 -1.9866 -0.2057 -0.1292
18453TIP3    H276775   1.433   3.979   1.941  1.5855 -0.1272 -0.5195
18454TIP3   OH276776   6.287   5.602   1.283  0.0641 -0.1873  0.2040
18454TIP3    H176777   6.293   5.548   1.361  0.3089 -0.4916 -0.0244
18454TIP3    H276778   6.207   5.653   1.295 -0.1526 -0.5788  0.4341
18455TIP3   OH276779   3.235   6.970   3.304  0.5961  0.1141 -0.5180
18455TIP3    H176780   3.233   6.876   3.320  0.6184  0.5967  3.0853
18455TIP3    H276781   3.324   6.988   3.274  2.0515 -0.5695  3.0024
18456TIP3   OH276782   3.901   5.201   3.606  0.6029 -0.1660 -0.0024
18456TIP3    H176783   3.889   5.250   3.688  2.6367 -0.7497  0.7133
18456TIP3    H276784   3.954   5.259   3.552 -0.0823 -0.1038 -0.6178
18457TIP3   OH276785   5.444   2.237  12.754 -0.2396  0.0013 -0.7834
18457TIP3    H176786   5.441   2.257  12.661  0.0796  0.6809 -0.6574
18457TIP3    H276787   5.490   2.311  12.793 -1.0289  0.1047  0.0086
18458TIP3   OH276788   2.361   0.827   3.459 -0.1409 -0.1110  0.1913
18458TIP3    H176789   2.360   0.897   3.525  1.9501  0.6930 -0.5575
18458TIP3    H276790   2.350   0.746   3.510  0.9445  0.5260  1.5033
18459TIP3   OH276791   2.928   4.801   2.131 -0.1907 -0.5262 -0.2454
18459TIP3    H176792   2.924   4.731   2.196  2.6175  0.0812  0.7190
18459TIP3    H276793   3.013   4.789   2.088  0.2361  2.0506 -0.2816
18460TIP3   OH276794   5.246   3.157   0.366 -0.3817 -0.5092  0.0975
18460TIP3    H176795   5.266   3.250   0.374 -0.6816 -0.2887 -1.5569
18460TIP3    H276796   5.171   3.144   0.424 -0.9322  0.4802 -0.3695
18461TIP3   OH276797   3.200   2.661   4.812  0.2701  0.5422  0.3027
18461TIP3    H176798   3.277   2.623   4.769 -0.5556 -1.8733  0.7996
18461TIP3    H276799   3.235   2.716   4.882  1.5649 -0.8089  0.7583
18462TIP3   OH276800   2.056   3.255   1.751  0.2624 -0.5861 -0.1822
18462TIP3    H176801   1.989   3.309   1.710  0.6283 -0.0351 -0.0691
18462TIP3    H276802   2.092   3.202   1.679 -1.5965 -2.3332  0.0730
18463TIP3   OH276803   6.778   7.096   2.813 -0.0180 -0.0955 -0.5156
18463TIP3    H176804   6.685   7.114   2.830  0.1233  1.1019 -0.9312
18463TIP3    H276805   6.799   7.149   2.736  1.3471  0.6954  0.3671
18464TIP3   OH276806   5.543   5.030  14.541 -0.0668  0.1190  0.4566
18464TIP3    H176807   5.610   4.961  14.537 -0.1113  0.1257 -2.0561
18464TIP3    H276808   5.552   5.067  14.629  2.1887 -0.8893  0.7265
18465TIP3   OH276809   0.874   1.333   3.665  0.0409  0.1763 -0.1730
18465TIP3    H176810   0.935   1.394   3.706  0.7175 -1.1935  0.9602
18465TIP3    H276811   0.928   1.259   3.638 -0.0705  1.4769 -4.9452
18466TIP3   OH276812   5.437   4.233   4.561 -0.5471 -0.8104  0.2092
18466TIP3    H176813   5.493   4.161   4.591 -1.0035 -0.6393  1.5375
18466TIP3    H276814   5.496   4.308   4.556 -0.4689 -0.8359  0.7266
18467TIP3   OH276815   4.009   2.048  11.724  0.6675 -0.0243  0.2180
18467TIP3    H176816   4.081   1.996  11.689  2.6003  1.6558  1.5065
18467TIP3    H276817   3.934   2.024  11.669  2.5756 -0.5087 -2.3803
18468TIP3   OH276818   5.750   0.740   4.974 -0.6933 -0.0573  0.2646
18468TIP3    H176819   5.831   0.716   5.019 -1.5363  0.5980  2.2335
18468TIP3    H276820   5.681   0.699   5.025 -1.7033  0.5932 -0.5371
18469TIP3   OH276821   4.333   2.225   4.289 -0.6469  0.1068 -0.0059
18469TIP3    H176822   4.366   2.275   4.364 -0.8662 -0.5162  0.5154
18469TIP3    H276823   4.306   2.292   4.225 -1.1273  0.6522  0.7555
18470TIP3   OH276824   5.113   3.602   4.932 -0.1597  0.3734 -0.3222
18470TIP3    H176825   5.160   3.518   4.934  0.0938  0.5197 -0.1501
18470TIP3    H276826   5.063   3.599   4.850  0.3602  0.3342 -0.6426
18471TIP3   OH276827   0.972   1.678   0.767  0.6383 -0.9068  0.0795
18471TIP3    H176828   0.911   1.723   0.826  1.7942  0.1657  0.5060
18471TIP3    H276829   0.945   1.705   0.679 -0.3660 -1.5827  0.1578
18472TIP3   OH276830   4.486   2.651   2.886  0.2830 -0.5155 -0.3883
18472TIP3    H176831   4.533   2.578   2.925 -0.4124 -0.5128  0.4929
18472TIP3    H276832   4.421   2.610   2.828  1.1316 -0.5270 -1.3539
18473TIP3   OH276833   5.448   5.040   3.977  0.1451  0.4141 -0.0909
18473TIP3    H176834   5.368   5.047   4.029 -0.2618  2.0311 -0.8765
18473TIP3    H276835   5.503   5.112   4.007  1.2974 -0.6067  0.3528
18474TIP3   OH276836   5.147   1.149  14.457  0.3749  0.1316  0.3491
18474TIP3    H176837   5.175   1.220  14.400 -1.5776 -0.9065 -2.1099
18474TIP3    H276838   5.216   1.083  14.449  0.7380  0.5236  0.2144
18475TIP3   OH276839   4.563   6.421   1.072  0.1293 -0.1392 -1.0074
18475TIP3    H176840   4.628   6.445   1.006  1.8162  1.0722  0.9667
18475TIP3    H276841   4.481   6.457   1.040  1.1208  1.4024 -1.9400
18476TIP3   OH276842   6.589   1.246   0.568  0.2729 -0.6488 -0.4043
18476TIP3    H176843   6.610   1.238   0.476 -1.4101  2.4832 -1.1995
18476TIP3    H276844   6.522   1.179   0.583 -1.0846  0.2259 -2.1264
18477TIP3   OH276845   3.071   2.495   4.599  0.4168 -0.3212  0.2450
18477TIP3    H176846   3.131   2.565   4.623  0.7256 -0.4005 -0.2761
18477TIP3    H276847   3.031   2.524   4.518  3.2969 -2.2971 -2.1049
18478TIP3   OH276848   3.674   0.885   3.921  0.4217 -0.0501  0.2002
18478TIP3    H176849   3.691   0.801   3.964  0.0634 -0.8514 -1.1737
18478TIP3    H276850   3.688   0.868   3.828 -2.1352  0.6943 -0.4226
18479TIP3   OH276851   5.668   2.474   5.230  0.7054 -0.0640 -0.8927
18479TIP3    H176852   5.680   2.486   5.324  0.5769 -2.7915 -0.4428
18479TIP3    H276853   5.597   2.533   5.206  2.5814  2.7778  0.0768
18480TIP3   OH276854   5.682   6.308   2.575 -0.0884  0.2911  0.5374
18480TIP3    H176855   5.618   6.379   2.573  0.0504  0.6012  3.3416
18480TIP3    H276856   5.654   6.253   2.649 -0.2018 -2.6596 -1.5344
18481TIP3   OH276857   4.055   6.534   2.068 -0.1432 -0.2327  0.0625
18481TIP3    H176858   4.007   6.613   2.043  2.1301  1.5578  1.0430
18481TIP3    H276859   4.012   6.506   2.149 -0.4167  0.5163  0.1878
18482TIP3   OH276860   1.440   7.132   4.807  0.1363 -0.6246 -0.3541
18482TIP3    H176861   1.486   7.188   4.869  0.4302 -0.9650 -0.2565
18482TIP3    H276862   1.415   7.189   4.735  2.2282 -0.7610 -1.2397
18483TIP3   OH276863   5.996   5.058   3.831  0.1083 -0.0147 -0.4143
18483TIP3    H176864   5.922   5.082   3.775 -0.4309  0.5768  0.5182
18483TIP3    H276865   6.052   5.004   3.776  1.5339  3.4683 -2.7725
18484TIP3   OH276866   6.899   1.102   3.334 -0.1256  0.1103  0.1129
18484TIP3    H176867   6.866   1.152   3.260  0.3819  0.3246  0.0283
18484TIP3    H276868   6.843   1.025   3.338  0.0683 -0.0804 -0.7204
18485TIP3   OH276869   0.724   5.732   3.058  0.1771 -0.1424  0.0420
18485TIP3    H176870   0.678   5.729   3.142 -0.3812  0.7979 -0.2120
18485TIP3    H276871   0.805   5.780   3.077  0.1870 -0.1847  0.1078
18486TIP3   OH276872   2.846   0.376   4.948  0.1987  0.2512 -0.1012
18486TIP3    H176873   2.928   0.333   4.972 -0.6782 -1.5048 -0.0846
18486TIP3    H276874   2.811   0.409   5.031  1.5238  2.3110 -0.2840
18487TIP3   OH276875   0.924   6.248  10.196 -0.6326 -0.0571 -0.8927
18487TIP3    H176876   0.995   6.295  10.153 -0.4965 -1.2548 -2.0252
18487TIP3    H276877   0.967   6.191  10.260 -0.4750 -1.2382 -2.0034
18488TIP3   OH276878   0.262   7.144   4.838  0.2637  0.0398 -0.0206
18488TIP3    H176879   0.313   7.090   4.899 -1.6346  0.3052  1.9271
18488TIP3    H276880   0.179   7.096   4.828 -0.3402  1.1683 -0.5553
18489TIP3   OH276881   3.930   4.534   0.935  0.4041  0.0338 -0.0368
18489TIP3    H176882   3.905   4.523   0.843  2.9902  0.8383 -0.9031
18489TIP3    H276883   3.942   4.444   0.967  1.6910 -0.2319 -1.1729
18490TIP3   OH276884   2.664   4.371   5.542 -0.3156 -0.4276 -0.1544
18490TIP3    H176885   2.656   4.404   5.632  1.0973 -1.5030  0.4135
18490TIP3    H276886   2.636   4.280   5.548 -0.9717 -0.2918 -0.9923
18491TIP3   OH276887   3.166   0.406   4.535 -0.7465 -0.0959  0.3811
18491TIP3    H176888   3.179   0.499   4.558  0.9414 -0.6772  1.9957
18491TIP3    H276889   3.143   0.365   4.618 -0.2485 -1.3462 -0.0895
18492TIP3   OH276890   3.639   2.105   2.507 -0.2412 -0.2722 -0.2139
18492TIP3    H176891   3.651   2.200   2.507  2.0809 -0.4857 -1.3967
18492TIP3    H276892   3.570   2.090   2.442  0.2485  0.5523 -0.9451
18493TIP3   OH276893   3.910   3.966   5.156 -0.3875 -0.2881  0.1140
18493TIP3    H176894   3.941   4.023   5.086 -1.3143  1.3546  0.9456
18493TIP3    H276895   3.815   3.961   5.143 -0.2600 -2.3017 -0.3528
18494TIP3   OH276896   3.416   2.238   1.398  0.0268 -0.6394  0.7154
18494TIP3    H176897   3.336   2.250   1.346  0.7463  0.1885 -0.2319
18494TIP3    H276898   3.465   2.319   1.387  0.8920 -1.0337  1.4921
18495TIP3   OH276899   3.934   2.412   2.851  0.1081  0.3691 -0.2479
18495TIP3    H176900   3.963   2.332   2.895  0.2326  0.3931 -0.2882
18495TIP3    H276901   3.989   2.418   2.773 -0.4101  0.0783 -0.6517
18496TIP3   OH276902   1.595   1.630   3.649  0.6553 -0.0188  0.3389
18496TIP3    H176903   1.534   1.576   3.700 -0.3831 -1.7792 -2.5566
18496TIP3    H276904   1.640   1.568   3.591  2.3353  1.7681 -0.3940
18497TIP3   OH276905   4.853   4.469   5.883 -0.3807 -0.3794  0.1631
18497TIP3    H176906   4.804   4.422   5.951 -1.5692 -0.1469 -0.5088
18497TIP3    H276907   4.801   4.547   5.865  0.6220  0.2603 -0.0597
18498TIP3   OH276908   4.549   5.997   1.782  0.1922  0.1059  0.1596
18498TIP3    H176909   4.469   6.042   1.810 -0.4991 -0.7918 -0.3242
18498TIP3    H276910   4.568   6.035   1.696 -1.2182 -1.4835 -0.9171
18499TIP3   OH276911   2.049   4.672   4.953  0.4966 -0.1905  0.7872
18499TIP3    H176912   1.978   4.732   4.976 -0.8502 -1.0899 -0.8443
18499TIP3    H276913   2.019   4.586   4.983  0.9785 -0.5506  0.2574
18500TIP3   OH276914   4.401   0.120   3.781 -0.5189 -0.3984 -0.4294
18500TIP3    H176915   4.485   0.081   3.760 -0.4036 -2.1629  2.6551
18500TIP3    H276916   4.337   0.064   3.737 -0.1553 -0.2087 -1.2147
18501TIP3   OH276917   1.265   5.901   9.949  0.0060  0.3673 -0.2433
18501TIP3    H176918   1.307   5.889   9.864 -1.0021 -1.8577 -0.4940
18501TIP3    H276919   1.337   5.920  10.008  1.2165 -1.4969 -0.9940
18502TIP3   OH276920   6.953   3.250  12.574  0.3076  0.2662  0.3923
18502TIP3    H176921   6.904   3.215  12.499  0.2959  1.4329 -0.1609
18502TIP3    H276922   7.021   3.184  12.590  1.5802  0.8917 -1.9574
18503TIP3   OH276923   5.970   6.596   0.805 -0.1971  0.1302 -0.2778
18503TIP3    H176924   5.974   6.536   0.730 -0.4859  0.5652 -0.6448
18503TIP3    H276925   6.059   6.628   0.815 -0.0536 -0.3059 -0.1210
18504TIP3   OH276926   7.014   1.997   1.685 -0.3180  0.1818  0.0651
18504TIP3    H176927   7.029   1.923   1.627 -2.2417 -0.4374  0.2772
18504TIP3    H276928   6.920   2.013   1.680 -0.5912  0.1411  2.9084
18505TIP3   OH276929   6.003   5.595   1.927 -0.3608  0.3532 -0.0090
18505TIP3    H176930   5.975   5.679   1.964 -0.0193  0.7914 -0.7172
18505TIP3    H276931   5.923   5.544   1.919 -0.3749  0.0090  1.8676
18506TIP3   OH276932   2.920   6.752   4.634  0.2654  0.1879 -0.5240
18506TIP3    H176933   2.845   6.777   4.580 -0.7423  2.5164  1.7414
18506TIP3    H276934   2.941   6.831   4.683  2.1367 -1.3533  1.3143
18507TIP3   OH276935   3.466   3.171   1.659 -0.0810  0.4610 -0.1430
18507TIP3    H176936   3.430   3.090   1.695  1.9253 -0.6689 -0.5371
18507TIP3    H276937   3.457   3.162   1.564  0.5973  0.4753 -0.2116
18508TIP3   OH276938   2.610   1.564   5.463 -0.5008 -0.5300  0.0434
18508TIP3    H176939   2.652   1.642   5.499 -1.7064  0.4444 -0.6060
18508TIP3    H276940   2.630   1.495   5.526  2.0387 -0.1330 -0.2129
18509TIP3   OH276941   3.436   0.343   1.297  0.3033 -0.6142 -0.6037
18509TIP3    H176942   3.365   0.379   1.350  0.7917  0.0356 -0.3893
18509TIP3    H276943   3.516   0.371   1.341  0.7974  1.7642 -2.7856
18510TIP3   OH276944   4.997   6.913   3.178 -0.7398  0.0346 -0.1739
18510TIP3    H176945   4.993   6.998   3.223 -1.0836 -0.1925  0.2230
18510TIP3    H276946   5.083   6.878   3.202 -0.2143  0.6574 -1.0534
18511TIP3   OH276947   0.872   1.812  12.260 -0.9738 -0.0963  0.1321
18511TIP3    H176948   0.963   1.784  12.255 -1.9166 -3.4559 -0.5231
18511TIP3    H276949   0.871   1.878  12.329  1.7359 -0.9155  1.0705
18512TIP3   OH276950   3.866   0.496   3.196 -0.4142 -0.6343 -0.5246
18512TIP3    H176951   3.877   0.588   3.176  0.4734 -0.3532  1.0767
18512TIP3    H276952   3.771   0.483   3.199 -0.5392  0.2306 -0.7444
18513TIP3   OH276953   3.003   1.702  14.696 -0.0713 -0.1342  0.3568
18513TIP3    H176954   3.071   1.747  14.747  0.3546 -1.4977  1.0497
18513TIP3    H276955   2.923   1.713  14.747  0.0983 -0.4396  0.6906
18514TIP3   OH276956   2.020   2.348   5.800  0.1573  0.3079 -0.2118
18514TIP3    H176957   2.049   2.293   5.728 -2.5331  0.0137 -1.1802
18514TIP3    H276958   1.947   2.300   5.840 -0.2499  1.7512  0.8897
18515TIP3   OH276959   5.928   0.113   0.906  0.4226 -0.2256 -0.1590
18515TIP3    H176960   5.922   0.026   0.866 -1.6568  0.6138 -1.9081
18515TIP3    H276961   5.932   0.173   0.831 -1.3968  1.3327  0.8943
18516TIP3   OH276962   3.535   0.108  10.547 -0.5657  0.0562  0.0828
18516TIP3    H176963   3.445   0.122  10.576  0.1287 -0.2707  2.6001
18516TIP3    H276964   3.586   0.171  10.597  0.7135 -0.2649 -0.7679
18517TIP3   OH276965   4.985   1.308   3.726 -0.1267 -0.2986  0.0717
18517TIP3    H176966   4.979   1.390   3.677  1.7340  0.1499  0.5299
18517TIP3    H276967   5.052   1.257   3.680 -0.4165 -1.0738  0.4876
18518TIP3   OH276968   2.628   1.741   4.299 -1.1359 -0.1580  0.5566
18518TIP3    H176969   2.628   1.821   4.351  0.3103  1.8154 -2.2356
18518TIP3    H276970   2.671   1.765   4.217  0.8598 -4.2259  0.1576
18519TIP3   OH276971   6.709   5.786   3.249  0.6320  0.4382  0.0419
18519TIP3    H176972   6.775   5.775   3.181 -1.3702 -0.3996 -1.8708
18519TIP3    H276973   6.704   5.701   3.292 -0.9917 -0.3716 -1.6091
18520TIP3   OH276974   1.363   6.500   4.341  0.2003 -0.1652 -0.0199
18520TIP3    H176975   1.409   6.552   4.407  0.1984 -0.3523  0.1294
18520TIP3    H276976   1.378   6.409   4.368 -1.4574 -0.2186  0.8595
18521TIP3   OH276977   6.490   4.269   1.050 -0.5228  0.7570  0.3367
18521TIP3    H176978   6.531   4.194   1.093 -1.6063 -1.5589 -2.2900
18521TIP3    H276979   6.409   4.284   1.099 -0.6408 -0.3075  0.4955
18522TIP3   OH276980   0.665   0.038  10.980  0.0784  0.1069 -0.1116
18522TIP3    H176981   0.726  -0.032  11.002 -0.6078  0.0537  1.8617
18522TIP3    H276982   0.582  -0.006  10.962 -0.2300  0.3426  0.6527
18523TIP3   OH276983   5.241   3.047  13.273  0.0570  0.1227  0.0180
18523TIP3    H176984   5.228   3.063  13.180  0.4760 -0.8537 -0.2187
18523TIP3    H276985   5.335   3.028  13.281 -0.1086 -0.5091  0.5225
18524TIP3   OH276986   1.520   0.038   1.352 -0.2353 -0.0298 -0.1476
18524TIP3    H176987   1.485  -0.049   1.334 -0.9921  0.1426  0.4344
18524TIP3    H276988   1.443   0.090   1.375  0.3019  0.5998  0.2457
18525TIP3   OH276989   5.984   6.154  15.383 -0.1549 -0.1308 -0.3748
18525TIP3    H176990   6.026   6.236  15.409 -0.0068 -0.7526  1.5268
18525TIP3    H276991   5.967   6.164  15.289  1.0562  1.5290 -0.4648
18526TIP3   OH276992   0.013   3.531   1.314  0.4905  0.1182 -0.3630
18526TIP3    H176993  -0.019   3.620   1.328  0.7386 -0.0346  1.4649
18526TIP3    H276994  -0.065   3.476   1.322  0.6396  0.0261  0.5441
18527TIP3   OH276995   0.293   6.696  14.134 -0.0423 -0.2752 -0.2499
18527TIP3    H176996   0.198   6.705  14.134 -0.1244 -0.9596  0.2730
18527TIP3    H276997   0.318   6.693  14.042 -0.3901  1.1310 -0.3968
18528TIP3   OH276998   1.493   3.453   4.078 -0.6928  0.7543 -0.3410
18528TIP3    H176999   1.499   3.375   4.023  1.2045 -1.1099  2.2509
18528TIP3    H277000   1.551   3.516   4.037  1.4445 -0.9330 -0.0895
18529TIP3   OH277001   6.210   3.043   3.107  0.1466 -0.2657 -0.2022
18529TIP3    H177002   6.259   3.054   3.189 -1.7271 -0.8383  1.0692
18529TIP3    H277003   6.120   3.067   3.130 -0.5413 -0.9942 -1.9697
18530TIP3   OH277004   0.212   2.749   0.003  0.0912  0.2478 -0.0207
18530TIP3    H177005   0.135   2.796  -0.027  0.9677  1.1990 -0.8654
18530TIP3    H277006   0.280   2.816   0.011  0.3026 -0.1744  2.8551
18531TIP3   OH277007   3.265   2.945   4.617 -0.4538  0.1155 -0.3029
18531TIP3    H177008   3.197   2.885   4.647  0.0527 -0.6641 -0.6862
18531TIP3    H277009   3.230   2.981   4.535  1.0093 -2.9965 -2.4903
18532TIP3   OH277010   2.330   0.081   1.534  0.5703  0.2949 -0.2952
18532TIP3    H177011   2.397   0.143   1.504  0.8970 -0.0005 -0.1859
18532TIP3    H277012   2.380   0.006   1.566  0.1748 -0.0303 -0.4404
18533TIP3   OH277013   3.627   0.101   0.922  0.2610  0.2425 -0.4810
18533TIP3    H177014   3.541   0.130   0.954 -0.0857  0.1468 -1.3180
18533TIP3    H277015   3.677   0.182   0.914 -0.8646  0.7714 -3.2929
18534TIP3   OH277016   7.013   1.593   3.758 -0.2279 -0.1818 -0.3290
18534TIP3    H177017   6.989   1.629   3.673 -0.7873 -1.5702 -0.7959
18534TIP3    H277018   7.094   1.545   3.742 -0.7060 -1.0373 -0.2588
18535TIP3   OH277019   4.236   6.162   1.891  0.6508 -0.0775 -0.9869
18535TIP3    H177020   4.262   6.241   1.939  1.1529 -0.2471 -0.9699
18535TIP3    H277021   4.197   6.195   1.810 -1.7156  0.2759  0.2122
18536TIP3   OH277022   3.818   5.714   2.848 -0.1551 -0.7490 -0.0165
18536TIP3    H177023   3.792   5.722   2.940  0.6762  0.1888  0.1537
18536TIP3    H277024   3.808   5.621   2.828  0.1988 -1.0625  1.1928
18537TIP3   OH277025   2.201   2.096  14.117  0.6344 -0.0396  0.2858
18537TIP3    H177026   2.122   2.081  14.168  0.5103 -0.7532 -0.0999
18537TIP3    H277027   2.267   2.124  14.180 -0.1689  1.5049  0.4866
18538TIP3   OH277028   5.581   0.818   3.608  0.3485  0.4065  0.4179
18538TIP3    H177029   5.618   0.789   3.524 -0.3610  2.1171 -0.5295
18538TIP3    H277030   5.488   0.796   3.602  0.4819 -0.4183  1.2138
18539TIP3   OH277031   5.685   3.612   0.484 -0.4937 -0.3344 -0.1275
18539TIP3    H177032   5.656   3.615   0.393  0.0053  0.6221 -0.2715
18539TIP3    H277033   5.701   3.519   0.502  1.2761 -0.3802 -1.6458
18540TIP3   OH277034   2.341   0.585   4.973  0.4820  0.3430 -0.3273
18540TIP3    H177035   2.343   0.601   4.879  0.0900 -0.0803 -0.4131
18540TIP3    H277036   2.344   0.489   4.981 -0.0844  0.3544  0.0648
18541TIP3   OH277037   6.279   1.209  15.186  0.4849 -0.0361 -0.1613
18541TIP3    H177038   6.238   1.154  15.253  1.4378  0.4964  0.8859
18541TIP3    H277039   6.263   1.298  15.215  1.1752  0.1981 -0.4923
18542TIP3   OH277040   4.041   3.913   5.532  0.0407 -0.1220  0.1763
18542TIP3    H177041   4.129   3.903   5.566  0.2798  1.7831  0.2404
18542TIP3    H277042   3.995   3.966   5.598 -1.4342 -1.7923  0.5660
18543TIP3   OH277043   0.805   2.309   4.272  0.1057  0.5253  0.1483
18543TIP3    H177044   0.736   2.349   4.325 -0.9092  1.6504 -1.9253
18543TIP3    H277045   0.863   2.382   4.249  0.6439  0.0107 -0.1510
18544TIP3   OH277046   3.268   5.498  15.485 -0.0959  0.3909 -0.2408
18544TIP3    H177047   3.197   5.456  15.533  0.8756  0.1711  1.0717
18544TIP3    H277048   3.262   5.463  15.396 -1.3070  0.0070 -0.0159
18545TIP3   OH277049   0.702   7.132   3.947 -0.1154  0.4057  0.4281
18545TIP3    H177050   0.745   7.185   3.880 -2.5346 -0.7218 -2.2652
18545TIP3    H277051   0.747   7.048   3.944 -2.3867 -0.9203 -2.6902
18546TIP3   OH277052   6.989   2.756   1.146 -0.0186 -0.1251  0.4319
18546TIP3    H177053   6.964   2.675   1.101 -0.8013  0.1621  0.3427
18546TIP3    H277054   6.960   2.825   1.086  0.3087  0.2280  0.6841
18547TIP3   OH277055   5.116   1.876   2.758  0.1847  0.0346 -0.2632
18547TIP3    H177056   5.041   1.819   2.741 -0.2653  0.4706  0.1836
18547TIP3    H277057   5.076   1.961   2.780  0.8250  0.3978 -0.4800
18548TIP3   OH277058   5.353   1.504   3.173  0.4099 -0.4471 -0.4200
18548TIP3    H177059   5.290   1.573   3.154  0.9191  0.8267  2.0459
18548TIP3    H277060   5.402   1.492   3.092  0.1774  1.9905 -0.9696
18549TIP3   OH277061   0.980   5.737   4.190  0.3016  0.2441 -0.1693
18549TIP3    H177062   0.949   5.709   4.104 -0.8945 -0.5150  0.5036
18549TIP3    H277063   0.902   5.767   4.236  1.0389  1.4106  0.3999
18550TIP3   OH277064   2.014   5.028   2.447  0.0598 -0.2630 -0.1677
18550TIP3    H177065   2.042   5.078   2.370  2.2778 -0.5417  0.4068
18550TIP3    H277066   1.992   5.095   2.512 -1.1689 -0.0376 -0.7809
18551TIP3   OH277067   6.619   2.815   1.623 -0.3886 -0.2615 -0.1214
18551TIP3    H177068   6.596   2.844   1.711  2.0852 -0.7034  0.7570
18551TIP3    H277069   6.711   2.839   1.613 -0.6232 -0.1577 -2.6387
18552TIP3   OH277070   6.062   4.211   4.048  0.1338  0.2134 -0.7572
18552TIP3    H177071   6.074   4.119   4.025 -0.1804 -0.3402  1.1011
18552TIP3    H277072   5.994   4.242   3.988  0.0484 -0.8381 -1.2285
18553TIP3   OH277073   5.781   1.425  12.297 -0.1999  0.0380 -0.2094
18553TIP3    H177074   5.874   1.433  12.276 -0.0583 -2.2510 -0.7793
18553TIP3    H277075   5.737   1.430  12.212 -0.5684  0.7040  0.0165
18554TIP3   OH277076   4.783   5.548  11.058 -0.8819  0.2137  0.1077
18554TIP3    H177077   4.850   5.490  11.095 -0.1788  1.2827  0.5352
18554TIP3    H277078   4.700   5.512  11.091 -0.3766  0.1058  1.3067
18555TIP3   OH277079   4.323   6.773   0.605 -0.1232 -0.0644 -0.0066
18555TIP3    H177080   4.394   6.731   0.654  1.2669  0.9925 -1.0411
18555TIP3    H277081   4.323   6.728   0.520 -0.6377 -0.0018 -0.0405
18556TIP3   OH277082   1.787   0.259   2.133  0.0926 -0.0005  0.4233
18556TIP3    H177083   1.790   0.190   2.067 -0.7200  0.4500 -0.1014
18556TIP3    H277084   1.867   0.309   2.119  1.0864 -1.2671  1.3122
18557TIP3   OH277085   6.580   0.395   4.443 -0.4520  0.0764 -0.4031
18557TIP3    H177086   6.523   0.369   4.516  0.0600 -0.7914 -0.3024
18557TIP3    H277087   6.654   0.438   4.486 -0.0039 -0.7085 -0.3935
18558TIP3   OH277088   2.923   6.337   5.486 -0.3229  0.0972  0.2851
18558TIP3    H177089   2.903   6.430   5.485 -1.3640 -0.0855 -1.6494
18558TIP3    H277090   2.854   6.297   5.432  0.6063 -1.6780  0.3199
18559TIP3   OH277091   2.165   5.182   4.565  0.0805 -0.4154  0.2089
18559TIP3    H177092   2.079   5.143   4.578 -1.2633  2.2747  0.1680
18559TIP3    H277093   2.170   5.197   4.470  0.5506 -0.4621  0.2267
18560TIP3   OH277094   4.590   4.770  14.795 -0.4004  0.1404  0.0249
18560TIP3    H177095   4.605   4.694  14.851 -0.1279 -0.3777 -0.7251
18560TIP3    H277096   4.624   4.743  14.709  1.7520  1.8827  0.2236
18561TIP3   OH277097   3.252   4.993   3.786 -0.0270 -0.2744 -0.5443
18561TIP3    H177098   3.214   5.057   3.726 -0.1612 -1.9444 -2.3434
18561TIP3    H277099   3.344   4.989   3.763  0.0520 -0.4857 -0.2075
18562TIP3   OH277100   6.966   0.899   2.396  0.0957  0.8392 -0.5676
18562TIP3    H177101   6.935   0.989   2.405 -0.7751  0.5163 -0.1500
18562TIP3    H277102   7.057   0.907   2.368 -0.2170  1.8353 -1.3439
18563TIP3   OH277103   6.229   5.492   4.087 -0.2134 -0.6400 -0.3131
18563TIP3    H177104   6.233   5.476   3.992 -0.6629  0.6526 -0.5660
18563TIP3    H277105   6.289   5.565   4.101 -0.9486 -0.1245  0.2325
18564TIP3   OH277106   4.625   1.481   3.030 -0.0064  0.1513 -0.1441
18564TIP3    H177107   4.601   1.432   3.109 -1.7043  0.8607 -0.1956
18564TIP3    H277108   4.717   1.458   3.016  0.0005 -0.9186  1.3536
18565TIP3   OH277109   0.959   4.570   2.416 -0.1150  0.1944 -0.1572
18565TIP3    H177110   1.012   4.615   2.482  0.8819 -0.8558 -0.2176
18565TIP3    H277111   0.901   4.513   2.466  0.5012 -0.4501 -0.1538
18566TIP3   OH277112   1.294   0.708  12.441 -0.2022 -0.4111  0.2021
18566TIP3    H177113   1.306   0.797  12.475 -0.5435 -0.6688  1.0421
18566TIP3    H277114   1.223   0.716  12.378  2.1429  0.5599 -2.5026
18567TIP3   OH277115   1.489   4.578   1.221  0.3921  0.1359  0.1338
18567TIP3    H177116   1.403   4.540   1.234 -0.2634  1.4439 -0.1717
18567TIP3    H277117   1.549   4.521   1.269 -0.5654 -1.0873 -0.1005
18568TIP3   OH277118   5.370   1.183   0.584  0.9820  0.4997  0.0416
18568TIP3    H177119   5.383   1.108   0.526  0.0762 -0.2402  0.7747
18568TIP3    H277120   5.435   1.169   0.654 -0.9646 -1.1259  1.6440
18569TIP3   OH277121   7.010   5.300   4.537  0.2239 -0.7881 -0.0913
18569TIP3    H177122   7.060   5.285   4.457 -0.0519 -0.8806 -0.2474
18569TIP3    H277123   6.938   5.357   4.509 -0.0617 -1.0913  0.0219
18570TIP3   OH277124   1.505   3.612   0.500  0.2947  0.1010  0.2494
18570TIP3    H177125   1.512   3.521   0.531 -0.0473  0.0762  0.2491
18570TIP3    H277126   1.548   3.611   0.415 -1.3007 -0.4595 -0.5814
18571TIP3   OH277127   2.186   0.677  12.889  0.0171  0.4575  0.2919
18571TIP3    H177128   2.187   0.723  12.972 -1.0498  1.6204 -0.3013
18571TIP3    H277129   2.266   0.626  12.888  1.2146  2.2488  1.0361
18572TIP3   OH277130   0.318   4.102   4.655 -0.0426 -0.3872 -0.5461
18572TIP3    H177131   0.358   4.119   4.740  3.7676 -1.4559 -1.9534
18572TIP3    H277132   0.264   4.024   4.669 -1.3996  0.7921  1.3013
18573TIP3   OH277133   6.230   1.920   1.524 -0.0471  0.0775  0.4491
18573TIP3    H177134   6.152   1.871   1.549 -1.3205  0.4445 -2.4874
18573TIP3    H277135   6.199   1.988   1.465  2.3121  1.3505  0.5265
18574TIP3   OH277136   1.677   2.984   1.740  0.2463 -0.4857  0.5331
18574TIP3    H177137   1.768   3.002   1.761  0.9558  0.6135 -2.8250
18574TIP3    H277138   1.633   3.069   1.750 -0.2746 -0.8629  1.5082
18575TIP3   OH277139   3.525   3.278   3.024  0.1917 -0.2415  0.0982
18575TIP3    H177140   3.511   3.185   3.040 -0.6834 -0.1501 -0.1055
18575TIP3    H277141   3.450   3.305   2.971 -0.2372  0.8739  1.2457
18576TIP3   OH277142   3.687   1.757   4.865 -0.1436 -0.3603  0.0658
18576TIP3    H177143   3.622   1.819   4.830 -1.1765 -1.6133 -0.2866
18576TIP3    H277144   3.771   1.797   4.843 -0.7617  1.3142  0.5535
18577TIP3   OH277145   4.425   4.001   1.153 -0.3888 -0.2120 -0.1675
18577TIP3    H177146   4.429   3.985   1.058 -2.8167  1.5131 -0.6506
18577TIP3    H277147   4.466   3.923   1.191  1.6948 -0.4788 -2.6091
18578TIP3   OH277148   4.383   2.064   4.717  0.2831 -0.7422  0.1527
18578TIP3    H177149   4.413   1.976   4.740  0.6356 -0.7253 -0.2348
18578TIP3    H277150   4.449   2.097   4.656 -1.4085 -1.4172 -2.1723
18579TIP3   OH277151   6.062   2.725   1.202 -0.2189  0.1526 -0.0792
18579TIP3    H177152   6.132   2.741   1.139 -0.0196 -0.0033  0.1013
18579TIP3    H277153   5.997   2.674   1.153 -0.2719  0.4167 -0.2853
18580TIP3   OH277154   0.805   1.133   1.087 -0.3990  0.1890 -0.1833
18580TIP3    H177155   0.868   1.086   1.032 -0.6405 -0.8768  0.4242
18580TIP3    H277156   0.779   1.208   1.034  1.0056  0.3806 -0.6406
18581TIP3   OH277157   0.923   3.814  12.021  0.1232 -0.1184  0.0623
18581TIP3    H177158   0.888   3.727  12.003 -0.1659 -0.2992  1.3844
18581TIP3    H277159   1.008   3.798  12.062 -0.0159  0.2180  0.4859
18582TIP3   OH277160   2.633   0.354   5.695 -0.7229 -0.2814  0.2474
18582TIP3    H177161   2.724   0.363   5.721 -0.9292  0.4118  0.7490
18582TIP3    H277162   2.635   0.301   5.616  0.0907 -0.5163  0.4232
18583TIP3   OH277163   3.754   4.101   1.684  0.3251 -0.1576 -0.7294
18583TIP3    H177164   3.829   4.158   1.703  0.2622 -0.4811  0.5634
18583TIP3    H277165   3.777   4.017   1.723 -0.4648 -0.4295 -0.8387
18584TIP3   OH277166   2.969   5.228  10.839  0.0615  0.7514  0.1883
18584TIP3    H177167   2.917   5.221  10.919 -0.0230  1.6837  0.2190
18584TIP3    H277168   3.002   5.139  10.825 -0.6158  0.3923  0.7853
18585TIP3   OH277169   3.486   2.540   1.486 -0.1925 -0.7926 -0.4805
18585TIP3    H177170   3.394   2.521   1.508  0.6066 -1.5534  2.7942
18585TIP3    H277171   3.492   2.635   1.489 -0.8186 -0.7500 -0.3942
18586TIP3   OH277172   0.789   6.340   4.057 -0.0630 -0.2444  0.6553
18586TIP3    H177173   0.745   6.280   4.117 -1.4900  0.5883  0.4913
18586TIP3    H277174   0.742   6.331   3.974 -0.5604  1.3452  0.7325
18587TIP3   OH277175   3.884   1.101   1.364  0.2410  0.1302 -0.2758
18587TIP3    H177176   3.887   1.050   1.445  0.8142  0.9572  0.2472
18587TIP3    H277177   3.790   1.112   1.346  0.1095 -1.1795 -0.4698
18588TIP3   OH277178   5.197   0.135   3.085 -0.4523  0.1443  0.0830
18588TIP3    H177179   5.264   0.184   3.133 -0.4153  1.6546 -1.4153
18588TIP3    H277180   5.181   0.187   3.007 -2.3732 -0.9259 -0.2937
18589TIP3   OH277181   5.554   4.341   4.843 -0.0067  0.0113 -0.2520
18589TIP3    H177182   5.612   4.411   4.813 -0.2601  0.0032 -0.7839
18589TIP3    H277183   5.466   4.380   4.839  0.0054  0.2189  1.1188
18590TIP3   OH277184   3.105   5.689   0.220  0.0932  0.0942 -0.7763
18590TIP3    H177185   3.015   5.713   0.238  0.2092  0.7856 -1.1122
18590TIP3    H277186   3.099   5.601   0.182 -0.3899 -0.0702 -0.3387
18591TIP3   OH277187   3.030   3.209   0.461 -0.0067  0.1880  0.6551
18591TIP3    H177188   3.081   3.235   0.384 -0.9776 -1.0486 -0.4549
18591TIP3    H277189   2.947   3.178   0.425 -0.1258 -1.3131  2.1341
18592TIP3   OH277190   3.607   7.089   4.211  1.2168  0.5104  0.2067
18592TIP3    H177191   3.551   7.012   4.199  1.2707  0.6248 -0.9360
18592TIP3    H277192   3.684   7.055   4.257  1.1792 -0.1048 -0.1675
18593TIP3   OH277193   3.674   3.895   4.295 -0.5834 -0.2949  0.4140
18593TIP3    H177194   3.688   3.923   4.386 -2.2658 -0.5061  0.7713
18593TIP3    H277195   3.723   3.814   4.287 -1.1158 -0.7435  1.4321
18594TIP3   OH277196   6.245   4.243   3.221 -0.0670  0.2931  0.0673
18594TIP3    H177197   6.262   4.150   3.231  0.5124  0.5042  1.4405
18594TIP3    H277198   6.150   4.250   3.213 -0.0013 -0.5150 -1.7209
18595TIP3   OH277199   3.399   1.983   2.754  0.3576  0.4604  0.0062
18595TIP3    H177200   3.429   2.074   2.752  0.3765  0.5104  1.3028
18595TIP3    H277201   3.304   1.989   2.743  0.4141  0.5862 -0.4481
18596TIP3   OH277202   3.073   3.020  14.470 -0.3343  0.7384 -0.3152
18596TIP3    H177203   3.026   2.939  14.488  0.3945  0.3707 -0.0342
18596TIP3    H277204   3.012   3.073  14.418 -1.1041  0.3376  0.1830
18597TIP3   OH277205   6.403   4.323   3.012 -0.0995 -0.9041  0.6908
18597TIP3    H177206   6.446   4.239   2.999  0.6591 -0.5558  0.8895
18597TIP3    H277207   6.322   4.302   3.059 -0.0100 -1.5393  0.5624
18598TIP3   OH277208   2.962   6.634   3.621 -0.6117 -0.3003  0.2950
18598TIP3    H177209   2.907   6.591   3.555 -0.8679  1.0960 -0.4558
18598TIP3    H277210   2.902   6.650   3.694 -0.8003 -0.2653  0.1374
18599TIP3   OH277211   3.963   6.703  14.502 -0.5247  0.0349  0.5690
18599TIP3    H177212   3.957   6.797  14.489  2.2973  0.5466  2.1308
18599TIP3    H277213   3.872   6.672  14.500 -1.5209  2.7578  0.0974
18600TIP3   OH277214   2.559   1.389  14.169 -0.2800 -0.7554 -0.1563
18600TIP3    H177215   2.611   1.370  14.248 -0.1542  0.5433  0.0975
18600TIP3    H277216   2.549   1.485  14.170 -0.2731 -0.7236 -1.7267
18601TIP3   OH277217   4.142   1.016  13.555  0.1175 -0.3709  0.1021
18601TIP3    H177218   4.223   0.967  13.541  0.4282  0.1179  0.1925
18601TIP3    H277219   4.130   1.066  13.475 -0.1105 -0.4598  0.0792
18602TIP3   OH277220   3.122   1.805  10.790  1.1678 -0.4913  0.3111
18602TIP3    H177221   3.146   1.792  10.698 -0.4397 -1.0166 -0.0752
18602TIP3    H277222   3.119   1.716  10.827  0.2002 -0.4178  0.4248
18603TIP3   OH277223   6.152   4.266   5.436  0.1015  0.5775  0.5364
18603TIP3    H177224   6.183   4.351   5.405 -0.3840  0.4393 -0.3561
18603TIP3    H277225   6.207   4.247   5.513  1.1024  1.0930 -0.0298
18604TIP3   OH277226   4.681   3.091   3.236 -0.1407 -0.1621 -0.9494
18604TIP3    H177227   4.752   3.104   3.173  0.2085 -1.5045 -0.8598
18604TIP3    H277228   4.726   3.081   3.320 -0.4527 -0.6422 -0.8378
18605TIP3   OH277229   2.104   5.432   0.170  0.1212 -0.2330 -0.4142
18605TIP3    H177230   2.107   5.439   0.265  0.3979  1.5301 -0.5157
18605TIP3    H277231   2.163   5.359   0.149  1.0651  0.1747  0.7047
18606TIP3   OH277232   4.048   1.862   1.087 -0.0123  0.2842  0.0716
18606TIP3    H177233   3.954   1.872   1.072  0.2247 -0.7835 -2.5923
18606TIP3    H277234   4.088   1.920   1.023  1.1846  0.4703  0.9571
18607TIP3   OH277235   3.697   5.433   1.318  0.5973 -0.6429 -0.7709
18607TIP3    H177236   3.776   5.466   1.361 -0.6652 -0.2806  1.4531
18607TIP3    H277237   3.720   5.427   1.225  2.9783  0.1257 -0.2901
18608TIP3   OH277238   0.205   0.054   1.270  0.3976 -0.7678  0.1272
18608TIP3    H177239   0.115   0.086   1.256 -0.5285 -2.2466  2.0892
18608TIP3    H277240   0.212   0.047   1.366  1.9545 -2.4493 -0.0711
18609TIP3   OH277241   0.969   3.089   4.908 -0.1024  0.5505  0.6526
18609TIP3    H177242   0.885   3.047   4.891 -0.0780  1.0295 -0.7691
18609TIP3    H277243   0.964   3.115   5.000 -1.0043 -0.5319  0.9327
18610TIP3   OH277244   6.715   4.568   3.190  0.7271 -0.7072 -0.5267
18610TIP3    H177245   6.693   4.493   3.245  3.2921 -0.7930  0.4972
18610TIP3    H277246   6.807   4.585   3.207  0.9967  0.8491 -2.9722
18611TIP3   OH277247   3.306   0.477   4.889  0.2983 -0.0367  0.3684
18611TIP3    H177248   3.321   0.520   4.804  0.1964 -0.5449  0.0876
18611TIP3    H277249   3.324   0.545   4.954  0.2042  0.4098 -0.0665
18612TIP3   OH277250   3.831   6.742   3.737 -0.0470  0.7761 -0.8917
18612TIP3    H177251   3.787   6.797   3.802 -1.5223 -0.9565 -0.3247
18612TIP3    H277252   3.924   6.749   3.759 -0.2684  2.3218 -0.3104
18613TIP3   OH277253   6.099   2.395   2.775  0.2939 -0.2812  0.1483
18613TIP3    H177254   6.038   2.458   2.736  0.5782  0.5217  0.9640
18613TIP3    H277255   6.051   2.359   2.850 -0.0369 -1.3876 -0.5773
18614TIP3   OH277256   1.897   1.453   1.676 -0.0175 -0.4928  0.5933
18614TIP3    H177257   1.949   1.486   1.602  0.7850 -0.0924  1.3195
18614TIP3    H277258   1.812   1.433   1.638 -0.0941  1.1132 -0.1736
18615TIP3   OH277259   2.329   3.523   3.630  0.0542 -0.5014 -0.1292
18615TIP3    H177260   2.323   3.574   3.550  2.9574  0.7044  0.3281
18615TIP3    H277261   2.376   3.443   3.604  1.2739  0.0309  0.3979
18616TIP3   OH277262   3.982   1.335  14.184 -0.1054 -0.5083 -0.7630
18616TIP3    H177263   3.894   1.359  14.213 -0.1414 -1.3646 -0.1119
18616TIP3    H277264   3.969   1.264  14.121  0.1415 -1.4638  0.2172
18617TIP3   OH277265   6.176   1.274   2.335  0.5772  0.1488 -0.4688
18617TIP3    H177266   6.194   1.336   2.264 -1.7407  0.3655 -0.9216
18617TIP3    H277267   6.178   1.188   2.293 -1.8605  0.3375 -1.1220
18618TIP3   OH277268   2.086   3.224   3.926 -0.0559 -1.2667 -0.1694
18618TIP3    H177269   2.037   3.279   3.865  0.1861  0.6290  1.2371
18618TIP3    H277270   2.175   3.261   3.925 -0.1615 -0.8561  1.6231
18619TIP3   OH277271   1.147   6.161   1.930 -0.0156  0.0874 -0.0215
18619TIP3    H177272   1.207   6.087   1.920  0.4981  0.6269 -1.1703
18619TIP3    H277273   1.067   6.122   1.966  0.1379 -1.1052 -0.8876
18620TIP3   OH277274   6.867   3.910  10.807  0.0041  0.0220 -0.6707
18620TIP3    H177275   6.818   3.991  10.805 -0.5475 -0.2911 -0.0777
18620TIP3    H277276   6.827   3.856  10.738  2.4342  1.3801 -3.3692
18621TIP3   OH277277   7.148   3.739  13.304 -0.7265 -0.6711  0.2264
18621TIP3    H177278   7.125   3.772  13.391  1.5514  0.8165  0.3367
18621TIP3    H277279   7.087   3.782  13.244 -2.6091 -2.0466  1.0593
18622TIP3   OH277280   3.288   1.547   0.646  0.0403  0.2926  0.2084
18622TIP3    H177281   3.269   1.638   0.622  0.9513  0.1231 -1.2482
18622TIP3    H277282   3.382   1.536   0.629 -0.5214 -1.6308 -2.1359
18623TIP3   OH277283   1.037   3.024   1.991 -0.0076  0.0323 -0.1285
18623TIP3    H177284   1.120   3.072   1.985  0.3230 -0.5187  0.0071
18623TIP3    H277285   0.976   3.087   2.030  0.3726  0.4049 -0.1294
18624TIP3   OH277286   1.172   0.158  13.899  0.1678  0.0148  0.0644
18624TIP3    H177287   1.128   0.073  13.901 -1.7550  0.9581  1.6770
18624TIP3    H277288   1.123   0.210  13.836 -0.2736  0.6754  0.9251
18625TIP3   OH277289   3.209   2.083   3.750 -0.3895  0.1676  0.2351
18625TIP3    H177290   3.201   2.143   3.676  0.2028  0.4882  0.4219
18625TIP3    H277291   3.166   2.128   3.823  1.0904  0.9175  0.6808
18626TIP3   OH277292   6.276   0.189   4.501  0.1209  0.9778  0.2723
18626TIP3    H177293   6.267   0.174   4.407  1.0155  0.4674  0.2525
18626TIP3    H277294   6.274   0.101   4.540  1.5174  1.0420  0.5422
18627TIP3   OH277295   2.952   0.038   3.533 -0.4054  0.2555 -0.2866
18627TIP3    H177296   2.858   0.050   3.551 -0.3785  1.6158 -0.9322
18627TIP3    H277297   2.995   0.102   3.590  0.0697  0.2224 -0.6064
18628TIP3   OH277298   6.887   6.177   6.015 -0.0862  0.3211 -0.1410
18628TIP3    H177299   6.924   6.248   6.067 -0.6888  0.3744  0.2238
18628TIP3    H277300   6.932   6.182   5.931  2.1413 -0.7994  0.8977
18629TIP3   OH277301   3.906   3.029  13.888  0.3790  0.1979 -0.1405
18629TIP3    H177302   3.927   2.994  13.974  0.4370  2.0856  0.6778
18629TIP3    H277303   3.845   3.101  13.906  1.1792  1.2909 -1.5618
18630TIP3   OH277304   0.225   1.757   0.063 -0.6885 -0.2511 -0.1260
18630TIP3    H177305   0.218   1.848   0.034  2.2839  0.5605  1.2793
18630TIP3    H277306   0.277   1.714  -0.005  0.0900 -0.2098  0.4305
18631TIP3   OH277307   0.398   6.103   4.789  0.0021  0.8046 -0.3159
18631TIP3    H177308   0.429   6.133   4.704  1.1487  0.1984 -0.1256
18631TIP3    H277309   0.456   6.146   4.852  1.0787 -1.0237  0.0058
18632TIP3   OH277310   0.149   4.774   5.970 -0.4289  0.3612 -0.1646
18632TIP3    H177311   0.153   4.827   6.049  3.5940 -0.9753  0.7358
18632TIP3    H277312   0.128   4.836   5.900  0.2484  2.3895  1.3433
18633TIP3   OH277313   4.550   7.010   0.964  0.1496 -0.0070  0.3183
18633TIP3    H177314   4.527   7.051   0.880 -0.2698  0.3373  0.5932
18633TIP3    H277315   4.467   6.976   0.998  0.5853 -1.6760 -0.1961
18634TIP3   OH277316   3.539   0.909   2.257  0.4842  0.0277  0.3775
18634TIP3    H177317   3.549   0.846   2.187  1.1265 -0.1801  0.6510
18634TIP3    H277318   3.451   0.946   2.244  0.9087  0.6013 -1.0244
18635TIP3   OH277319   0.832   5.765   1.491  0.4651  0.0030  0.1534
18635TIP3    H177320   0.758   5.805   1.445  0.6117 -0.7220 -0.7277
18635TIP3    H277321   0.902   5.829   1.483  0.4023  0.0055 -0.3816
18636TIP3   OH277322   4.332   1.825  14.522 -0.3377  1.0710 -0.8218
18636TIP3    H177323   4.406   1.845  14.465  1.1876 -0.5794  0.4623
18636TIP3    H277324   4.315   1.732  14.508 -1.1085  1.0575  0.0751
18637TIP3   OH277325   3.496   5.704   2.769 -0.2183 -0.4455  0.8545
18637TIP3    H177326   3.579   5.748   2.755  0.0617 -1.1708  0.1856
18637TIP3    H277327   3.446   5.764   2.825 -0.3789  1.3525 -1.1252
18638TIP3   OH277328   6.201   4.433  12.467 -0.0139  0.3500 -0.4670
18638TIP3    H177329   6.173   4.508  12.519  1.0195  1.4337 -1.4093
18638TIP3    H277330   6.120   4.386  12.449 -0.4033 -0.1232  2.1227
18639TIP3   OH277331   3.558   4.056  15.445  0.2722  0.7038  0.2721
18639TIP3    H177332   3.557   4.135  15.391 -0.9016 -1.6415 -3.5222
18639TIP3    H277333   3.651   4.040  15.461  0.6628  1.6488 -0.8428
18640TIP3   OH277334   5.035   6.414   5.033  0.8878 -0.2696  0.0632
18640TIP3    H177335   5.127   6.422   5.008  0.7017 -1.6471 -1.1840
18640TIP3    H277336   5.026   6.474   5.107  2.5264  0.6788 -0.4333
18641TIP3   OH277337   0.456   4.041   1.513  0.3567 -0.7026 -0.6065
18641TIP3    H177338   0.515   4.102   1.557 -1.4506  0.2611  0.5948
18641TIP3    H277339   0.408   4.095   1.450 -2.0199 -0.5600  1.2124
18642TIP3   OH277340   6.151   5.738   3.192  0.0093 -0.0659 -0.0478
18642TIP3    H177341   6.108   5.672   3.136 -0.0244 -0.8428  0.8651
18642TIP3    H277342   6.193   5.798   3.131 -2.6007  0.9037 -1.0191
18643TIP3   OH277343   4.254   3.069   4.603  0.2531 -0.8943 -0.3661
18643TIP3    H177344   4.189   3.116   4.656  0.4045  1.6943 -2.2692
18643TIP3    H277345   4.203   3.016   4.543  0.0339 -1.7995  0.5905
18644TIP3   OH277346   5.634   3.347   4.104  0.2920 -0.6089  0.2137
18644TIP3    H177347   5.716   3.299   4.092  0.3569 -0.6551  0.7983
18644TIP3    H277348   5.568   3.278   4.115  0.5149 -0.6000  1.9306
18645TIP3   OH277349   5.665   6.007  15.104 -0.5829  0.5714 -0.0977
18645TIP3    H177350   5.616   6.089  15.107  1.0053  1.5752 -0.3026
18645TIP3    H277351   5.757   6.034  15.093  0.1693 -1.1829  1.3374
18646TIP3   OH277352   4.926   0.451   2.953  0.1628 -0.2796 -0.0755
18646TIP3    H177353   4.981   0.382   2.915  0.8775 -0.0473  0.5303
18646TIP3    H277354   4.844   0.405   2.976 -0.1159 -0.5129 -1.4537
18647TIP3   OH277355   4.133   3.972   3.027 -0.2855  0.0680  0.1853
18647TIP3    H177356   4.216   3.974   3.076  0.1637  1.6804 -0.5847
18647TIP3    H277357   4.141   4.043   2.964 -1.1854 -1.4026 -1.7070
18648TIP3   OH277358   5.221   2.716   3.599 -0.1497 -0.0319  0.3309
18648TIP3    H177359   5.141   2.749   3.641  0.4568  0.8794  0.7874
18648TIP3    H277360   5.196   2.703   3.508 -0.7934  0.3501  0.4418
18649TIP3   OH277361   2.661   1.351   5.611 -0.1132  0.1499  0.3641
18649TIP3    H177362   2.706   1.357   5.695  1.2677  1.0728 -0.3863
18649TIP3    H277363   2.662   1.258   5.589  0.0386 -0.0248  1.1088
18650TIP3   OH277364   1.806   0.992   3.897 -0.5945  0.8603  0.4715
18650TIP3    H177365   1.829   0.914   3.846  1.2414  2.2877 -1.0182
18650TIP3    H277366   1.737   1.034   3.846 -0.2257  1.1979  0.2447
18651TIP3   OH277367   2.281   0.021   3.986  0.5158 -0.0928 -0.3304
18651TIP3    H177368   2.201   0.064   4.015  0.7864  0.2705 -0.1185
18651TIP3    H277369   2.251  -0.044   3.922 -0.0961 -1.0147  0.8662
18652TIP3   OH277370   1.009   5.008  14.348  0.2201 -0.1163  0.2320
18652TIP3    H177371   1.004   4.916  14.374  0.3593 -0.4034 -0.6955
18652TIP3    H277372   1.039   5.054  14.426  0.7044 -0.9435  0.5479
18653TIP3   OH277373   4.830   2.261   3.464  0.0658  0.1500 -0.4988
18653TIP3    H177374   4.777   2.204   3.409  0.3314  1.3325 -2.0359
18653TIP3    H277375   4.895   2.298   3.405  0.7320  1.0192  0.7386
18654TIP3   OH277376   1.403   5.686   3.328 -0.2850  0.1459  0.3981
18654TIP3    H177377   1.448   5.691   3.244  0.4026  1.7185  0.8175
18654TIP3    H277378   1.323   5.737   3.316 -0.0956  0.5302  0.7437
18655TIP3   OH277379   4.053   4.865  12.514  0.0378 -0.4071 -0.1885
18655TIP3    H177380   3.973   4.856  12.461  0.2940 -1.2429 -0.4468
18655TIP3    H277381   4.108   4.791  12.487  1.3553  0.7366 -0.7829
18656TIP3   OH277382   6.181   4.205  11.635 -0.6445  0.1275  0.3327
18656TIP3    H177383   6.210   4.119  11.605 -0.5464  0.4736 -0.5937
18656TIP3    H277384   6.239   4.267  11.590 -0.5137  0.6694  1.2184
18657TIP3   OH277385   4.832   0.639   3.765  0.1817  0.2904 -0.6132
18657TIP3    H177386   4.860   0.670   3.852 -0.7028  1.1959 -0.6286
18657TIP3    H277387   4.912   0.641   3.712  0.6518  0.1127  0.0751
18658TIP3   OH277388   2.840   4.959   1.630  0.2384 -0.0903 -0.4413
18658TIP3    H177389   2.877   4.961   1.719 -0.0574 -0.1643 -0.3148
18658TIP3    H277390   2.842   4.867   1.605  2.9584  0.2178 -1.6392
18659TIP3   OH277391   5.313   4.211   2.477  0.3223 -0.3453 -0.0253
18659TIP3    H177392   5.358   4.243   2.398  0.4243 -2.2655 -0.7995
18659TIP3    H277393   5.301   4.117   2.461  0.4716 -0.8213  2.3256
18660TIP3   OH277394   5.267   5.114   3.241 -0.4540  0.2522 -0.0666
18660TIP3    H177395   5.354   5.152   3.226 -0.1811 -0.5440 -0.6002
18660TIP3    H277396   5.277   5.022   3.215 -1.5491  0.2340 -0.4579
18661TIP3   OH277397   5.557   3.860   3.713 -0.0213  0.0135  0.4245
18661TIP3    H177398   5.485   3.855   3.775 -1.1522  1.1813 -0.7446
18661TIP3    H277399   5.528   3.921   3.646  1.7314 -0.1093 -0.5261
18662TIP3   OH277400   1.514   5.690   3.084 -0.2834  0.0209 -0.4120
18662TIP3    H177401   1.551   5.778   3.078  0.3166 -0.3389 -2.9511
18662TIP3    H277402   1.587   5.635   3.112 -0.8044  0.3319  1.7945
18663TIP3   OH277403   0.286   0.789   4.464  0.5754 -0.1424 -0.5931
18663TIP3    H177404   0.274   0.848   4.389  1.7565 -0.1193 -0.7801
18663TIP3    H277405   0.238   0.832   4.536 -0.7689 -0.2761 -1.3630
18664TIP3   OH277406   6.613   6.223  11.674 -0.0855 -0.0898 -0.6086
18664TIP3    H177407   6.654   6.192  11.593  2.1710  0.2565  0.3199
18664TIP3    H277408   6.650   6.310  11.687 -1.0213  0.1719  0.4248
18665TIP3   OH277409   5.271   4.705  13.050 -0.1838  0.5778 -0.3547
18665TIP3    H177410   5.204   4.773  13.054  0.1185  0.8797 -0.3775
18665TIP3    H277411   5.354   4.752  13.059 -0.0403 -0.0030  2.1042
18666TIP3   OH277412   4.627   6.024   0.499  0.2036  0.0175 -0.0915
18666TIP3    H177413   4.688   5.950   0.500 -1.1800 -1.1473  0.5783
18666TIP3    H277414   4.623   6.054   0.590 -0.8543 -0.4654  0.0344
18667TIP3   OH277415   6.910   4.088   3.298  0.1137 -0.8952 -0.2380
18667TIP3    H177416   6.927   4.015   3.238  1.2987 -0.6968 -0.1589
18667TIP3    H277417   6.866   4.047   3.373 -1.0554 -1.1994 -1.0517
18668TIP3   OH277418   2.979   6.317   3.656  0.0709 -0.3171 -0.1160
18668TIP3    H177419   3.011   6.406   3.670 -1.3359  0.5302 -1.8028
18668TIP3    H277420   3.058   6.263   3.652  0.8934  0.4688  2.8030
18669TIP3   OH277421   7.008   5.070  15.442  0.1433  0.2493 -0.0529
18669TIP3    H177422   7.092   5.076  15.488  0.8892 -0.0942 -1.3163
18669TIP3    H277423   7.004   4.979  15.412 -0.6198  0.2988 -0.1123
18670TIP3   OH277424   4.870   3.184  11.216 -0.8237 -0.2561 -1.0066
18670TIP3    H177425   4.859   3.217  11.127 -2.2321  3.3139  0.3044
18670TIP3    H277426   4.781   3.160  11.243 -0.5725 -0.3170 -0.2285
18671TIP3   OH277427   0.115   4.100   4.452  0.0213  0.5355  0.2485
18671TIP3    H177428   0.161   4.119   4.370 -1.3369 -0.5829 -0.8249
18671TIP3    H277429   0.184   4.075   4.513  1.2068  2.6788 -0.1023
18672TIP3   OH277430   4.714   5.214   4.527 -0.5354 -0.1903 -0.4200
18672TIP3    H177431   4.741   5.134   4.573  0.3096  0.1473 -0.3140
18672TIP3    H277432   4.786   5.276   4.543 -0.1787 -0.0834 -2.2381
18673TIP3   OH277433   6.924   0.575  12.786 -0.8210  0.0674  0.2114
18673TIP3    H177434   6.938   0.497  12.839  1.0269 -0.2164 -0.6385
18673TIP3    H277435   6.978   0.643  12.828 -0.2587  0.1455 -0.6194
18674TIP3   OH277436   3.639   0.125   5.242 -0.1205  0.4172 -1.2022
18674TIP3    H177437   3.575   0.061   5.273  0.6702 -0.4333 -1.2920
18674TIP3    H277438   3.671   0.167   5.322  2.0394 -1.8959 -0.7375
18675TIP3   OH277439   5.596   1.195   1.818 -0.1492  0.7340 -0.3803
18675TIP3    H177440   5.537   1.201   1.743  0.5527 -0.5985 -1.0735
18675TIP3    H277441   5.539   1.197   1.894 -1.1120 -0.6503 -1.0420
18676TIP3   OH277442   4.250   4.389   3.085 -0.0694  0.4794  0.2226
18676TIP3    H177443   4.183   4.364   3.149 -0.4568  0.5478 -0.1500
18676TIP3    H277444   4.234   4.333   3.010  0.7233  0.0264  0.3830
18677TIP3   OH277445   4.304   6.420   3.221 -0.0342 -0.0648 -0.0989
18677TIP3    H177446   4.318   6.416   3.126  1.3985  2.5690 -0.0901
18677TIP3    H277447   4.221   6.467   3.230  0.3623  0.6289 -0.0487
18678TIP3   OH277448   0.126   0.327   0.315  0.1471  0.7394 -0.5850
18678TIP3    H177449   0.150   0.405   0.365 -0.8481  0.6158  0.1021
18678TIP3    H277450   0.156   0.254   0.368  0.7243  0.6322 -1.0450
18679TIP3   OH277451   1.068   4.086  13.048 -0.1873  0.4169  0.8392
18679TIP3    H177452   1.023   4.002  13.045 -0.6869  0.6367  1.8680
18679TIP3    H277453   1.084   4.107  12.956 -1.2404 -0.1716  0.5037
18680TIP3   OH277454   6.328   1.218   3.319 -0.1032 -0.4916 -0.0541
18680TIP3    H177455   6.308   1.143   3.374 -1.0597  1.1056  1.8639
18680TIP3    H277456   6.410   1.252   3.354  0.1366 -0.4108 -0.6834
18681TIP3   OH277457   0.936   1.250  10.084 -0.2595 -0.0907  0.1430
18681TIP3    H177458   0.923   1.268  10.177 -1.0968  0.0213  0.0115
18681TIP3    H277459   0.848   1.256  10.045 -0.0868 -1.1830 -0.4774
18682TIP3   OH277460   0.162   4.601  12.305 -0.7201  0.0655  0.2422
18682TIP3    H177461   0.084   4.574  12.354  0.1040 -0.7693  1.1147
18682TIP3    H277462   0.161   4.697  12.311 -1.8312  0.0857 -0.0087
18683TIP3   OH277463   6.516   3.031  13.442  0.1809 -0.6196  0.5398
18683TIP3    H177464   6.578   3.100  13.415 -0.4275 -0.5406 -0.7133
18683TIP3    H277465   6.531   3.022  13.536  0.0906  1.4265  0.8067
18684TIP3   OH277466   7.038   5.336   4.265  0.2625 -0.3190  0.0062
18684TIP3    H177467   7.091   5.304   4.192 -0.1578  0.1196 -0.4996
18684TIP3    H277468   6.961   5.279   4.265 -0.6389  0.8520 -1.0959
18685TIP3   OH277469   0.180   0.018  12.916 -0.2849  0.0808 -0.1268
18685TIP3    H177470   0.253   0.063  12.959  0.9919 -0.8170 -1.2798
18685TIP3    H277471   0.205  -0.074  12.915 -1.5800 -0.2885 -0.2869
18686TIP3   OH277472   0.429   1.200   5.104  0.2750 -0.2459 -0.1308
18686TIP3    H177473   0.341   1.207   5.068 -0.3767  1.9535  1.7225
18686TIP3    H277474   0.485   1.247   5.042  0.2325 -1.8005 -1.4017
18687TIP3   OH277475   6.616   5.453  14.717 -0.7672  0.3556  0.2992
18687TIP3    H177476   6.660   5.374  14.746 -1.7434 -0.1947  0.3400
18687TIP3    H277477   6.650   5.523  14.773  0.0213 -0.0527  0.3308
18688TIP3   OH277478   5.176   5.285   2.536 -0.1776 -0.1017 -0.0519
18688TIP3    H177479   5.251   5.226   2.533  0.9298  1.3050 -1.2211
18688TIP3    H277480   5.213   5.373   2.524 -1.8207  0.8179  1.1081
18689TIP3   OH277481   0.803   3.323   5.796  0.0157 -0.2501  0.1061
18689TIP3    H177482   0.831   3.383   5.866  0.5897 -1.8597  1.3217
18689TIP3    H277483   0.783   3.242   5.841 -0.8831 -0.9523 -1.4868
18690TIP3   OH277484   3.635   0.601   1.896  0.1420  0.5982  0.2958
18690TIP3    H177485   3.727   0.577   1.884  0.3811  1.6960 -0.2137
18690TIP3    H277486   3.596   0.591   1.810 -0.4361 -0.6321  0.6682
18691TIP3   OH277487   2.634   0.770   1.661 -0.5569 -0.4961  0.1945
18691TIP3    H177488   2.578   0.847   1.655  1.6788  1.2184  0.0291
18691TIP3    H277489   2.596   0.718   1.732 -2.0981  0.7726  0.3497
18692TIP3   OH277490   3.810   4.113   5.633 -0.5993 -0.0353 -0.0220
18692TIP3    H177491   3.867   4.079   5.702  1.3616 -1.1797 -2.0801
18692TIP3    H277492   3.729   4.063   5.643 -0.8124  0.6403  2.0982
18693TIP3   OH277493   6.517   6.186  14.543 -0.1952  0.0924 -0.1394
18693TIP3    H177494   6.605   6.221  14.529  0.7908 -1.4851  1.5695
18693TIP3    H277495   6.461   6.263  14.552  1.4298  1.2062  1.0194
18694TIP3   OH277496   5.098   5.759   4.432 -0.2633  0.4786  0.1849
18694TIP3    H177497   5.108   5.701   4.507  0.6474  0.5550  0.1317
18694TIP3    H277498   5.011   5.798   4.443 -0.5899 -0.3474  0.5960
18695TIP3   OH277499   3.956   1.835  15.487  0.1114  0.4418 -0.5796
18695TIP3    H177500   3.984   1.900  15.421 -0.3892  1.8277  0.5156
18695TIP3    H277501   3.901   1.774  15.438 -0.3028  1.4704 -1.4568
18696TIP3   OH277502   3.413   4.108   4.390  0.4263  0.5103  0.4675
18696TIP3    H177503   3.504   4.132   4.374  0.5550 -0.7578 -0.8091
18696TIP3    H277504   3.385   4.061   4.312 -1.9927  2.6122 -0.1016
18697TIP3   OH277505   3.625   4.458   1.030  0.3979  0.1827 -0.5031
18697TIP3    H177506   3.546   4.511   1.020 -1.4873 -2.3203  0.2324
18697TIP3    H277507   3.672   4.500   1.103 -2.2620 -0.4527  1.7558
18698TIP3   OH277508   1.964   7.126   2.311 -0.1912  0.7814  0.1014
18698TIP3    H177509   1.955   7.196   2.247  0.4444  0.5065 -0.3036
18698TIP3    H277510   2.058   7.120   2.327 -0.3129  0.5801  0.7652
18699TIP3   OH277511   3.593   1.350   0.318  0.5353  0.3764  0.4574
18699TIP3    H177512   3.570   1.268   0.274 -0.0873  0.5651  0.4290
18699TIP3    H277513   3.667   1.327   0.374  0.5134 -0.1531  0.2710
18700TIP3   OH277514   3.231   1.714   4.298 -0.7359 -0.1721 -0.6407
18700TIP3    H177515   3.312   1.745   4.338 -1.4055  0.7516  0.0525
18700TIP3    H277516   3.253   1.629   4.260  0.5382  0.0502 -0.4297
18701TIP3   OH277517   1.619   0.216   4.634 -0.3941 -0.2648  0.5443
18701TIP3    H177518   1.552   0.223   4.702 -2.2177  0.9372 -1.2538
18701TIP3    H277519   1.661   0.302   4.634 -0.0088 -0.4537  0.5378
18702TIP3   OH277520   3.328   0.796   0.486  0.1109  0.5362  0.4574
18702TIP3    H177521   3.411   0.809   0.531  0.0885  0.6941  0.4531
18702TIP3    H277522   3.263   0.785   0.556 -0.0633  1.6378  0.4748
18703TIP3   OH277523   5.114   0.283   4.548 -0.0629 -0.3968  0.1274
18703TIP3    H177524   5.045   0.346   4.570 -0.2692 -0.9306  1.1128
18703TIP3    H277525   5.068   0.200   4.535  0.4675 -1.1528  2.4537
18704TIP3   OH277526   5.411   5.995   4.653  0.2002  0.1600  0.2369
18704TIP3    H177527   5.436   5.975   4.744  0.5103  2.4308  0.7034
18704TIP3    H277528   5.319   5.969   4.647  0.2830 -0.3676  1.0823
18705TIP3   OH277529   5.037   0.219   2.827  0.3641 -0.1171 -0.1116
18705TIP3    H177530   5.093   0.144   2.847  0.7395  0.2271  0.1452
18705TIP3    H277531   4.980   0.188   2.756  0.0855 -0.8486  0.4085
18706TIP3   OH277532   5.279   6.368   3.598  0.1306  0.2683  0.1189
18706TIP3    H177533   5.355   6.338   3.649  1.1522  0.9275 -0.9576
18706TIP3    H277534   5.316   6.394   3.513 -1.1340  1.6936 -0.0384
18707TIP3   OH277535   5.115   4.888   0.888  0.0318 -0.6855  0.2851
18707TIP3    H177536   5.134   4.810   0.940  2.2572 -0.4371 -0.0596
18707TIP3    H277537   5.136   4.961   0.946 -2.1314 -0.2884  0.6382
18708TIP3   OH277538   5.601   4.087   4.941 -0.2687 -0.1001 -0.4413
18708TIP3    H177539   5.577   4.177   4.919 -0.4068 -0.0206  0.0163
18708TIP3    H277540   5.571   4.035   4.867  2.2133  0.5393 -2.0014
18709TIP3   OH277541   2.600   6.798   3.541 -0.1817 -0.2932 -0.1693
18709TIP3    H177542   2.526   6.740   3.519 -0.7421  0.0359  0.7970
18709TIP3    H277543   2.625   6.837   3.457  0.0981 -1.7860 -0.8213
18710TIP3   OH277544   5.472   1.671   0.968 -0.4697 -0.2292  0.1361
18710TIP3    H177545   5.538   1.633   0.910 -0.6427  0.1158 -0.2910
18710TIP3    H277546   5.521   1.731   1.024 -0.3221 -0.4649  0.2609
18711TIP3   OH277547   4.917   3.827   4.482  0.3342  0.0880 -0.3787
18711TIP3    H177548   4.879   3.755   4.533  0.5823  0.3930  0.2350
18711TIP3    H277549   4.940   3.786   4.398 -1.0622 -0.1790 -0.6736
18712TIP3   OH277550   1.723   0.610   4.795 -0.3286 -0.6422 -0.3688
18712TIP3    H177551   1.742   0.691   4.747 -1.1769 -0.6559 -0.7435
18712TIP3    H277552   1.788   0.548   4.763  0.2736 -0.1425 -0.1449
18713TIP3   OH277553   5.271   4.464   5.423  0.5348  0.2469  0.6806
18713TIP3    H177554   5.242   4.553   5.406  2.1669  0.3334 -2.3784
18713TIP3    H277555   5.349   4.474   5.478 -0.0596  0.5534  1.5000
18714TIP3   OH277556   6.551   3.832   5.014 -0.3660 -0.1190 -0.3119
18714TIP3    H177557   6.549   3.898   5.083 -0.5197  0.2686 -0.6830
18714TIP3    H277558   6.475   3.776   5.031 -0.0483 -0.4032  0.1962
18715TIP3   OH277559   3.245   1.387  10.864  0.2895 -0.0570  0.0785
18715TIP3    H177560   3.266   1.315  10.803 -0.4719 -0.0979 -0.1490
18715TIP3    H277561   3.197   1.450  10.810 -0.5014 -0.1456  0.6507
18716TIP3   OH277562   2.266   2.836   3.658  0.1291  0.0546  0.0697
18716TIP3    H177563   2.315   2.786   3.593 -2.7133 -2.1655 -0.5783
18716TIP3    H277564   2.281   2.789   3.740 -0.4809 -0.3381 -0.0376
18717TIP3   OH277565   0.851   3.539   5.016 -0.2668 -0.1273  0.2252
18717TIP3    H177566   0.804   3.616   4.984  1.4339  2.6204  3.7020
18717TIP3    H277567   0.783   3.481   5.050 -1.4729  1.7743  1.2261
18718TIP3   OH277568   0.456   2.991   4.765 -0.0515 -0.0513  0.1018
18718TIP3    H177569   0.469   3.034   4.849 -0.5264 -1.3548  0.8704
18718TIP3    H277570   0.361   2.999   4.749 -0.0257 -0.1621 -0.1112
18719TIP3   OH277571   5.787   5.670   5.018  0.0948  0.4147 -0.6325
18719TIP3    H177572   5.830   5.666   4.933  1.2545 -0.6070 -0.0305
18719TIP3    H277573   5.741   5.586   5.025  0.8081  0.0867  0.1523
18720TIP3   OH277574   4.376   0.304  10.731 -0.4159  0.4610  0.5948
18720TIP3    H177575   4.319   0.373  10.698 -0.0187  0.3427 -0.3657
18720TIP3    H277576   4.392   0.248  10.656  0.4037  0.1036  1.0250
18721TIP3   OH277577   5.214   3.250   3.736  0.0574 -0.1560  1.0289
18721TIP3    H177578   5.246   3.334   3.769 -1.0554  0.8550 -0.3973
18721TIP3    H277579   5.276   3.186   3.772  1.3957  1.3323  1.4915
18722TIP3   OH277580   4.061   6.253   0.783  0.1715 -0.4082  0.0935
18722TIP3    H177581   4.125   6.220   0.719 -0.9652 -0.9381 -0.8104
18722TIP3    H277582   4.081   6.204   0.863  1.0768 -0.3497 -0.0793
18723TIP3   OH277583   1.427   3.144  12.972  0.0349 -0.2810 -0.4822
18723TIP3    H177584   1.485   3.095  13.030 -0.4992  0.1938  0.4588
18723TIP3    H277585   1.443   3.236  12.993  0.2433 -0.0671 -1.4936
18724TIP3   OH277586   3.087   5.193   0.361  0.0105  0.0550 -0.4411
18724TIP3    H177587   3.104   5.258   0.429 -0.4297 -0.4745  0.1787
18724TIP3    H277588   3.047   5.120   0.407  0.4369 -0.6332 -1.1426
18725TIP3   OH277589   0.940   5.676   3.931 -0.5585 -0.1952 -0.2693
18725TIP3    H177590   0.957   5.635   3.847 -2.3852 -1.2365 -0.2015
18725TIP3    H277591   0.888   5.754   3.910 -0.9999 -0.4459 -0.1412
18726TIP3   OH277592   6.090   3.298   3.895 -0.5029 -0.2816 -0.2967
18726TIP3    H177593   6.163   3.264   3.843 -0.9152 -0.6395 -0.6479
18726TIP3    H277594   6.105   3.393   3.899 -0.5046 -0.2423 -1.1277
18727TIP3   OH277595   3.603   3.784   3.873 -0.2136  0.3524 -0.0375
18727TIP3    H177596   3.656   3.858   3.903  1.0946 -1.0359  1.2434
18727TIP3    H277597   3.665   3.712   3.866 -1.8403 -1.2417  1.1451
18728TIP3   OH277598   6.839   1.176   0.042  0.4385  0.5199  0.3683
18728TIP3    H177599   6.932   1.155   0.045  0.2099 -1.2636 -2.0292
18728TIP3    H277600   6.795   1.091   0.051 -0.8314  0.9602 -1.1763
18729TIP3   OH277601   6.502   6.573  13.984 -0.0172  0.0602 -0.3552
18729TIP3    H177602   6.507   6.536  13.896  1.9178  0.0895 -0.3082
18729TIP3    H277603   6.424   6.628  13.983  0.1115  0.2682 -2.1414
18730TIP3   OH277604   6.283   3.266  13.498  0.2692 -0.1067  0.4336
18730TIP3    H177605   6.354   3.206  13.525 -1.2038 -2.0659  0.1895
18730TIP3    H277606   6.325   3.326  13.436  1.3465 -2.5257 -1.3701
18731TIP3   OH277607   1.498   4.179  15.141  0.0107 -0.1000 -0.4981
18731TIP3    H177608   1.466   4.232  15.068  1.9856  2.4707  0.3463
18731TIP3    H277609   1.455   4.216  15.218  0.3226 -0.6788 -0.0373
18732TIP3   OH277610   4.118   1.243   2.759  0.2836 -0.0927 -0.4986
18732TIP3    H177611   4.066   1.304   2.812 -0.6981 -1.0613 -0.3086
18732TIP3    H277612   4.198   1.230   2.810 -0.6650 -1.0543  0.8251
18733TIP3   OH277613   2.964   0.859  15.372 -0.1554  0.7837  0.4041
18733TIP3    H177614   3.028   0.897  15.311 -1.2448 -0.8627 -1.9242
18733TIP3    H277615   2.904   0.932  15.392  0.8784  1.6481  0.4421
18734TIP3   OH277616   1.409   0.907   4.576 -0.2744 -0.6814  0.7612
18734TIP3    H177617   1.405   0.923   4.482 -2.9680 -2.6347  0.4347
18734TIP3    H277618   1.411   0.811   4.584 -1.3162 -0.5960  2.6862
18735TIP3   OH277619   6.843   5.963   5.276  0.2660  0.1796 -0.1613
18735TIP3    H177620   6.918   5.945   5.332 -0.6356 -0.6935  0.8265
18735TIP3    H277621   6.843   5.892   5.212 -0.3859 -0.5247  0.5937
18736TIP3   OH277622   4.548   5.484  14.736  0.3738 -0.0363  0.4584
18736TIP3    H177623   4.619   5.483  14.800  0.9606  1.8088 -0.1004
18736TIP3    H277624   4.580   5.430  14.664 -0.0783 -1.6910  1.4198
18737TIP3   OH277625   1.371   2.187   5.625  0.0241  0.3484  0.6756
18737TIP3    H177626   1.414   2.189   5.711 -1.4630  1.4220  1.4595
18737TIP3    H277627   1.375   2.095   5.598  0.1808 -0.0843  2.0833
18738TIP3   OH277628   4.871   6.387   3.763  0.1732 -0.0565  0.0856
18738TIP3    H177629   4.905   6.384   3.674 -1.5687 -0.5557 -0.6024
18738TIP3    H277630   4.935   6.338   3.815  0.6164 -0.7849 -1.1009
18739TIP3   OH277631   1.104   0.017   4.655  0.5286  0.3187 -0.4092
18739TIP3    H177632   1.120   0.060   4.739  0.2617 -0.4244  0.0360
18739TIP3    H277633   1.015  -0.016   4.662  0.4674  0.3465 -1.0321
18740TIP3   OH277634   5.886   6.217  14.588 -0.5377  0.9824  0.7197
18740TIP3    H177635   5.810   6.247  14.637 -2.0165  0.4125 -1.1319
18740TIP3    H277636   5.948   6.290  14.593 -2.5180  2.8530 -0.4524
18741TIP3   OH277637   1.100   5.528   4.374  0.2669 -0.2689 -0.0911
18741TIP3    H177638   1.044   5.577   4.314  0.8574  2.0721  1.1533
18741TIP3    H277639   1.053   5.527   4.457  1.4982  0.7591  0.6700
18742TIP3   OH277640   5.812   5.772   3.468 -0.5189 -0.1093  0.0851
18742TIP3    H177641   5.789   5.685   3.499  0.8159 -0.4244  0.2414
18742TIP3    H277642   5.906   5.779   3.483 -0.3094  0.7499 -1.4096
18743TIP3   OH277643   2.224   0.106   3.575 -0.2152  0.1807 -0.1566
18743TIP3    H177644   2.215   0.022   3.618  0.0289  0.2538  0.0418
18743TIP3    H277645   2.185   0.169   3.636  0.1524  0.2875 -0.0262
18744TIP3   OH277646   0.484   2.597   3.753 -0.3081  0.0655  0.3485
18744TIP3    H177647   0.521   2.616   3.667 -1.1646  1.8474  0.3356
18744TIP3    H277648   0.394   2.569   3.735 -0.4024  0.1695  0.6516
18745TIP3   OH277649   5.960   4.866   3.228  0.2141 -0.2583  0.7812
18745TIP3    H177650   5.917   4.913   3.157 -0.5128 -0.3598  1.1504
18745TIP3    H277651   6.035   4.823   3.186 -1.4386 -2.1506 -0.3823
18746TIP3   OH277652   2.480   6.171   2.893 -0.1681 -0.7661  0.1674
18746TIP3    H177653   2.505   6.086   2.930  1.0478 -0.4330  0.1589
18746TIP3    H277654   2.404   6.152   2.837  0.0212 -1.8262  0.2520
18747TIP3   OH277655   1.794   4.424   2.213 -0.7517 -0.7149 -0.3732
18747TIP3    H177656   1.707   4.462   2.201 -1.1572 -1.8116 -1.1281
18747TIP3    H277657   1.776   4.333   2.238  0.1519 -1.3885 -2.0382
18748TIP3   OH277658   3.278   5.918  14.695  0.0096  0.4488 -0.2507
18748TIP3    H177659   3.346   5.861  14.658 -0.2105  0.6220 -0.9428
18748TIP3    H277660   3.222   5.858  14.745  0.0650  0.1328 -0.5597
18749TIP3   OH277661   6.073   4.514   1.806  0.5950 -0.3471 -0.0427
18749TIP3    H177662   6.064   4.517   1.711 -1.4013  0.4639  0.1347
18749TIP3    H277663   6.111   4.428   1.824  0.5199 -0.7139 -1.5258
18750TIP3   OH277664   6.919   4.367   5.221  0.5126  0.4215 -0.2393
18750TIP3    H177665   6.949   4.382   5.131 -2.3634  0.3819 -1.3155
18750TIP3    H277666   6.880   4.449   5.248 -0.4869 -0.1674  0.1672
18751TIP3   OH277667   5.007   0.734   4.000 -0.1226 -0.4672  0.0614
18751TIP3    H177668   5.102   0.726   3.993  0.0159  1.5899 -1.2687
18751TIP3    H277669   4.994   0.808   4.059 -0.8463  0.1410 -0.8363
18752TIP3   OH277670   4.982   6.246   3.175 -0.4132 -0.1518  0.0189
18752TIP3    H177671   5.004   6.313   3.109 -0.1337  2.1220  2.2407
18752TIP3    H277672   4.887   6.243   3.175 -0.5964  2.4081  1.7330
18753TIP3   OH277673   0.799   1.898   4.236  0.4382  0.0586 -0.1539
18753TIP3    H177674   0.784   1.969   4.299  0.9240  0.2097 -0.2010
18753TIP3    H277675   0.735   1.831   4.260  1.7159 -0.6256  1.6167
18754TIP3   OH277676   3.949   2.119   0.975 -0.0540  0.2342  0.2708
18754TIP3    H177677   3.885   2.050   0.990 -0.1789  0.2330 -0.2547
18754TIP3    H277678   3.936   2.145   0.884  0.3648  0.5681  0.3013
18755TIP3   OH277679   4.970   0.715   5.177  0.1106 -0.2171 -0.1872
18755TIP3    H177680   4.912   0.790   5.168  0.5385  0.1324 -0.0446
18755TIP3    H277681   5.055   0.746   5.147  0.6527 -0.1805  1.3442
18756TIP3   OH277682   4.803   3.377  12.717 -0.6913 -0.1823  0.0434
18756TIP3    H177683   4.892   3.406  12.698 -0.9804  1.3748  0.9129
18756TIP3    H277684   4.813   3.321  12.795 -0.5220  0.5082  0.5333
18757TIP3   OH277685   4.193   3.468   5.362 -0.0391 -0.0035  0.0713
18757TIP3    H177686   4.104   3.451   5.395 -0.2308  1.4510  0.3449
18757TIP3    H277687   4.244   3.487   5.440  0.8080 -1.8460  0.0336
18758TIP3   OH277688   6.716   6.091  14.820 -0.1828  0.3303 -0.0135
18758TIP3    H177689   6.655   6.139  14.876 -1.4573  0.1072 -1.1699
18758TIP3    H277690   6.733   6.150  14.746  0.7358  0.2457  0.1125
18759TIP3   OH277691   5.500   0.345   0.264  0.1334 -0.6033 -0.2187
18759TIP3    H177692   5.595   0.347   0.278 -0.0041 -1.8018  1.1451
18759TIP3    H277693   5.463   0.376   0.347 -0.7009  1.3372 -1.2330
18760TIP3   OH277694   1.751   6.569   2.823  1.1007  0.2769  0.0731
18760TIP3    H177695   1.706   6.623   2.757  2.7498  2.7900  0.8574
18760TIP3    H277696   1.827   6.533   2.777  0.2214 -1.1342 -0.3389
18761TIP3   OH277697   1.330   4.421   0.400 -0.3847  0.3967  0.0291
18761TIP3    H177698   1.363   4.363   0.469  0.8912  0.2461 -0.6844
18761TIP3    H277699   1.321   4.364   0.323  0.3981  1.0225 -0.5419
18762TIP3   OH277700   1.763   4.786  11.247 -0.8227 -1.2341  0.6725
18762TIP3    H177701   1.798   4.698  11.259 -0.1531 -1.0055  0.4746
18762TIP3    H277702   1.761   4.823  11.336  0.1749 -0.9927  0.6140
18763TIP3   OH277703   0.693   4.348   2.538  0.9800  0.1697 -0.2568
18763TIP3    H177704   0.750   4.284   2.580 -0.8778 -0.8086  0.9258
18763TIP3    H277705   0.712   4.340   2.444  1.0240 -1.9267 -0.1098
18764TIP3   OH277706   2.988   4.872  11.553  0.0713  0.0035  0.2440
18764TIP3    H177707   2.940   4.883  11.471 -0.1787  1.6359  0.5861
18764TIP3    H277708   3.080   4.871  11.527 -0.0505 -1.7052 -0.2614
18765TIP3   OH277709   2.161   6.061   2.341 -0.5434  0.6328  0.5449
18765TIP3    H177710   2.213   6.113   2.403 -0.0507 -0.0132  0.6855
18765TIP3    H277711   2.072   6.068   2.375 -0.3890  0.8822  0.9171
18766TIP3   OH277712   1.884   6.913   1.726 -0.2598 -0.0841  0.2781
18766TIP3    H177713   1.923   6.981   1.671 -1.8534  0.4443 -0.2561
18766TIP3    H277714   1.909   6.936   1.815  0.8114  0.0939 -0.0552
18767TIP3   OH277715   5.186   3.417   4.626  0.0340  0.2626 -0.4351
18767TIP3    H177716   5.130   3.346   4.593 -0.8467  0.1202  1.2251
18767TIP3    H277717   5.127   3.491   4.636  0.1657  0.2030  1.0514
18768TIP3   OH277718   1.395   5.474   5.148 -0.2492  0.3589  0.0505
18768TIP3    H177719   1.402   5.476   5.243  2.5397  0.7802 -0.0697
18768TIP3    H277720   1.466   5.531   5.118  1.1250 -2.2786 -2.2776
18769TIP3   OH277721   5.211   7.136  15.332 -0.5031 -0.7458  0.1693
18769TIP3    H177722   5.304   7.145  15.354 -0.6620  1.3143  0.2021
18769TIP3    H277723   5.192   7.043  15.345  1.3761 -1.0815  0.8352
18770TIP3   OH277724   4.019   2.361   2.166 -0.7484  0.1614  0.2266
18770TIP3    H177725   3.943   2.412   2.140  0.3939  1.1858 -1.2501
18770TIP3    H277726   4.051   2.322   2.084 -0.5500 -1.4938  1.0527
18771TIP3   OH277727   3.779   5.346  13.986  0.3296 -0.0334 -0.1283
18771TIP3    H177728   3.687   5.320  13.991  0.1588  0.4783 -0.4703
18771TIP3    H277729   3.798   5.349  13.892  1.4551 -2.6847 -0.0735
18772TIP3   OH277730   7.157   6.587   2.874 -0.2780  0.9833  0.6362
18772TIP3    H177731   7.215   6.512   2.864  0.2102  1.3678  0.5207
18772TIP3    H277732   7.072   6.556   2.843  0.1521  0.7698 -0.3816
18773TIP3   OH277733   6.476   1.805   2.708 -0.6838  0.5815 -0.1607
18773TIP3    H177734   6.432   1.890   2.706 -1.4527  0.1740 -1.2793
18773TIP3    H277735   6.566   1.824   2.681 -0.1269  1.4053  2.0637
18774TIP3   OH277736   2.664   6.168   9.626 -0.1588  0.2044 -0.7320
18774TIP3    H177737   2.605   6.093   9.627 -0.0595  0.0841  1.5515
18774TIP3    H277738   2.748   6.133   9.656 -0.0791  1.1800  0.2426
18775TIP3   OH277739   1.580   5.506  13.899 -0.5623  0.2040 -0.1586
18775TIP3    H177740   1.604   5.598  13.895 -0.3570  0.1907  0.7608
18775TIP3    H277741   1.503   5.503  13.955 -1.6451  0.0149 -1.5797
18776TIP3   OH277742   1.050   6.364  15.417 -0.2148 -0.8342  0.2753
18776TIP3    H177743   1.054   6.449  15.461 -1.4626 -0.5165 -0.1702
18776TIP3    H277744   0.978   6.374  15.354  0.3887 -1.8428 -0.5948
18777TIP3   OH277745   1.649   6.874   1.389 -0.5584  0.7152 -0.4316
18777TIP3    H177746   1.673   6.940   1.324 -0.8119  1.4650  0.2164
18777TIP3    H277747   1.643   6.792   1.340  2.5240  0.5812 -0.7876
18778TIP3   OH277748   2.111   0.248   1.287 -0.2780 -0.0557  0.4546
18778TIP3    H177749   2.119   0.254   1.191 -2.0377  0.3110  0.3058
18778TIP3    H277750   2.136   0.158   1.307 -3.4661 -1.3688 -0.8180
18779TIP3   OH277751   4.434   3.562   5.244 -0.1984  0.1143 -0.2467
18779TIP3    H177752   4.353   3.522   5.277 -0.3207  1.0765  0.6963
18779TIP3    H277753   4.457   3.627   5.311  0.6422  0.7595 -1.1364
18780TIP3   OH277754   6.232   5.770   4.803  0.0250  0.8964 -0.2790
18780TIP3    H177755   6.178   5.836   4.759 -0.6254  1.2026  0.9259
18780TIP3    H277756   6.238   5.801   4.893 -0.0312 -0.5356  0.2350
18781TIP3   OH277757   0.088   6.413  11.869 -0.1635 -0.5921 -0.5838
18781TIP3    H177758   0.075   6.348  11.799  0.9682  0.7013 -2.0644
18781TIP3    H277759   0.093   6.497  11.823  3.0326  0.0767  0.7537
18782TIP3   OH277760   4.363   3.556   4.106  0.2482 -0.5214  0.6401
18782TIP3    H177761   4.277   3.599   4.110  0.3719 -0.3790  1.8664
18782TIP3    H277762   4.421   3.612   4.157  1.2119 -0.3599 -0.5632
18783TIP3   OH277763   0.033   0.929   1.209  0.7386  0.8647  0.6653
18783TIP3    H177764   0.086   0.982   1.150 -0.8002  0.2482 -1.3700
18783TIP3    H277765   0.093   0.858   1.236  1.4465  1.0822 -0.2653
18784TIP3   OH277766   4.870   0.247   3.850 -0.0066  0.3305  0.8083
18784TIP3    H177767   4.875   0.170   3.907  2.5413  0.6659  1.1525
18784TIP3    H277768   4.892   0.320   3.907 -1.7966  1.2835  0.3439
18785TIP3   OH277769   6.682   4.525   1.955 -0.0331 -0.5774 -0.4090
18785TIP3    H177770   6.657   4.513   2.047  0.2361 -2.3419 -0.5358
18785TIP3    H277771   6.776   4.508   1.953 -0.0066 -0.3846 -1.0003
18786TIP3   OH277772   1.627   0.166   4.353  0.1624  0.1453 -0.3516
18786TIP3    H177773   1.609   0.174   4.446 -0.9000  1.3933 -0.6416
18786TIP3    H277774   1.545   0.189   4.310  1.5882  3.3753 -1.6535
18787TIP3   OH277775   6.521   0.464   0.829  0.2892  0.6492 -0.0148
18787TIP3    H177776   6.549   0.389   0.880  0.1878 -0.1363 -1.0841
18787TIP3    H277777   6.554   0.447   0.741 -1.6875  0.7368 -0.8163
18788TIP3   OH277778   7.073   6.390   6.085  0.2335  0.3224  0.3781
18788TIP3    H177779   7.163   6.366   6.062 -0.0517  0.2476 -0.7219
18788TIP3    H277780   7.055   6.468   6.032 -0.2823  0.4433  0.7292
18789TIP3   OH277781   5.477   0.485  14.764  0.5058 -0.9158 -0.2011
18789TIP3    H177782   5.485   0.536  14.683  0.6363 -2.6535 -1.3504
18789TIP3    H277783   5.412   0.532  14.816 -0.8178 -0.5771 -2.0284
18790TIP3   OH277784   3.085   2.299   3.911  0.3079 -0.9224 -0.4825
18790TIP3    H177785   3.032   2.355   3.854  1.0458  0.3689  0.0586
18790TIP3    H277786   3.174   2.333   3.903  0.6662 -1.6056  0.3709
18791TIP3   OH277787   2.753   6.692  14.701 -0.1900  0.1161 -0.3565
18791TIP3    H177788   2.720   6.775  14.737  2.0997  1.4461 -1.1324
18791TIP3    H277789   2.784   6.644  14.778 -0.8363  0.2772  0.0184
18792TIP3   OH277790   6.736   3.193   1.160 -0.2569 -0.2048 -0.0060
18792TIP3    H177791   6.779   3.275   1.187 -0.7397 -0.8968  3.2667
18792TIP3    H277792   6.654   3.222   1.120 -0.8627  0.9792  1.9425
18793TIP3   OH277793   2.029   0.596   0.833  0.2872  0.2847  0.1277
18793TIP3    H177794   2.078   0.642   0.765  1.6982 -1.7360 -0.3104
18793TIP3    H277795   2.009   0.510   0.795 -0.0386 -0.4143  1.7644
18794TIP3   OH277796   0.912   4.430   4.231 -0.5738 -0.5445  0.6996
18794TIP3    H177797   0.897   4.496   4.163  0.0080 -0.6712  0.4369
18794TIP3    H277798   0.830   4.425   4.279 -0.5133  0.6398  0.9517
18795TIP3   OH277799   7.014   2.913   4.990  0.0182 -0.4576  0.2050
18795TIP3    H177800   7.049   2.863   5.064  0.3554 -0.1007  0.2954
18795TIP3    H277801   7.050   3.001   5.003  1.9296 -0.9034 -1.5942
18796TIP3   OH277802   4.368   2.197  12.581 -0.2949 -0.1884 -0.4504
18796TIP3    H177803   4.409   2.111  12.579  1.8831  0.7740 -0.4629
18796TIP3    H277804   4.363   2.218  12.675 -1.0000 -0.3987 -0.4387
18797TIP3   OH277805   1.707   5.181   5.155 -0.5138 -0.3085  0.3049
18797TIP3    H177806   1.686   5.104   5.209  0.9933 -0.1675  1.1416
18797TIP3    H277807   1.745   5.244   5.216  0.8631  0.0200 -0.8382
18798TIP3   OH277808   1.732   7.104  15.150  0.2628 -0.5005  0.4714
18798TIP3    H177809   1.821   7.099  15.114  0.3744 -1.0937  0.8179
18798TIP3    H277810   1.727   7.031  15.211 -0.0995  0.1890  1.2780
18799TIP3   OH277811   5.039   5.451   3.223 -0.1926  0.0880  0.0614
18799TIP3    H177812   5.014   5.378   3.167 -1.9595  1.9484 -1.7475
18799TIP3    H277813   5.113   5.492   3.178 -0.4290  0.5093  0.0446
18800TIP3   OH277814   3.274   1.057   3.894 -0.7461 -0.3055  0.0870
18800TIP3    H177815   3.337   1.101   3.951 -0.6270 -0.7561  0.3020
18800TIP3    H277816   3.194   1.051   3.945 -0.4880 -1.1737  0.4050
18801TIP3   OH277817   2.093   1.557   2.355 -0.3307 -0.4164 -0.1395
18801TIP3    H177818   2.147   1.626   2.392  2.0375 -1.8490 -0.7500
18801TIP3    H277819   2.071   1.588   2.267 -0.7816  0.2929  0.2137
18802TIP3   OH277820   6.920   0.117   2.973 -0.7020 -0.0597 -0.6753
18802TIP3    H177821   6.936   0.173   2.897  0.2925 -1.1869 -1.3356
18802TIP3    H277822   6.868   0.044   2.939  0.7694 -1.2010 -0.5964
18803TIP3   OH277823   2.425   5.376   3.377 -0.0394 -0.1823  0.5046
18803TIP3    H177824   2.506   5.423   3.394  0.0018 -0.6865  1.8388
18803TIP3    H277825   2.371   5.392   3.455 -0.6533 -1.0181  0.2652
18804TIP3   OH277826   3.656   3.897   2.147 -0.2320 -0.2336 -0.1348
18804TIP3    H177827   3.600   3.852   2.211  0.2182  1.0959  1.2461
18804TIP3    H277828   3.673   3.982   2.186  2.0043 -0.2566 -0.9519
18805TIP3   OH277829   2.958   5.439   0.464 -0.1010  0.3792 -0.1345
18805TIP3    H177830   2.917   5.442   0.377  0.8459  1.0299 -0.5679
18805TIP3    H277831   3.004   5.522   0.472  3.0071 -1.1619 -0.6054
18806TIP3   OH277832   4.572   6.934   2.430  0.2118  0.0682  0.5076
18806TIP3    H177833   4.506   7.000   2.410  2.5482  2.6042  0.5947
18806TIP3    H277834   4.615   6.917   2.346  0.6455 -0.1422  0.7664
18807TIP3   OH277835   0.565   3.483   3.691  0.3528  0.1229  0.1442
18807TIP3    H177836   0.656   3.509   3.675 -0.1880  1.5827 -0.6859
18807TIP3    H277837   0.567   3.387   3.688  1.9584  0.1027  0.7324
18808TIP3   OH277838   1.164   4.550   3.363 -0.2935 -0.7122  0.4074
18808TIP3    H177839   1.101   4.597   3.308 -0.1613 -0.8964  0.0920
18808TIP3    H277840   1.193   4.614   3.427 -1.1205 -0.7474  0.8227
18809TIP3   OH277841   6.660   3.750   1.309 -0.5467  0.1176  0.1772
18809TIP3    H177842   6.691   3.825   1.360  0.2129 -1.5661  2.3574
18809TIP3    H277843   6.615   3.694   1.373 -3.3152 -0.1760 -1.8473
18810TIP3   OH277844   2.578   0.702   5.085  0.7572  1.0928 -0.0570
18810TIP3    H177845   2.525   0.771   5.125  0.9910  0.8897  0.6094
18810TIP3    H277846   2.523   0.666   5.015  0.0808  0.9868  0.5245
18811TIP3   OH277847   6.834   0.156  12.875 -0.0589 -0.7757 -0.1235
18811TIP3    H177848   6.881   0.112  12.805  0.2663  1.1552 -1.1932
18811TIP3    H277849   6.881   0.133  12.955  0.2858 -2.0496 -0.6771
18812TIP3   OH277850   5.888   6.395   4.385 -0.0640  0.0297  0.1877
18812TIP3    H177851   5.836   6.435   4.316  0.8038  1.0540  0.1067
18812TIP3    H277852   5.836   6.320   4.415 -0.2820 -0.6862 -1.8398
18813TIP3   OH277853   5.613   4.453   4.552 -0.0009 -0.0084 -0.1627
18813TIP3    H177854   5.698   4.414   4.535  0.0299 -0.7439  1.4849
18813TIP3    H277855   5.628   4.547   4.545  0.8323 -0.1479 -0.3631
18814TIP3   OH277856   4.543   0.610   1.727 -0.3953  0.0383  0.2000
18814TIP3    H177857   4.451   0.588   1.709 -0.6945  0.6776  0.8945
18814TIP3    H277858   4.541   0.652   1.812  0.1743  2.4961 -0.9161
18815TIP3   OH277859   2.951   6.556   5.292  0.0198  0.0953 -0.3574
18815TIP3    H177860   2.899   6.623   5.336 -0.6816 -1.3895  1.1895
18815TIP3    H277861   2.979   6.597   5.210 -0.5439  2.1800  0.4292
18816TIP3   OH277862   0.112   6.324   4.993  0.8353  0.9842  0.6271
18816TIP3    H177863   0.142   6.243   5.035 -0.4777 -0.9456 -1.8945
18816TIP3    H277864   0.038   6.297   4.939 -0.7455  4.2402  0.9665
18817TIP3   OH277865   6.215   1.493  15.332  0.1862  0.2822 -0.0653
18817TIP3    H177866   6.165   1.520  15.255 -1.4934  0.3024  0.9929
18817TIP3    H277867   6.212   1.568  15.391 -0.0127 -0.3323  0.7272
18818TIP3   OH277868   1.419   3.531   1.662  0.1566  0.0865 -0.1214
18818TIP3    H177869   1.345   3.567   1.711 -0.9267  1.1334 -2.3699
18818TIP3    H277870   1.484   3.601   1.660 -0.1309  0.3393 -0.8190
18819TIP3   OH277871   3.857   2.427   4.909  0.5549 -0.6183  0.0747
18819TIP3    H177872   3.916   2.432   4.834  1.7769  1.5274  1.0993
18819TIP3    H277873   3.902   2.371   4.972  0.2218 -1.1929 -0.1911
18820TIP3   OH277874   3.218   1.693   4.941  0.1653  0.1419 -0.4762
18820TIP3    H177875   3.208   1.711   5.034  0.9325  1.0912 -0.5613
18820TIP3    H277876   3.132   1.663   4.913  0.1096 -0.8704  0.6739
18821TIP3   OH277877   6.553   1.663   1.988  0.3923  0.2583 -0.4783
18821TIP3    H177878   6.494   1.700   1.923  1.3543  0.2917 -1.3688
18821TIP3    H277879   6.551   1.724   2.061 -0.6026  0.2904 -0.5255
18822TIP3   OH277880   0.184   3.174   4.299 -0.4694  0.5954 -0.7362
18822TIP3    H177881   0.248   3.106   4.277 -1.9898 -0.8571 -0.8265
18822TIP3    H277882   0.105   3.150   4.251 -1.2122  2.1500 -0.3529
18823TIP3   OH277883   6.716   6.391   2.601 -0.2015  0.7014  0.2541
18823TIP3    H177884   6.717   6.481   2.567 -0.1799 -0.1378 -2.2026
18823TIP3    H277885   6.624   6.365   2.596 -0.0545  0.2379 -0.1552
18824TIP3   OH277886   3.457   0.471   4.658  0.4883  0.1723  0.3332
18824TIP3    H177887   3.452   0.390   4.708  2.0296 -0.8865 -1.1449
18824TIP3    H277888   3.421   0.449   4.572 -0.0741  1.3585  0.2466
18825TIP3   OH277889   3.074   6.959   3.539  0.0059 -0.1016  0.0413
18825TIP3    H177890   3.142   6.956   3.472 -0.1031  0.7695 -0.1244
18825TIP3    H277891   3.043   7.050   3.538  0.5913  0.1540  1.8781
18826TIP3   OH277892   7.122   2.435   2.939  0.1445  0.2189 -0.1035
18826TIP3    H177893   7.214   2.418   2.958  0.4378  0.6540 -1.0348
18826TIP3    H277894   7.104   2.382   2.861 -0.1574  0.7810 -0.4187
18827TIP3   OH277895   6.338   3.701   5.147 -0.0747 -0.2416 -0.1649
18827TIP3    H177896   6.344   3.732   5.237  0.9993 -0.4119 -0.1697
18827TIP3    H277897   6.274   3.759   5.106  0.1024  0.4124  0.4598
18828TIP3   OH277898   0.774   5.498   5.118 -0.0328  0.1913  0.7976
18828TIP3    H177899   0.734   5.585   5.117  1.3685  0.8856  1.4200
18828TIP3    H277900   0.823   5.495   5.200 -0.1479 -1.2427  0.8403
18829TIP3   OH277901   2.485   5.234  13.824 -0.1410  0.2038 -0.2173
18829TIP3    H177902   2.486   5.203  13.733  0.8206  0.0295 -0.1594
18829TIP3    H277903   2.553   5.182  13.868  0.9057  1.7626  0.0928
18830TIP3   OH277904   0.694   3.832   3.578  0.5442 -0.3438 -0.2746
18830TIP3    H177905   0.653   3.900   3.525  1.1411 -0.6650 -1.1678
18830TIP3    H277906   0.708   3.873   3.663 -1.3583 -0.1376 -0.0093
18831TIP3   OH277907   4.556   6.413  14.894 -0.5218 -0.4796  0.4091
18831TIP3    H177908   4.461   6.402  14.896 -0.5433 -0.2036  1.1748
18831TIP3    H277909   4.569   6.491  14.841 -0.5516 -2.0260 -2.0286
18832TIP3   OH277910   6.845   4.322   4.499 -0.0658 -0.0762  0.0051
18832TIP3    H177911   6.870   4.247   4.445  0.3106  1.0169 -1.3939
18832TIP3    H277912   6.925   4.346   4.545  0.5673  1.1208 -1.6367
18833TIP3   OH277913   3.620   1.980   3.566 -0.6548  0.6251 -0.5911
18833TIP3    H177914   3.545   1.958   3.622  0.5860  0.2665  1.0270
18833TIP3    H277915   3.676   2.034   3.621  0.2389  0.9759 -1.7969
18834TIP3   OH277916   1.604   5.402   1.650 -0.5123 -0.1508 -0.5031
18834TIP3    H177917   1.644   5.390   1.736 -1.9091  1.7137  0.4792
18834TIP3    H277918   1.551   5.323   1.637 -2.6855  0.8173  1.7834
18835TIP3   OH277919   2.103   5.607  14.567 -0.0821  0.1379  0.3751
18835TIP3    H177920   2.172   5.672  14.556  0.1758 -0.1363  0.3576
18835TIP3    H277921   2.086   5.605  14.661  0.0381  0.1003  0.3964
18836TIP3   OH277922   3.193   4.265   3.590  0.3598  0.5169 -0.1506
18836TIP3    H177923   3.208   4.176   3.620 -1.1370  1.0885  2.6145
18836TIP3    H277924   3.183   4.257   3.495 -0.4850 -2.3586  0.0820
18837TIP3   OH277925   3.506   0.359  14.693 -0.0497 -0.7986  0.0271
18837TIP3    H177926   3.509   0.360  14.789  1.1494 -0.8295 -0.0048
18837TIP3    H277927   3.525   0.268  14.670 -1.6055 -1.0888 -0.2219
18838TIP3   OH277928   1.772   7.012   0.505 -0.1823  0.6348 -0.1345
18838TIP3    H177929   1.813   7.061   0.576  0.2965 -0.6536  0.5110
18838TIP3    H277930   1.726   6.940   0.548 -0.5518  0.2840 -1.0768
18839TIP3   OH277931   5.200   0.173   1.637  0.8716 -0.1933 -0.7955
18839TIP3    H177932   5.149   0.194   1.559 -0.8488  0.2046  0.4021
18839TIP3    H277933   5.242   0.256   1.661 -0.5781  0.3204  0.0858
18840TIP3   OH277934   6.840   6.421   3.752 -0.0052  0.1290 -0.0916
18840TIP3    H177935   6.768   6.364   3.725  1.2538 -1.6496  0.1593
18840TIP3    H277936   6.910   6.403   3.690  0.4223  1.4889 -0.0474
18841TIP3   OH277937   1.248   6.006   3.739  0.1596  0.2168  0.4622
18841TIP3    H177938   1.285   5.932   3.691 -2.1267  0.3330 -1.6520
18841TIP3    H277939   1.281   6.083   3.692  2.3736  0.6898  2.5347
18842TIP3   OH277940   3.576   5.566  13.650 -0.8554  0.5846 -0.2651
18842TIP3    H177941   3.548   5.484  13.691 -2.4001  1.2465  0.0677
18842TIP3    H277942   3.653   5.592  13.700  0.0095 -0.9285 -0.7359
18843TIP3   OH277943   2.761   6.215  10.675  0.0735 -0.6632 -0.4366
18843TIP3    H177944   2.750   6.249  10.585  2.0050 -1.8680 -1.1687
18843TIP3    H277945   2.691   6.150  10.684 -2.2673  1.7153  0.2073
18844TIP3   OH277946   4.899   5.431   5.319  0.2740  0.4546  0.2365
18844TIP3    H177947   4.914   5.524   5.338  0.6344  0.5518 -0.4877
18844TIP3    H277948   4.804   5.421   5.325  0.1884  0.9818 -0.1541
18845TIP3   OH277949   2.453   1.732   4.911  0.0809  0.2330  0.5763
18845TIP3    H177950   2.500   1.770   4.985 -1.6448  0.1986  1.7502
18845TIP3    H277951   2.491   1.644   4.901 -1.9075 -1.1714  3.7739
18846TIP3   OH277952   4.487   3.124  13.295 -0.2607  0.0357  0.7974
18846TIP3    H177953   4.475   3.084  13.209 -0.9533 -0.6756  1.2025
18846TIP3    H277954   4.571   3.091  13.326  1.1941  2.2033 -0.5812
18847TIP3   OH277955   2.215   1.323   2.277  0.1949 -0.1085 -0.1042
18847TIP3    H177956   2.282   1.387   2.301  0.5825  0.1904 -1.8452
18847TIP3    H277957   2.132   1.367   2.295  0.4633  0.5143 -0.3550
18848TIP3   OH277958   1.935   0.864  13.254 -0.2420  0.2202  0.2080
18848TIP3    H177959   1.929   0.791  13.315 -3.2140 -0.4627 -0.7218
18848TIP3    H277960   1.920   0.942  13.309 -0.2056 -0.1467  0.7454
18849TIP3   OH277961   4.648   4.495   0.764 -0.1789 -0.1247  0.5190
18849TIP3    H177962   4.681   4.577   0.726 -1.5124  0.6178  0.8883
18849TIP3    H277963   4.640   4.435   0.690  1.1466 -0.0562  0.2964
18850TIP3   OH277964   3.104   6.244   0.754  0.6687  0.4824 -0.4408
18850TIP3    H177965   3.033   6.256   0.818  0.2584  1.1780 -1.0191
18850TIP3    H277966   3.116   6.149   0.751  0.9958  0.4572  0.9848
18851TIP3   OH277967   2.273   6.280   3.053 -0.9059 -0.0571  0.0367
18851TIP3    H177968   2.298   6.370   3.073  0.3616  0.2280 -2.3726
18851TIP3    H277969   2.357   6.235   3.038 -1.5782 -1.1432 -0.5960
18852TIP3   OH277970   5.487   2.515   1.031  0.0819 -0.2237  0.5873
18852TIP3    H177971   5.561   2.460   1.005  1.2860  1.4600  0.2627
18852TIP3    H277972   5.411   2.458   1.025  0.6387 -0.7904 -3.8625
18853TIP3   OH277973   6.450   3.298   3.238 -0.1141 -0.1957  0.1864
18853TIP3    H177974   6.372   3.285   3.293  1.6667 -2.9865  2.2785
18853TIP3    H277975   6.438   3.238   3.165 -1.4452  1.9195 -1.4400
18854TIP3   OH277976   0.117   6.013   5.219  0.8002 -0.1817  0.3640
18854TIP3    H177977   0.092   5.920   5.221 -0.4621  0.1361 -0.2735
18854TIP3    H277978   0.146   6.028   5.129  2.8020 -0.3888  0.9257
18855TIP3   OH277979   2.988   0.609   4.277  0.3104  0.0719 -0.7503
18855TIP3    H177980   3.013   0.698   4.253 -0.8783  0.9785  1.0811
18855TIP3    H277981   2.943   0.619   4.361 -2.1132 -1.9194 -1.6594
18856TIP3   OH277982   6.552   3.872   5.565 -0.3132 -0.2903  0.0546
18856TIP3    H177983   6.630   3.881   5.619 -1.4211  0.1624  1.6326
18856TIP3    H277984   6.484   3.919   5.612 -1.4036 -0.1083 -1.6096
18857TIP3   OH277985   3.536   2.723   3.895  0.4453 -0.2249  0.4298
18857TIP3    H177986   3.474   2.669   3.847  0.5039  0.1349 -0.0649
18857TIP3    H277987   3.622   2.696   3.863  0.7103 -2.0087  2.4244
18858TIP3   OH277988   5.875   2.056   2.949 -0.1284 -0.1093 -0.3867
18858TIP3    H177989   5.950   2.114   2.960 -1.8333  2.2579 -0.5860
18858TIP3    H277990   5.912   1.968   2.952  2.7676  0.9788 -1.4136
18859TIP3   OH277991   0.368   3.445  15.108 -0.0534 -0.6325 -0.1911
18859TIP3    H177992   0.376   3.496  15.027 -0.0420 -1.0695 -0.4678
18859TIP3    H277993   0.277   3.457  15.135  0.2307  0.4255  0.3455
18860TIP3   OH277994   4.329   0.222   3.427  0.1556  0.0648 -0.5026
18860TIP3    H177995   4.351   0.276   3.503 -2.0337 -1.9065  1.7085
18860TIP3    H277996   4.241   0.190   3.446  0.1169 -1.7040 -3.2221
18861TIP3   OH277997   1.941   2.417   2.650  0.4821  0.2231 -0.1986
18861TIP3    H177998   1.893   2.407   2.732 -0.5917 -0.9426 -0.9443
18861TIP3    H277999   2.006   2.347   2.652  1.2242  0.9054  0.1533
18862TIP3   OH278000   5.216   4.543   0.745  0.5100 -0.3771  0.7842
18862TIP3    H178001   5.129   4.550   0.706  0.3978  0.2061  1.1296
18862TIP3    H278002   5.228   4.449   0.760 -1.3514 -0.2882  3.5851
18863TIP3   OH278003   0.134   3.624   2.403 -0.2858 -0.3428  0.3217
18863TIP3    H178004   0.178   3.640   2.320  0.6364  0.7255  0.9767
18863TIP3    H278005   0.049   3.667   2.394 -0.1688 -0.1831 -0.0476
18864TIP3   OH278006   3.607   7.022   3.672 -0.2868  0.5768 -0.3628
18864TIP3    H178007   3.630   6.996   3.760 -0.6009 -1.7736 -0.9148
18864TIP3    H278008   3.562   6.946   3.635 -0.6025  1.6653 -2.3834
18865TIP3   OH278009   2.599   5.913   2.401 -0.2486 -0.4288  0.1889
18865TIP3    H178010   2.644   5.853   2.341  0.1041 -0.1797  0.2006
18865TIP3    H278011   2.612   6.000   2.362 -0.4558 -0.3229  0.3574
18866TIP3   OH278012   5.283   5.130   5.523 -0.2996  0.3114 -0.0894
18866TIP3    H178013   5.310   5.103   5.435  1.2220  1.7022 -0.1037
18866TIP3    H278014   5.198   5.171   5.510 -1.1142 -1.4072 -0.5423
18867TIP3   OH278015   4.573   2.936   3.842  0.5516 -0.2138  0.4297
18867TIP3    H178016   4.503   2.909   3.901  0.6789 -0.7305  0.3535
18867TIP3    H278017   4.552   2.894   3.759  1.3153 -0.9541  0.5966
18868TIP3   OH278018   5.221   0.453   2.965  0.2181  0.5900  0.0710
18868TIP3    H178019   5.210   0.429   2.873  1.5110  2.6492 -0.6969
18868TIP3    H278020   5.316   0.459   2.976  0.0256  2.1385  1.0327
18869TIP3   OH278021   1.354   7.049   3.889 -0.0682  0.6955 -0.3451
18869TIP3    H178022   1.412   6.973   3.881  1.1616  1.7740 -3.4411
18869TIP3    H278023   1.410   7.117   3.927 -1.0008  0.2956  1.8728
18870TIP3   OH278024   7.155   1.885   5.013 -0.2238 -0.1963 -0.5166
18870TIP3    H178025   7.095   1.956   5.037  1.9393  1.1840  1.2159
18870TIP3    H278026   7.184   1.908   4.924  0.7264  1.3611  0.1527
18871TIP3   OH278027   2.167   4.866  13.670  0.1237  0.2600 -0.2401
18871TIP3    H178028   2.078   4.874  13.636  0.5899  1.9964 -1.1427
18871TIP3    H278029   2.224   4.887  13.596  1.2106  2.7228  1.1699
18872TIP3   OH278030   5.429   6.798   4.775  0.2871 -0.2313  0.0578
18872TIP3    H178031   5.424   6.704   4.795  2.1586 -0.1255  1.2501
18872TIP3    H278032   5.523   6.815   4.765 -0.0190  1.5571  0.0160
18873TIP3   OH278033   1.602   3.679   4.617 -0.2249  0.3392  0.4033
18873TIP3    H178034   1.623   3.772   4.615  1.5890 -0.0198  1.2259
18873TIP3    H278035   1.584   3.657   4.526  1.6036  1.0188 -0.1536
18874TIP3   OH278036   3.752   0.010  14.041 -0.4317  0.0502  0.2453
18874TIP3    H178037   3.719  -0.076  14.014 -0.4137  0.6051 -1.6171
18874TIP3    H278038   3.699   0.031  14.118 -0.8517 -1.3571  0.3837
18875TIP3   OH278039   0.266   5.585   3.375 -0.4781 -0.3079  0.3129
18875TIP3    H178040   0.196   5.582   3.440  0.2198 -0.1745  1.0918
18875TIP3    H278041   0.323   5.512   3.398 -1.1007 -1.3099 -1.1985
18876TIP3   OH278042   5.016   0.085   2.078  0.4024  1.0226  0.1333
18876TIP3    H178043   4.990   0.007   2.030  1.8395  0.1961  0.6269
18876TIP3    H278044   4.980   0.158   2.027  0.9673  0.1419 -1.6282
18877TIP3   OH278045   2.283   6.972   1.752 -0.6234  0.3607 -0.2443
18877TIP3    H178046   2.213   6.992   1.690  0.2091  1.3062 -0.9187
18877TIP3    H278047   2.266   7.028   1.827 -1.4942 -0.6046  0.3008
18878TIP3   OH278048   3.369   0.104   1.961 -0.1491 -0.5122 -0.0338
18878TIP3    H178049   3.376   0.186   2.009  0.3361 -0.5640 -0.0068
18878TIP3    H278050   3.281   0.073   1.980 -0.6611  0.4479 -0.7900
18879TIP3   OH278051   2.748   0.576  12.192 -0.5881  0.1092  0.4033
18879TIP3    H178052   2.660   0.599  12.163 -0.5508 -0.0087  0.1901
18879TIP3    H278053   2.740   0.560  12.286 -1.0746 -1.2597  0.1516
18880TIP3   OH278054   6.669   6.882  13.254  0.9948  0.6725  0.2361
18880TIP3    H178055   6.590   6.831  13.237 -0.2182  2.1361  1.3145
18880TIP3    H278056   6.719   6.876  13.172  0.4510 -1.3773 -0.0138
18881TIP3   OH278057   6.741   3.870  13.909  0.8099  0.7101  0.0515
18881TIP3    H178058   6.800   3.867  13.984  0.8079  0.4398  0.0449
18881TIP3    H278059   6.756   3.955  13.869  1.9706  0.2413 -0.5784
18882TIP3   OH278060   0.656   6.562   4.881  0.0099 -0.0523  0.3021
18882TIP3    H178061   0.725   6.615   4.922 -1.0053  0.7593  1.0204
18882TIP3    H278062   0.581   6.622   4.874 -1.5731 -1.6838  2.1894
18883TIP3   OH278063   0.933   4.334  13.166 -0.1427  0.4240 -0.3467
18883TIP3    H178064   0.987   4.266  13.125  0.0492  0.5227 -0.2563
18883TIP3    H278065   0.845   4.320  13.130 -0.1321  0.0439 -0.2295
18884TIP3   OH278066   6.583   4.391   3.921 -0.0255  0.9972  0.2298
18884TIP3    H178067   6.506   4.390   3.865 -1.6111  1.5001  2.2560
18884TIP3    H278068   6.615   4.482   3.917 -1.1172  1.4575  1.3253
18885TIP3   OH278069   7.013   1.092   4.264  0.2545  0.8751 -0.4802
18885TIP3    H178070   6.971   1.023   4.316 -0.0078  0.0843 -1.7151
18885TIP3    H278071   6.943   1.124   4.207  0.9231  0.6417 -1.4498
18886TIP3   OH278072   5.826   4.153  15.069 -0.0142 -0.0457  0.0709
18886TIP3    H178073   5.853   4.213  15.138  1.0240 -0.3167 -0.0904
18886TIP3    H278074   5.816   4.207  14.991 -2.7878  0.5668  0.7300
18887TIP3   OH278075   6.115   0.570  15.485  0.0912  0.0852  0.2760
18887TIP3    H178076   6.097   0.528  15.569  1.8348 -1.3333 -0.0005
18887TIP3    H278077   6.154   0.654  15.508  0.4660 -0.2516  0.9017
18888TIP3   OH278078   1.612   2.488   4.368  0.0647 -1.0855 -0.1187
18888TIP3    H178079   1.708   2.485   4.373  0.2960 -0.9464 -2.7894
18888TIP3    H278080   1.595   2.537   4.287 -2.3252  0.8333  1.4367
18889TIP3   OH278081   4.355   3.721  14.142 -0.1394  0.6096  0.0229
18889TIP3    H178082   4.295   3.647  14.130 -0.1841  0.1968  2.3213
18889TIP3    H278083   4.316   3.792  14.092 -0.8197 -0.5307 -1.1298
18890TIP3   OH278084   7.063   6.336   3.295  0.5297 -0.0288  0.2971
18890TIP3    H178085   6.995   6.279   3.259 -0.1052  0.3825  0.8265
18890TIP3    H278086   7.064   6.412   3.238  1.0851 -0.3659 -0.1588
18891TIP3   OH278087   6.941   1.350   2.274  0.3474  0.5836 -0.5939
18891TIP3    H178088   6.920   1.277   2.332 -0.8345  2.6847  1.8213
18891TIP3    H278089   7.028   1.329   2.240  0.0307 -1.9346 -0.0741
18892TIP3   OH278090   5.809   5.836  11.088  0.7408 -0.1628 -0.6017
18892TIP3    H178091   5.805   5.755  11.140  3.0228  0.6641  1.0590
18892TIP3    H278092   5.746   5.894  11.130  1.8008  0.1337  0.6684
18893TIP3   OH278093   1.740   4.209  12.053 -0.0550  0.4819 -0.1915
18893TIP3    H178094   1.723   4.240  11.965 -0.0622 -0.1899 -0.4319
18893TIP3    H278095   1.836   4.207  12.060 -0.0517  0.2285 -0.2970
18894TIP3   OH278096   0.446   6.767   5.230  0.6975 -0.1804  0.1777
18894TIP3    H178097   0.379   6.699   5.220  2.0350 -1.7153  1.1154
18894TIP3    H278098   0.396   6.848   5.242 -0.9643 -1.0456 -0.4901
18895TIP3   OH278099   0.343   5.395   5.678 -0.4572 -0.6309  0.4963
18895TIP3    H178100   0.353   5.325   5.742  0.6146  1.7063  3.0908
18895TIP3    H278101   0.310   5.469   5.728  0.2880  1.3105 -1.6860
18896TIP3   OH278102   1.791   5.406   0.291 -0.7568  0.5823  0.2784
18896TIP3    H178103   1.723   5.344   0.267  0.1561 -0.1908 -0.3697
18896TIP3    H278104   1.839   5.423   0.210  0.1648  0.6849  0.8213
18897TIP3   OH278105   3.553   2.818   5.388  0.5037  0.2851  0.5162
18897TIP3    H178106   3.478   2.874   5.370  0.5962  0.4313  0.5836
18897TIP3    H278107   3.518   2.729   5.382  0.3631  0.3476  0.3784
18898TIP3   OH278108   4.205   4.088   2.450  0.3725  0.1967 -1.1666
18898TIP3    H178109   4.157   4.170   2.453  0.4820  0.2530 -0.9124
18898TIP3    H278110   4.170   4.042   2.374 -1.2266 -0.4454 -0.1167
18899TIP3   OH278111   6.719   6.428   3.269 -0.0853  0.5870  0.4383
18899TIP3    H178112   6.648   6.363   3.269 -0.4698  0.9951 -0.2597
18899TIP3    H278113   6.704   6.479   3.349  1.0657 -1.0499  1.7814
18900TIP3   OH278114   1.122   3.806   3.732 -0.0342 -0.4949 -0.2369
18900TIP3    H178115   1.072   3.817   3.813  2.6968 -0.5498  1.5969
18900TIP3    H278116   1.094   3.721   3.698 -0.5309 -0.9502  1.2150
18901TIP3   OH278117   0.359   1.335   1.622  0.3773 -0.4290 -0.2393
18901TIP3    H178118   0.341   1.383   1.541  0.1450  1.0866  0.6757
18901TIP3    H278119   0.352   1.401   1.691  0.7796 -1.6454  1.0045
18902TIP3   OH278120   0.633   4.296   3.721 -0.8088  0.6533  0.2171
18902TIP3    H178121   0.609   4.365   3.659 -0.6691  1.0447  0.5980
18902TIP3    H278122   0.556   4.286   3.777 -1.7182 -1.0871 -1.2354
18903TIP3   OH278123   1.267   5.075   0.612 -0.4682 -0.4446  0.1668
18903TIP3    H178124   1.230   5.035   0.534 -0.7587 -0.4976  0.3296
18903TIP3    H278125   1.212   5.044   0.684 -0.2748 -0.3052  0.3792
18904TIP3   OH278126   1.846   4.848   0.672  0.4545 -0.0207 -0.4730
18904TIP3    H178127   1.842   4.885   0.760  1.0136 -1.6234  0.2741
18904TIP3    H278128   1.834   4.923   0.613 -2.1251  0.8110  0.9480
18905TIP3   OH278129   5.361   4.459   2.558  0.0500  0.5634  0.0177
18905TIP3    H178130   5.389   4.378   2.516  0.4702  0.8518 -0.2687
18905TIP3    H278131   5.436   4.517   2.550 -0.5720  1.2941 -0.5986
18906TIP3   OH278132   2.871   1.153  14.051  0.3642  0.0425 -0.5755
18906TIP3    H178133   2.965   1.163  14.035  0.1723  0.5374 -1.5061
18906TIP3    H278134   2.832   1.224  14.000 -0.4395  0.6255  0.7995
18907TIP3   OH278135   4.491   0.998   4.090 -0.0889 -0.4520  0.3163
18907TIP3    H178136   4.466   0.924   4.035  1.3541 -0.3995 -0.4718
18907TIP3    H278137   4.525   0.958   4.170 -1.9541 -0.5345  1.1251
18908TIP3   OH278138   2.986   2.373   3.042 -0.3765 -0.0465  0.7267
18908TIP3    H178139   2.938   2.385   2.960  0.9539  0.8051  0.0361
18908TIP3    H278140   3.069   2.418   3.028  0.7292 -1.6352  1.8078
18909TIP3   OH278141   3.408   6.036   5.354 -0.4106  0.2359 -0.5430
18909TIP3    H178142   3.436   5.944   5.359 -1.8895 -0.1934  0.1908
18909TIP3    H278143   3.328   6.034   5.301  0.1639  1.2694 -1.4948
18910TIP3   OH278144   1.740   5.363   5.366  0.4655  0.1088  0.6991
18910TIP3    H178145   1.747   5.301   5.438 -0.3921 -0.2557  0.4849
18910TIP3    H278146   1.681   5.431   5.399  2.6316  1.7296  1.5372
18911TIP3   OH278147   3.565   3.241  14.613 -0.1067 -0.4875 -0.0758
18911TIP3    H178148   3.582   3.189  14.692  0.2576 -1.1070 -0.5478
18911TIP3    H278149   3.498   3.191  14.566 -0.5804  0.0618  0.0055
18912TIP3   OH278150   5.023   4.289   2.388  0.1020 -0.5055 -0.3855
18912TIP3    H178151   5.107   4.253   2.418 -0.1213 -1.3642 -0.7512
18912TIP3    H278152   4.958   4.248   2.445  0.0548  1.9042  1.4656
18913TIP3   OH278153   6.930   6.234   2.486 -0.1239  0.1273  0.1352
18913TIP3    H178154   7.006   6.248   2.543  0.2027  1.3718 -0.5669
18913TIP3    H278155   6.865   6.298   2.518 -0.4032 -0.0498 -0.0799
18914TIP3   OH278156   1.966   6.664   3.594  0.4654 -0.6846  0.2493
18914TIP3    H178157   2.001   6.724   3.528  1.5606 -1.0149  0.5001
18914TIP3    H278158   2.000   6.698   3.677 -0.3365 -0.6654  0.5817
18915TIP3   OH278159   4.937   1.043   5.275  0.2508 -0.2061 -0.2489
18915TIP3    H178160   4.903   1.109   5.336  0.8663  0.2383 -0.3667
18915TIP3    H278161   4.869   1.033   5.209  0.8100  1.5501 -1.1489
18916TIP3   OH278162   0.965   3.097  10.998 -0.1845 -0.0288 -0.2955
18916TIP3    H178163   0.964   3.072  11.090 -1.6026 -2.2359 -0.8444
18916TIP3    H278164   0.878   3.133  10.982  0.6982  2.2655 -0.3727
18917TIP3   OH278165   5.616   1.990   3.819 -0.0362  0.1356 -0.2679
18917TIP3    H178166   5.633   1.896   3.818  1.5064  0.2944  2.0818
18917TIP3    H278167   5.679   2.027   3.757  1.2532 -0.1749  0.8341
18918TIP3   OH278168   5.942   1.207  15.282 -0.3278  0.3158  0.2466
18918TIP3    H178169   5.917   1.133  15.337  1.0798 -1.0427 -0.8341
18918TIP3    H278170   5.969   1.274  15.344  0.0272 -0.7148  1.2522
18919TIP3   OH278171   1.872   5.258   3.351  0.1291  0.4601 -0.4695
18919TIP3    H178172   1.909   5.327   3.406 -0.5847  0.1938  0.3744
18919TIP3    H278173   1.933   5.249   3.278 -1.1034  3.9171 -2.1688
18920TIP3   OH278174   6.414   2.134   5.115 -0.1071 -0.1302  0.2910
18920TIP3    H178175   6.385   2.043   5.108 -0.5517  0.1215 -2.0116
18920TIP3    H278176   6.498   2.128   5.161  0.2434 -1.8054 -0.4700
18921TIP3   OH278177   5.193   5.313   2.224  0.1864 -0.4827 -0.1884
18921TIP3    H178178   5.238   5.327   2.308 -0.1129 -0.7967  0.0239
18921TIP3    H278179   5.197   5.219   2.210 -0.8561 -0.5707  0.0789
18922TIP3   OH278180   3.078   3.559   2.519  0.5675 -0.4191 -0.2674
18922TIP3    H178181   3.032   3.621   2.575  3.4431  1.4550  0.1981
18922TIP3    H278182   3.010   3.498   2.489 -1.6139  0.3621  2.7248
18923TIP3   OH278183   6.121   4.475   4.743 -0.4080 -0.1722  0.3094
18923TIP3    H178184   6.217   4.465   4.741 -0.1540  1.6048  1.1711
18923TIP3    H278185   6.098   4.465   4.835 -0.7591  1.3939  0.4259
18924TIP3   OH278186   4.781   7.051   2.590  0.2271  0.5653 -0.4376
18924TIP3    H178187   4.776   7.000   2.671 -0.7667  0.6105 -0.4657
18924TIP3    H278188   4.712   7.015   2.535 -0.3257  1.7773 -0.5551
18925TIP3   OH278189   4.850   6.560   2.550 -0.3502  0.6104  0.0738
18925TIP3    H178190   4.854   6.632   2.487  1.0946 -0.4624 -1.1260
18925TIP3    H278191   4.876   6.483   2.500  1.3371 -0.2032  2.0755
18926TIP3   OH278192   0.210   3.479   5.204 -0.3643  0.9910  0.4249
18926TIP3    H178193   0.123   3.518   5.192 -0.6207  0.2942  0.0093
18926TIP3    H278194   0.201   3.389   5.173  1.3178  1.7811 -2.9039
18927TIP3   OH278195   0.427   4.757   1.048 -0.3923  0.1247 -0.4972
18927TIP3    H178196   0.519   4.784   1.049  0.0513 -1.3009 -0.7248
18927TIP3    H278197   0.393   4.791   0.965  0.3371 -0.5523 -1.0967
18928TIP3   OH278198   3.285   4.647   2.481  0.1371 -0.0881  0.4238
18928TIP3    H178199   3.301   4.689   2.396  0.5819 -0.3083  0.3949
18928TIP3    H278200   3.328   4.704   2.544  0.4689 -0.3318  0.4184
18929TIP3   OH278201   6.126   0.113   1.869  0.3125 -0.3977 -0.1197
18929TIP3    H178202   6.041   0.110   1.913  0.2698  0.8593 -0.0890
18929TIP3    H278203   6.189   0.089   1.936  0.0986 -0.0736  0.1971
18930TIP3   OH278204   5.035   3.495   5.174 -0.4336 -0.0504 -0.1099
18930TIP3    H178205   5.046   3.536   5.088  0.6444 -0.0660  0.0061
18930TIP3    H278206   5.104   3.534   5.227 -2.7735  2.0823  1.5908
18931TIP3   OH278207   3.401   0.926   4.545  0.0416  0.0191 -0.4858
18931TIP3    H178208   3.432   1.012   4.517 -1.7579  0.6749 -0.5680
18931TIP3    H278209   3.310   0.940   4.570 -1.0027 -2.2759 -2.6161
18932TIP3   OH278210   2.744   6.942   2.199 -0.0259 -0.9255 -0.6077
18932TIP3    H178211   2.780   6.864   2.242  0.9373  0.0022  0.3108
18932TIP3    H278212   2.703   6.992   2.269  1.1154  0.3622 -0.8109
18933TIP3   OH278213   1.295   6.218   5.553  0.2386  0.0239 -0.4381
18933TIP3    H178214   1.347   6.230   5.632  0.2393  0.7396 -0.5438
18933TIP3    H278215   1.217   6.172   5.582  0.2125  0.3363 -0.0087
18934TIP3   OH278216   3.446   0.378   2.026  0.5350  0.1827  1.0397
18934TIP3    H178217   3.484   0.411   1.945  1.9240  0.2098  1.6689
18934TIP3    H278218   3.502   0.414   2.095 -2.2161  2.4977  2.2724
18935TIP3   OH278219   1.363   5.400   3.100  0.5403  0.2506 -0.1556
18935TIP3    H178220   1.329   5.485   3.127 -0.0576 -0.4364  1.3131
18935TIP3    H278221   1.458   5.413   3.097  0.4929  0.8226  0.5553
18936TIP3   OH278222   1.899   2.854  13.348 -0.8942 -0.1206 -0.3187
18936TIP3    H178223   1.814   2.809  13.340  1.0994 -4.2950 -0.4889
18936TIP3    H278224   1.958   2.803  13.293  1.7400  2.9150 -0.5533
18937TIP3   OH278225   6.128   1.732  14.720  0.1439  0.0217  0.4201
18937TIP3    H178226   6.041   1.769  14.706  0.4507  1.5393  2.0884
18937TIP3    H278227   6.113   1.641  14.745 -0.8331 -0.2205 -0.9839
18938TIP3   OH278228   2.970   3.196   2.725  0.1673  0.0562 -0.0250
18938TIP3    H178229   2.901   3.193   2.659 -0.0221  0.2621  0.1655
18938TIP3    H278230   2.978   3.106   2.755  1.6402 -0.4630 -1.7644
18939TIP3   OH278231   1.948   5.463   3.083 -0.0926 -0.3118  0.3373
18939TIP3    H178232   1.998   5.524   3.029 -0.5644  0.8816  1.1828
18939TIP3    H278233   2.014   5.409   3.126  0.2990 -1.0114 -1.0999
18940TIP3   OH278234   4.583   1.069  10.809 -0.1220 -0.1102  0.2384
18940TIP3    H178235   4.637   1.108  10.741  0.2083  1.2523  1.2391
18940TIP3    H278236   4.625   0.986  10.829  1.0063  0.4561  0.2765
18941TIP3   OH278237   7.027   6.746   2.097  0.0462  0.6175  0.3407
18941TIP3    H178238   7.102   6.796   2.126 -0.5999  0.9881  1.4256
18941TIP3    H278239   7.044   6.657   2.126  0.0022  0.7297  0.7131
18942TIP3   OH278240   6.291   6.384  13.797 -0.1526 -0.0576 -0.0837
18942TIP3    H178241   6.207   6.418  13.767 -0.1150 -0.1455 -0.2936
18942TIP3    H278242   6.352   6.457  13.788 -0.1038 -0.1356 -0.3908
18943TIP3   OH278243   3.698   5.759   3.101  0.3286  0.0613 -0.0999
18943TIP3    H178244   3.718   5.666   3.114  1.5296 -0.0695 -2.4022
18943TIP3    H278245   3.612   5.770   3.142 -0.0788 -2.1830 -0.1968
18944TIP3   OH278246   0.816   3.044   0.241  0.4570  0.0919 -0.2871
18944TIP3    H178247   0.854   3.101   0.308  0.4046  0.7944 -0.8405
18944TIP3    H278248   0.887   2.985   0.215  0.4978 -0.1286  0.3263
18945TIP3   OH278249   3.693   2.034   2.030  0.6705  0.3931  0.4006
18945TIP3    H178250   3.728   1.965   1.974 -0.5814 -0.3255  0.4696
18945TIP3    H278251   3.598   2.023   2.025  0.4920  1.2916  1.4441
18946TIP3   OH278252   0.826   5.556   4.832  0.2095  0.0496 -0.4164
18946TIP3    H178253   0.733   5.571   4.848 -0.0191  0.4147 -1.9378
18946TIP3    H278254   0.870   5.594   4.908 -0.8815 -0.4931  0.5300
18947TIP3   OH278255   4.334   5.266   0.983 -0.2205 -0.0065 -0.4595
18947TIP3    H178256   4.352   5.322   0.908 -0.9475  1.4781  0.4366
18947TIP3    H278257   4.410   5.278   1.040  0.2834 -1.0539 -0.8807
18948TIP3   OH278258   6.741   1.071   4.699  0.8584 -0.7653  0.0091
18948TIP3    H178259   6.736   1.167   4.702 -0.4150 -0.8162  0.1303
18948TIP3    H278260   6.697   1.042   4.779 -0.8110 -1.4626 -1.1016
18949TIP3   OH278261   6.910   2.772   4.336  0.1590 -0.0806  0.7227
18949TIP3    H178262   6.867   2.846   4.379  0.4366 -1.2085  3.1055
18949TIP3    H278263   6.839   2.714   4.311 -0.0964  1.0969 -1.5578
18950TIP3   OH278264   5.532   1.616   1.846  0.0335  0.2037  0.2655
18950TIP3    H178265   5.614   1.663   1.860 -0.8300  1.4209  1.4275
18950TIP3    H278266   5.468   1.661   1.901 -0.9001 -2.2538  1.3623
18951TIP3   OH278267   0.091   1.432   1.840  0.0898  0.1474 -0.2940
18951TIP3    H178268   0.098   1.505   1.902 -2.1461  0.6956 -0.5924
18951TIP3    H278269   0.094   1.473   1.754 -0.1785 -0.2291 -0.4868
18952TIP3   OH278270   3.031   2.096   1.962 -0.2748  0.0127 -0.2797
18952TIP3    H178271   2.996   2.011   1.936 -1.3511  1.1141 -2.6798
18952TIP3    H278272   2.955   2.155   1.961  0.4389  1.0609  1.3377
18953TIP3   OH278273   4.295   1.756  13.844 -0.1517 -0.0365 -0.0444
18953TIP3    H178274   4.241   1.733  13.768 -0.2112  1.1393 -0.3820
18953TIP3    H278275   4.264   1.699  13.914 -0.5975 -0.6281 -0.7129
18954TIP3   OH278276   1.868   3.596   3.476 -0.3829 -0.0776 -0.0597
18954TIP3    H178277   1.903   3.516   3.514  0.5522  0.4213  0.1742
18954TIP3    H278278   1.803   3.567   3.412  0.6063 -1.0602 -0.6505
18955TIP3   OH278279   4.247   1.905   5.245  0.1155  0.0580 -0.4701
18955TIP3    H178280   4.194   1.826   5.244  0.3582 -0.1571  0.8926
18955TIP3    H278281   4.225   1.947   5.329  0.9981  0.7223 -0.5547
18956TIP3   OH278282   7.044   0.504   5.217  0.5577  0.5094  0.0045
18956TIP3    H178283   7.087   0.418   5.217  0.1771  0.2979  1.4338
18956TIP3    H278284   6.994   0.505   5.135 -2.2170 -2.1084  1.4943
18957TIP3   OH278285   6.240   2.196   1.039  0.0648  0.1328  0.1212
18957TIP3    H178286   6.187   2.229   0.966 -2.2254  0.6228  1.8821
18957TIP3    H278287   6.235   2.101   1.031  1.2574  0.1427 -1.2591
18958TIP3   OH278288   0.354   2.957   3.171 -0.0167 -0.0969  0.0897
18958TIP3    H178289   0.363   3.053   3.169 -2.1375  0.1510  0.2984
18958TIP3    H278290   0.349   2.936   3.264  0.7610 -0.4713  0.0560
18959TIP3   OH278291   6.967   1.712   4.006 -0.4644  0.3678 -0.0485
18959TIP3    H178292   6.966   1.654   3.930  2.0938  0.1771 -0.0345
18959TIP3    H278293   6.928   1.660   4.076 -0.5144 -0.4048 -0.6376
18960TIP3   OH278294   6.660   5.148   3.070 -0.2115  0.8005  0.1388
18960TIP3    H178295   6.683   5.226   3.019 -2.0227  0.0861 -1.9071
18960TIP3    H278296   6.665   5.177   3.161  0.6414  2.8624 -0.4973
18961TIP3   OH278297   5.663   4.356  14.085  0.1902  0.6252  0.3667
18961TIP3    H178298   5.719   4.393  14.153 -0.6011  1.8029  0.4069
18961TIP3    H278299   5.608   4.430  14.056 -0.8714 -0.3321 -0.1323
18962TIP3   OH278300   0.816   5.910   3.870 -0.3592  0.4337  0.1134
18962TIP3    H178301   0.816   5.962   3.789 -0.8015 -2.8855 -2.2010
18962TIP3    H278302   0.726   5.915   3.902 -0.6447  0.2901 -0.6469
18963TIP3   OH278303   6.107   2.276   0.816  0.1789 -0.3018  0.3224
18963TIP3    H178304   6.089   2.361   0.776 -1.4807 -1.3537 -1.3727
18963TIP3    H278305   6.027   2.254   0.863  1.7204  0.4214  3.5665
18964TIP3   OH278306   0.841   1.286   1.886  0.3894  0.2686 -0.6262
18964TIP3    H178307   0.855   1.379   1.870  0.4122  0.0125 -2.3099
18964TIP3    H278308   0.922   1.244   1.857  1.2024 -0.1630  1.9852
18965TIP3   OH278309   5.275   1.321  14.263  0.0585  0.0615  0.0098
18965TIP3    H178310   5.348   1.329  14.324 -3.6596  1.2718  4.8654
18965TIP3    H278311   5.264   1.409  14.227  1.0975 -0.2322 -1.1281
18966TIP3   OH278312   3.968   5.203   0.390 -0.4395  0.4504 -0.0286
18966TIP3    H178313   4.002   5.195   0.300  1.1637  1.6409  0.4208
18966TIP3    H278314   3.881   5.242   0.380 -0.1602  0.8329 -1.0522
18967TIP3   OH278315   0.558   5.864   3.955 -0.1186 -0.3270 -0.0949
18967TIP3    H178316   0.524   5.798   4.016  0.3644 -1.0828 -0.6297
18967TIP3    H278317   0.499   5.938   3.965  0.9038  0.2683  2.5728
18968TIP3   OH278318   6.576   2.515  13.815 -0.0140 -0.4194  0.5566
18968TIP3    H178319   6.514   2.479  13.879  0.9949  0.1122  1.8963
18968TIP3    H278320   6.565   2.610  13.823 -0.8870 -0.3438 -1.1398
18969TIP3   OH278321   3.687   6.885   1.663 -0.0971  0.2513  0.1580
18969TIP3    H178322   3.598   6.918   1.667  0.6854  2.8160 -1.3275
18969TIP3    H278323   3.720   6.895   1.752 -0.8983  0.4551  0.4411
18970TIP3   OH278324   2.896   0.406   4.485  0.2061 -0.0099  0.1949
18970TIP3    H178325   2.988   0.399   4.513 -0.1005  0.6923  1.4431
18970TIP3    H278326   2.855   0.461   4.552 -1.2857 -0.8988  0.0497
18971TIP3   OH278327   3.625   5.791  14.000  0.5183 -0.0609  0.1024
18971TIP3    H178328   3.692   5.813  14.065 -1.0446  1.8345  1.2244
18971TIP3    H278329   3.671   5.744  13.931  2.9537  1.0288  0.8864
18972TIP3   OH278330   1.620   0.476   3.280  0.0669  0.2251 -0.5915
18972TIP3    H178331   1.635   0.384   3.263 -1.8062  0.0570 -1.6531
18972TIP3    H278332   1.617   0.517   3.193  0.0196  1.1146 -0.1863
18973TIP3   OH278333   4.028   0.261   3.218 -0.3795 -0.1843  0.0856
18973TIP3    H178334   3.971   0.333   3.191 -1.4884 -1.6239 -1.6856
18973TIP3    H278335   4.041   0.274   3.312 -2.7882  0.7974  0.3630
18974TIP3   OH278336   0.578   0.311   3.250  0.5245 -0.0007  0.7155
18974TIP3    H178337   0.487   0.296   3.225  0.8521  1.0456 -1.2911
18974TIP3    H278338   0.583   0.404   3.269  1.4648  0.2540 -0.6488
18975TIP3   OH278339   0.887   2.968   5.426  0.1928  0.4485 -0.2749
18975TIP3    H178340   0.956   2.909   5.459 -0.3505 -0.2441 -0.3545
18975TIP3    H278341   0.911   3.054   5.461  0.1183 -0.0952  1.1976
18976TIP3   OH278342   0.207   0.479   4.700  0.1273 -0.2067  0.8517
18976TIP3    H178343   0.300   0.455   4.701 -0.1886 -1.5587  1.0485
18976TIP3    H278344   0.201   0.553   4.760  1.2590  0.7070 -0.1227
18977TIP3   OH278345   3.891   2.523   1.597 -0.0173 -0.7801  0.0663
18977TIP3    H178346   3.866   2.555   1.510 -0.3472 -0.2611  0.3431
18977TIP3    H278347   3.983   2.501   1.589 -0.0030 -0.5762 -0.3766
18978TIP3   OH278348   2.081   6.893   5.381  0.5914  0.4692  0.0541
18978TIP3    H178349   2.144   6.836   5.338  1.3627  1.7457 -0.5763
18978TIP3    H278350   2.100   6.884   5.475  2.3471  1.4860 -0.1592
18979TIP3   OH278351   6.154   4.145   0.418 -0.4888 -0.1163  0.4397
18979TIP3    H178352   6.098   4.172   0.490  2.2750  1.2181  2.2485
18979TIP3    H278353   6.190   4.227   0.383  1.1687 -0.9396  0.1077
18980TIP3   OH278354   1.348   1.673   4.445 -0.6731 -0.5565  0.1988
18980TIP3    H178355   1.300   1.610   4.391 -1.3351  0.0683  0.0469
18980TIP3    H278356   1.306   1.757   4.428  1.7774  0.4467 -1.5957
18981TIP3   OH278357   6.855   5.127   4.284 -0.0712  0.1874 -0.2622
18981TIP3    H178358   6.927   5.072   4.314 -1.0381 -2.4316 -2.3585
18981TIP3    H278359   6.789   5.066   4.252 -0.6499  2.4729 -4.1503
18982TIP3   OH278360   4.359   1.075  12.959  0.0301  0.0567  0.8071
18982TIP3    H178361   4.297   1.095  12.890 -0.1184  0.8982  1.1820
18982TIP3    H278362   4.358   1.151  13.017  0.3062 -0.5427  1.6289
18983TIP3   OH278363   6.569   5.489   2.077  0.1385  0.0619 -0.3949
18983TIP3    H178364   6.641   5.544   2.109  0.7723 -1.1281  0.3217
18983TIP3    H278365   6.524   5.543   2.013  0.2365  1.7113  0.8543
18984TIP3   OH278366   3.470   1.926   4.926  0.0485 -0.0247 -0.1790
18984TIP3    H178367   3.425   1.957   4.847 -3.8156  1.7698  2.4550
18984TIP3    H278368   3.516   2.002   4.959  2.2363 -0.9477 -0.8917
18985TIP3   OH278369   1.708   6.124   4.863 -0.3377  0.1320 -0.5279
18985TIP3    H178370   1.630   6.170   4.895 -1.5330 -0.8587 -1.8915
18985TIP3    H278371   1.702   6.131   4.768  2.3341  1.7545 -0.6944
18986TIP3   OH278372   6.893   1.587   5.075 -0.5191  0.0060 -0.4188
18986TIP3    H178373   6.927   1.506   5.038 -0.6086 -0.2251 -0.0023
18986TIP3    H278374   6.964   1.618   5.132 -1.6535 -1.4586  1.9543
18987TIP3   OH278375   4.025   2.110  13.656  0.7622 -0.4495  0.2730
18987TIP3    H178376   3.935   2.078  13.645  0.2489  0.7459  0.8263
18987TIP3    H278377   4.068   2.087  13.574 -0.8711  1.5231 -1.2354
18988TIP3   OH278378   3.445   6.400   5.348  0.3176  0.8885 -0.0889
18988TIP3    H178379   3.447   6.496   5.342 -0.9800  1.2108  2.6893
18988TIP3    H278380   3.494   6.380   5.428 -0.6332 -0.6057  0.1679
18989TIP3   OH278381   3.638   0.270   3.422  0.1551  0.4481 -0.2529
18989TIP3    H178382   3.659   0.318   3.343  1.7009 -0.1587 -0.2455
18989TIP3    H278383   3.660   0.179   3.401 -2.6630 -0.3118 -0.2622
18990TIP3   OH278384   4.388   0.077   0.089 -0.8604 -0.0675  0.0305
18990TIP3    H178385   4.334   0.028   0.150  0.1096 -0.5201  0.5564
18990TIP3    H278386   4.478   0.055   0.113 -0.4455 -0.0203 -1.3724
18991TIP3   OH278387   5.305   2.621  10.762 -0.0257 -0.3652 -0.2140
18991TIP3    H178388   5.354   2.688  10.714  0.3553 -0.4049  0.1153
18991TIP3    H278389   5.271   2.562  10.693 -0.9888  0.5614 -0.5626
18992TIP3   OH278390   1.916   3.463   3.802 -0.1904 -0.3449 -1.0110
18992TIP3    H178391   1.929   3.463   3.707  0.6976 -1.3003 -0.9013
18992TIP3    H278392   1.895   3.554   3.823 -0.8186 -0.2010 -2.1738
18993TIP3   OH278393   2.234   5.518   3.513  0.4512 -0.3219 -0.4238
18993TIP3    H178394   2.210   5.552   3.427  0.9562 -0.2768 -0.5480
18993TIP3    H278395   2.193   5.579   3.575 -1.7107 -1.5326 -0.5790
18994TIP3   OH278396   1.290   6.792   4.722  0.1293 -0.4131  0.5126
18994TIP3    H178397   1.316   6.731   4.652 -0.5852  0.3787 -0.4687
18994TIP3    H278398   1.371   6.835   4.747  0.5068 -1.1864  0.6469
18995TIP3   OH278399   2.095   4.974  12.386 -0.6903 -0.1839  0.2132
18995TIP3    H178400   2.055   4.887  12.383 -1.2949  0.0983 -1.9561
18995TIP3    H278401   2.029   5.032  12.347  1.5882  0.3540 -3.2794
18996TIP3   OH278402   4.805   0.563   1.643 -0.0957 -0.0783 -0.4791
18996TIP3    H178403   4.794   0.473   1.612 -0.5895  0.0865 -0.7997
18996TIP3    H278404   4.721   0.584   1.684  0.6634 -0.4305  1.3796
18997TIP3   OH278405   4.118   0.631  14.981  0.0750  0.8840  0.1879
18997TIP3    H178406   4.034   0.622  15.025  0.5940  0.5394  1.1448
18997TIP3    H278407   4.096   0.634  14.888 -0.9649  0.4120  0.4006
18998TIP3   OH278408   5.723   1.156  15.110 -0.2000 -0.2844 -0.0278
18998TIP3    H178409   5.771   1.082  15.073 -2.1741 -1.7962  0.2875
18998TIP3    H278410   5.785   1.198  15.170  1.6292 -0.3972 -1.7402
18999TIP3   OH278411   0.958   4.392   4.696 -0.0903 -0.0740  0.0950
18999TIP3    H178412   0.989   4.322   4.754  0.4519 -0.0712 -0.1837
18999TIP3    H278413   0.971   4.357   4.608  2.2882  1.1989 -0.1320
19000TIP3   OH278414   1.289   0.937   6.003  0.4662  0.2059  0.0406
19000TIP3    H178415   1.304   1.027   5.975  1.2448 -0.0288 -0.3358
19000TIP3    H278416   1.377   0.903   6.023  0.4050 -1.0295 -1.5698
19001TIP3   OH278417   4.314   3.045  15.124 -0.4984  0.2464 -0.0323
19001TIP3    H178418   4.370   3.061  15.200 -0.8080 -0.6336  0.3911
19001TIP3    H278419   4.360   3.087  15.051  0.1273  0.5337  0.5204
19002TIP3   OH278420   4.644   5.653   3.987  0.2844 -0.1613 -0.3609
19002TIP3    H178421   4.599   5.624   4.067  1.4583 -1.3407 -0.1044
19002TIP3    H278422   4.573   5.680   3.929 -0.6934 -0.8243  0.4850
19003TIP3   OH278423   1.197   4.521   4.462 -0.3957 -0.5060  0.0117
19003TIP3    H178424   1.261   4.584   4.429 -1.3641  0.1879 -0.5867
19003TIP3    H278425   1.143   4.571   4.524  0.7389 -1.5294  1.9497
19004TIP3   OH278426   6.796   1.151   3.023 -0.1553 -0.7868 -0.1556
19004TIP3    H178427   6.834   1.238   3.031 -1.4186 -0.2505  0.1669
19004TIP3    H278428   6.766   1.145   2.933  2.7922 -2.1349 -1.1716
19005TIP3   OH278429   2.990   4.193   2.203  0.1323 -0.0065  0.4985
19005TIP3    H178430   2.916   4.174   2.261  1.1754  0.0463  1.8981
19005TIP3    H278431   3.032   4.108   2.188  0.7723  0.1920  1.1142
19006TIP3   OH278432   5.736   1.334   3.859  0.2419 -0.3579 -0.1428
19006TIP3    H178433   5.808   1.272   3.855  0.2561 -0.3385 -0.1906
19006TIP3    H278434   5.748   1.380   3.942 -1.5853 -2.6197  1.4800
19007TIP3   OH278435   0.599   3.581   3.303 -0.0111 -0.3429  0.1557
19007TIP3    H178436   0.544   3.592   3.381  0.0430 -1.6195  0.3911
19007TIP3    H278437   0.685   3.557   3.338 -0.2579 -2.0215 -0.2921
19008TIP3   OH278438   0.637   3.174   3.773  0.3372  0.2316  0.5886
19008TIP3    H178439   0.722   3.149   3.738  0.5973  0.7837  0.8170
19008TIP3    H278440   0.577   3.169   3.698  0.7070  0.5163  0.2716
19009TIP3   OH278441   5.401   0.588  13.057  0.4343  0.2336 -0.1823
19009TIP3    H178442   5.464   0.644  13.102  2.3440 -0.2358 -2.0692
19009TIP3    H278443   5.454   0.518  13.019 -1.1093  0.2048 -2.4905
19010TIP3   OH278444   0.827   4.763   0.688  0.1800 -0.2941 -0.0158
19010TIP3    H178445   0.787   4.848   0.668 -0.7735 -0.6251  0.4301
19010TIP3    H278446   0.867   4.736   0.606  0.1262  0.3897 -0.2770
19011TIP3   OH278447   1.329   1.777   3.660  0.3039 -0.4899  0.2025
19011TIP3    H178448   1.352   1.830   3.737  0.9222  0.7918 -0.8351
19011TIP3    H278449   1.402   1.718   3.649  0.8821  0.2930 -0.2284
19012TIP3   OH278450   6.299   5.812   1.462 -0.1120  0.3680  0.2477
19012TIP3    H178451   6.312   5.827   1.368 -2.3709 -1.4204 -0.4432
19012TIP3    H278452   6.358   5.739   1.483 -0.5459 -0.0849 -0.0961
19013TIP3   OH278453   2.127   2.683   1.232 -0.3386  0.3884 -0.5696
19013TIP3    H178454   2.071   2.688   1.154 -0.0312  0.3703 -0.7944
19013TIP3    H278455   2.209   2.645   1.200  0.0105  0.9551 -0.3551
19014TIP3   OH278456   6.198   6.794   1.129 -0.1745  0.3267 -0.3676
19014TIP3    H178457   6.292   6.783   1.116  0.0514 -0.2662  1.4508
19014TIP3    H278458   6.190   6.818   1.222 -1.9207 -1.3243 -0.0491
19015TIP3   OH278459   4.450   3.194   3.624  0.7007 -0.2252  0.4535
19015TIP3    H178460   4.541   3.193   3.653  0.6721  1.8400  0.7482
19015TIP3    H278461   4.454   3.168   3.531  1.8213  1.5213 -0.0266
19016TIP3   OH278462   6.175   2.866   0.374 -0.2653  0.9672  0.2136
19016TIP3    H178463   6.195   2.838   0.284 -0.1254 -1.5635  0.9554
19016TIP3    H278464   6.229   2.944   0.387  2.4328 -0.5858 -0.7922
19017TIP3   OH278465   4.470   0.211  14.864  0.1005 -0.2770  0.2356
19017TIP3    H178466   4.520   0.290  14.884  0.0735 -0.4137  0.8628
19017TIP3    H278467   4.378   0.239  14.866  0.1281 -0.1048 -0.5608
19018TIP3   OH278468   3.119   4.500   1.843  0.7647 -0.5678 -0.3433
19018TIP3    H178469   3.040   4.454   1.870  0.3543  0.0270 -0.5189
19018TIP3    H278470   3.190   4.439   1.863  0.1901 -1.4933 -1.0674
19019TIP3   OH278471   1.776   2.457   1.099 -0.1292  0.4094  0.2065
19019TIP3    H178472   1.750   2.437   1.189  1.4689  1.3889  0.9165
19019TIP3    H278473   1.696   2.492   1.059 -0.8989 -0.1653  1.1799
19020TIP3   OH278474   0.427   2.463   4.709 -0.0051  0.4215 -0.0783
19020TIP3    H178475   0.421   2.432   4.619 -1.3193  1.0687 -0.2444
19020TIP3    H278476   0.449   2.556   4.701  2.0605  0.0071  0.3557
19021TIP3   OH278477   3.279   0.703   2.289  0.0832 -0.1687  0.3621
19021TIP3    H178478   3.345   0.686   2.222  2.4523  0.6554  2.3694
19021TIP3    H278479   3.204   0.737   2.240  1.7032  0.4181 -1.8755
19022TIP3   OH278480   2.248   3.155   0.883  0.2301 -0.2625  0.0320
19022TIP3    H178481   2.326   3.150   0.938 -0.1254 -1.0166  0.4878
19022TIP3    H278482   2.177   3.127   0.940 -0.2691 -0.2783 -0.5861
19023TIP3   OH278483   1.959   6.219   4.937  0.1610 -0.2189 -0.1630
19023TIP3    H178484   1.864   6.220   4.924  0.3082  1.5909 -1.5184
19023TIP3    H278485   1.970   6.219   5.032 -1.2235  0.6108  0.0253
19024TIP3   OH278486   0.307   6.620   2.961 -0.2057 -0.0630 -0.0733
19024TIP3    H178487   0.385   6.603   2.908  0.1242 -1.7860  0.8919
19024TIP3    H278488   0.282   6.710   2.938  1.7627  0.3650 -0.7606
19025TIP3   OH278489   4.828   5.550   3.351 -0.0199  0.3096  0.1378
19025TIP3    H178490   4.769   5.478   3.331 -0.0751  0.3265  0.2381
19025TIP3    H278491   4.915   5.515   3.337  0.0492 -0.3520  1.9909
19026TIP3   OH278492   5.568   5.167  14.799  0.2738 -0.0784  0.0377
19026TIP3    H178493   5.613   5.210  14.871 -1.1606  1.5381  0.0393
19026TIP3    H278494   5.537   5.084  14.836  0.6102  0.1676  0.8989
19027TIP3   OH278495   5.337   2.672  13.233 -0.7821  0.4399 -0.5191
19027TIP3    H178496   5.271   2.604  13.246 -2.4826  2.1756  0.4646
19027TIP3    H278497   5.413   2.641  13.283 -0.6287 -1.7715 -1.9820
19028TIP3   OH278498   5.904   3.308   4.459  0.0736 -0.5788  0.0408
19028TIP3    H178499   5.960   3.350   4.393  0.0273  0.2537  0.5121
19028TIP3    H278500   5.881   3.379   4.518 -2.8898 -0.4680 -1.0741
19029TIP3   OH278501   5.574   3.313   2.814 -0.6265  0.1728 -0.0944
19029TIP3    H178502   5.520   3.393   2.816  1.0302  1.4766 -2.3984
19029TIP3    H278503   5.511   3.242   2.802 -1.9682  1.4454 -0.9460
19030TIP3   OH278504   0.460   4.769   2.815  0.2189 -0.2848 -0.4048
19030TIP3    H178505   0.467   4.752   2.909 -1.6718 -2.1601 -0.5206
19030TIP3    H278506   0.449   4.682   2.776  0.4698  0.4917 -2.3249
19031TIP3   OH278507   3.665   6.730  10.834  0.3720  0.2863 -0.8540
19031TIP3    H178508   3.641   6.701  10.923 -1.5543  0.7381 -1.1656
19031TIP3    H278509   3.741   6.786  10.847 -0.0441  0.5786  0.5747
19032TIP3   OH278510   1.417   4.433   1.755  0.3282 -0.1039 -0.1862
19032TIP3    H178511   1.420   4.350   1.707  0.2712 -0.1965 -0.0295
19032TIP3    H278512   1.485   4.487   1.714 -1.2557  0.6647 -1.9609
19033TIP3   OH278513   3.183   4.981   5.564  0.3564 -0.2872 -0.3323
19033TIP3    H178514   3.095   5.002   5.594  0.5293 -1.1096  0.7744
19033TIP3    H278515   3.215   4.915   5.625  2.9473  2.2318  1.2883
19034TIP3   OH278516   3.001   6.981   0.615 -0.7183  0.5835 -0.0441
19034TIP3    H178517   3.021   6.912   0.552  0.4477  1.1605 -0.3314
19034TIP3    H278518   2.958   7.049   0.563 -2.5105 -0.1863  0.3670
19035TIP3   OH278519   3.358   5.778   4.201  0.2422 -0.5898  0.2049
19035TIP3    H178520   3.412   5.705   4.233  0.2944 -0.4729  0.3860
19035TIP3    H278521   3.299   5.738   4.137 -2.2149 -1.5062  2.8530
19036TIP3   OH278522   1.466   5.027  13.056 -0.2745  0.2214  0.1947
19036TIP3    H178523   1.511   5.111  13.063 -0.3212  0.4333 -1.5658
19036TIP3    H278524   1.524   4.965  13.100 -0.9029  1.3436  2.7796
19037TIP3   OH278525   6.677   6.435  14.295  0.2842  0.2537  0.1410
19037TIP3    H178526   6.643   6.436  14.385  0.4732 -0.2362  0.2159
19037TIP3    H278527   6.698   6.527  14.278 -0.3153  0.4438  0.3818
19038TIP3   OH278528   1.663   5.265  13.963  0.0978  0.2873  0.6689
19038TIP3    H178529   1.617   5.347  13.943 -0.0636  0.6824  2.4747
19038TIP3    H278530   1.594   5.200  13.973  0.2079 -0.0176 -0.4794
19039TIP3   OH278531   2.829   6.121   2.294 -0.2572 -0.6868  0.3752
19039TIP3    H178532   2.795   6.165   2.372 -0.1532 -0.5185  0.3250
19039TIP3    H278533   2.918   6.156   2.283 -0.7775  0.3738 -0.6553
19040TIP3   OH278534   4.079   6.864   4.140  0.0572  0.6291  0.5429
19040TIP3    H178535   4.143   6.800   4.172 -1.0246 -0.0309  1.4400
19040TIP3    H278536   4.024   6.883   4.216 -1.0613  0.8692 -0.3047
19041TIP3   OH278537   6.237   1.487  10.283  0.4527  0.3262 -0.2407
19041TIP3    H178538   6.166   1.551  10.276  0.9604  0.7495 -2.1514
19041TIP3    H278539   6.293   1.505  10.208  1.4905 -1.3365  0.0761
19042TIP3   OH278540   1.880   1.169   6.006  0.3023  0.3278 -0.0830
19042TIP3    H178541   1.829   1.247   6.027 -0.0938  0.6723 -2.1131
19042TIP3    H278542   1.961   1.179   6.057  0.3915  2.2214 -0.5331
19043TIP3   OH278543   0.699   1.277   4.289  0.0091  0.0207 -0.0058
19043TIP3    H178544   0.760   1.320   4.229  0.0826  2.0636  1.4334
19043TIP3    H278545   0.617   1.325   4.278 -0.1432  0.0280  1.0854
19044TIP3   OH278546   7.001   5.715   3.207 -0.2481  0.0085  0.5945
19044TIP3    H178547   6.996   5.675   3.294  0.7200 -0.3511  0.4975
19044TIP3    H278548   7.012   5.808   3.224 -1.8995  0.1964  0.8276
19045TIP3   OH278549   4.230   0.433   5.184  0.1382  0.0903  0.4901
19045TIP3    H178550   4.161   0.386   5.230  0.4820 -1.1441 -0.2064
19045TIP3    H278551   4.184   0.488   5.122 -0.3140  1.4529  1.9729
19046TIP3   OH278552   6.772   0.041   4.805  0.6382 -0.5592 -0.1051
19046TIP3    H178553   6.784   0.092   4.725  0.5491  0.3566  0.4446
19046TIP3    H278554   6.821   0.089   4.871  0.5965 -1.2284  0.4192
19047TIP3   OH278555   5.784   5.381  15.303 -0.1255  0.3030 -0.1457
19047TIP3    H178556   5.709   5.439  15.297 -0.3537 -0.1430 -3.0716
19047TIP3    H278557   5.750   5.295  15.279  0.2172 -1.2113  3.9699
19048TIP3   OH278558   2.734   0.315   5.967 -0.2519  0.0125  0.0909
19048TIP3    H178559   2.807   0.254   5.959 -1.0307 -0.9856  0.4280
19048TIP3    H278560   2.775   0.401   5.976  0.8672 -0.2162 -2.0657
19049TIP3   OH278561   2.899   1.300   0.034  0.0942 -0.2611  0.0890
19049TIP3    H178562   2.849   1.334   0.109 -1.8131  0.7527 -1.5535
19049TIP3    H278563   2.960   1.371   0.012 -0.8463  0.3489 -0.6206
19050TIP3   OH278564   2.820   6.046   3.788  0.3656 -0.4026 -0.1157
19050TIP3    H178565   2.862   5.962   3.766 -0.5445 -0.6372 -1.0476
19050TIP3    H278566   2.890   6.111   3.778  0.9899 -0.9986  0.2531
19051TIP3   OH278567   5.952   6.107   4.112  0.3488 -0.0297  0.3757
19051TIP3    H178568   5.925   6.022   4.078 -0.6436  0.3756  0.0806
19051TIP3    H278569   6.041   6.094   4.143 -0.2790 -1.5541  1.6881
19052TIP3   OH278570   0.187   3.902   4.185 -0.5576 -0.0881 -0.1927
19052TIP3    H178571   0.247   3.974   4.204 -0.1798 -0.4903  0.1447
19052TIP3    H278572   0.191   3.892   4.090  0.5580 -0.6663 -0.0949
19053TIP3   OH278573   3.247   6.641   1.462 -0.2442  0.7096 -0.5665
19053TIP3    H178574   3.252   6.552   1.497 -1.2808  0.1996 -1.6289
19053TIP3    H278575   3.322   6.647   1.403  0.8016  1.1512  0.7676
19054TIP3   OH278576   3.407   2.101   3.408 -0.3425  0.0600 -0.5497
19054TIP3    H178577   3.494   2.082   3.444 -0.9062 -0.4383  0.5932
19054TIP3    H278578   3.394   2.033   3.342  0.2950  0.3752 -1.0123
19055TIP3   OH278579   3.346   5.412   1.952  0.2819  0.1875  0.4609
19055TIP3    H178580   3.287   5.480   1.984 -2.0611 -1.5245  0.0379
19055TIP3    H278581   3.368   5.439   1.863  0.8799  1.2850  0.9274
19056TIP3   OH278582   6.299   1.126   1.723  0.1871  0.0811  0.1979
19056TIP3    H178583   6.262   1.118   1.635 -0.7414 -1.0591  0.6649
19056TIP3    H278584   6.299   1.036   1.757  1.2084  0.3978  1.1025
19057TIP3   OH278585   5.903   3.682   0.167  0.0101 -0.2721  0.2067
19057TIP3    H178586   5.855   3.600   0.180 -2.2618  1.0438  0.8916
19057TIP3    H278587   5.869   3.717   0.085  0.8673  0.0426 -0.0221
19058TIP3   OH278588   6.301   1.050   2.725  0.6072 -0.9917 -0.1039
19058TIP3    H178589   6.319   1.041   2.818  0.4297 -1.0614 -0.0759
19058TIP3    H278590   6.221   0.998   2.711 -0.5426  0.6599  0.0805
19059TIP3   OH278591   0.509   2.128  13.519  0.3551  0.4426 -0.0149
19059TIP3    H178592   0.592   2.134  13.565  0.3454 -0.9993  0.2476
19059TIP3    H278593   0.448   2.094  13.585  0.4329 -2.0658 -1.1211
19060TIP3   OH278594   0.751   4.858   3.790 -0.2387  0.0052 -0.4615
19060TIP3    H178595   0.685   4.812   3.738 -1.6997 -0.2402  1.4941
19060TIP3    H278596   0.782   4.793   3.852  1.8380  0.1491 -1.2675
19061TIP3   OH278597   4.958   0.402   2.300  0.3459  0.0338  0.5616
19061TIP3    H178598   5.040   0.449   2.284  0.5740  0.2033  2.0142
19061TIP3    H278599   4.985   0.311   2.312  0.0404 -0.2990 -1.1167
19062TIP3   OH278600   5.954   5.117   3.375  0.8058 -0.5745  0.1213
19062TIP3    H178601   5.965   5.123   3.280 -0.0800 -0.0188  0.0484
19062TIP3    H278602   5.946   5.023   3.392 -2.1144 -0.5652 -0.7355
19063TIP3   OH278603   4.907   4.233   2.761  0.0050  0.0502  0.2406
19063TIP3    H178604   4.858   4.247   2.680  0.0599  0.3439  0.2596
19063TIP3    H278605   4.847   4.258   2.831  0.4893  1.2924  0.2317
19064TIP3   OH278606   6.163   3.316   0.494 -1.0313  0.1073 -0.4101
19064TIP3    H178607   6.194   3.393   0.447 -0.0233 -0.7591 -1.2163
19064TIP3    H278608   6.216   3.312   0.573  2.4363 -2.3501 -2.5937
19065TIP3   OH278609   5.472   2.320   4.433  0.1628  0.5877 -1.1991
19065TIP3    H178610   5.405   2.258   4.404  0.4988 -0.8135  0.8008
19065TIP3    H278611   5.423   2.397   4.460 -0.6889 -0.3603  0.0895
19066TIP3   OH278612   5.109   4.762  15.493  0.2015 -0.2246  0.5547
19066TIP3    H178613   5.090   4.774  15.400 -1.1979 -3.1474  0.3616
19066TIP3    H278614   5.156   4.679  15.498  4.6413  2.0007  2.1292
19067TIP3   OH278615   4.576   6.278   4.086 -0.4996 -0.2197  0.1328
19067TIP3    H178616   4.561   6.341   4.016  1.2894  0.3182  0.1826
19067TIP3    H278617   4.515   6.207   4.067 -2.9379  1.6728  0.3432
19068TIP3   OH278618   5.277   2.346   5.458  0.4346 -0.7998  0.0237
19068TIP3    H178619   5.290   2.251   5.460  0.8631 -0.7353  0.4261
19068TIP3    H278620   5.354   2.382   5.501  0.7991 -0.2138 -1.0733
19069TIP3   OH278621   0.496   1.056   2.314 -0.4286  0.2009 -0.2165
19069TIP3    H178622   0.483   1.017   2.228 -0.4959  1.3040 -0.7142
19069TIP3    H278623   0.591   1.057   2.327 -0.2844  1.8489 -1.1567
19070TIP3   OH278624   3.016   4.090   1.679 -0.2287  0.4584 -0.3600
19070TIP3    H178625   2.939   4.147   1.679  0.3817  1.3121  0.1896
19070TIP3    H278626   3.065   4.116   1.601  0.3703  1.1699  0.2288
19071TIP3   OH278627   2.488   0.179   0.211 -0.4073  0.1670  0.1357
19071TIP3    H178628   2.510   0.174   0.118  2.6389  0.7522  0.7229
19071TIP3    H278629   2.392   0.169   0.214 -0.9410  2.4896 -3.2347
19072TIP3   OH278630   5.583   3.777   1.783 -0.0385 -0.1876  0.1382
19072TIP3    H178631   5.512   3.753   1.842 -0.6091 -0.2399 -0.5607
19072TIP3    H278632   5.563   3.867   1.757  1.4725  0.7142  1.8500
19073TIP3   OH278633   2.435   4.455   3.780  0.4285  0.3501 -0.2719
19073TIP3    H178634   2.439   4.368   3.820  0.0932 -0.4738 -1.9469
19073TIP3    H278635   2.346   4.485   3.796  0.0152 -0.3684 -1.1469
19074TIP3   OH278636   6.372   1.401   4.908  0.2273 -0.5948  0.0617
19074TIP3    H178637   6.348   1.453   4.831 -2.0616 -0.4904  0.7715
19074TIP3    H278638   6.441   1.452   4.951 -0.9876  1.2226 -0.0152
19075TIP3   OH278639   6.512   2.493   2.661  0.3369  0.0108 -0.1802
19075TIP3    H178640   6.522   2.515   2.568  2.0921  0.7894  0.1532
19075TIP3    H278641   6.481   2.574   2.702  0.9624  0.1072  0.1181
19076TIP3   OH278642   5.647   0.590   1.533  0.0111 -0.2403  0.4422
19076TIP3    H178643   5.592   0.530   1.583 -2.6112 -0.0606 -1.9501
19076TIP3    H278644   5.595   0.611   1.455  2.3338  2.2730 -0.6114
19077TIP3   OH278645   5.865   3.027   0.995  0.1845  0.7672 -0.1106
19077TIP3    H178646   5.791   3.001   1.050  0.4461  1.5231  0.6254
19077TIP3    H278647   5.830   3.032   0.907 -0.3989  0.1538  0.0818
19078TIP3   OH278648   2.864   5.465   2.883 -0.5267 -0.2518  0.3464
19078TIP3    H178649   2.935   5.459   2.819 -0.9255 -0.9118 -0.0456
19078TIP3    H278650   2.796   5.514   2.838 -0.9932 -1.1216  0.0748
19079TIP3   OH278651   1.258   3.731   0.944  0.1019  0.3362  0.3932
19079TIP3    H178652   1.313   3.804   0.917 -0.7152  1.2074  1.0175
19079TIP3    H278653   1.282   3.660   0.886  0.1304  1.4241 -0.9680
19080TIP3   OH278654   0.651   7.113   5.349 -0.0725  0.1902 -0.1772
19080TIP3    H178655   0.715   7.125   5.420  1.5032 -1.0563 -1.3401
19080TIP3    H278656   0.586   7.052   5.386  1.1051 -1.0009  0.0028
19081TIP3   OH278657   2.572   0.624   5.744  0.4103 -0.2832  0.3170
19081TIP3    H178658   2.630   0.687   5.701  0.4909 -1.1184 -0.8815
19081TIP3    H278659   2.601   0.539   5.710  0.0649 -0.9318  1.5943
19082TIP3   OH278660   1.445   4.350   2.040 -0.3855 -0.0907 -0.1036
19082TIP3    H178661   1.388   4.280   2.010 -2.0014  0.8183  0.7444
19082TIP3    H278662   1.450   4.411   1.967 -0.5574 -0.1397 -0.1562
19083TIP3   OH278663   1.938   1.681   4.116 -0.1173 -0.3251 -0.2100
19083TIP3    H178664   1.958   1.748   4.181 -0.9071 -0.3057  0.0312
19083TIP3    H278665   2.021   1.638   4.099  0.6137  1.3584 -1.1061
19084TIP3   OH278666   1.856   6.591   0.788 -0.1008  0.3975 -0.1629
19084TIP3    H178667   1.821   6.593   0.699 -1.0244 -1.0555  0.1466
19084TIP3    H278668   1.916   6.517   0.789  1.0336  1.2812  0.0524
19085TIP3   OH278669   4.043   5.520   3.845 -0.1739 -0.0976 -0.0959
19085TIP3    H178670   3.974   5.582   3.866 -0.8310 -0.3207 -1.4753
19085TIP3    H278671   4.006   5.435   3.869 -0.0950 -0.1450 -0.1428
19086TIP3   OH278672   2.881   2.510  11.066 -0.0372  0.7015 -0.6150
19086TIP3    H178673   2.914   2.499  11.155  0.2472  2.4766 -0.4792
19086TIP3    H278674   2.956   2.493  11.010 -0.3947 -1.1985 -0.6081
19087TIP3   OH278675   5.645   3.269   1.965  0.0818 -0.0141 -0.2997
19087TIP3    H178676   5.642   3.317   2.048 -0.9567 -0.5410 -0.0135
19087TIP3    H278677   5.612   3.330   1.900 -0.8243 -0.1764 -0.0075
19088TIP3   OH278678   7.130   6.854   0.410 -0.3249  0.7747 -0.0157
19088TIP3    H178679   7.088   6.843   0.495  0.3023  0.8446  0.3068
19088TIP3    H278680   7.060   6.888   0.353 -0.6635  1.0341  0.5463
19089TIP3   OH278681   5.366   0.842  12.671 -0.0021  0.6619 -0.2706
19089TIP3    H178682   5.406   0.823  12.756  0.7083  2.4604 -0.1669
19089TIP3    H278683   5.320   0.925  12.683 -0.9669  0.3106 -1.3204
19090TIP3   OH278684   1.864   0.561   3.961  0.4750  0.7000 -0.3660
19090TIP3    H178685   1.948   0.534   3.923  0.7288 -0.9437  1.2233
19090TIP3    H278686   1.807   0.485   3.949 -1.2975  2.2321 -2.5977
19091TIP3   OH278687   0.189   4.810   3.059 -0.7204  0.0628  0.4139
19091TIP3    H178688   0.271   4.761   3.065  0.3220  1.3724 -2.0464
19091TIP3    H278689   0.207   4.893   3.102 -0.4752  0.6285 -0.7361
19092TIP3   OH278690   3.465   4.261   3.671 -0.0401 -0.5772 -0.1103
19092TIP3    H178691   3.460   4.183   3.726 -1.9073  0.1376  0.8314
19092TIP3    H278692   3.377   4.270   3.634  0.6048  0.1608 -1.5309
19093TIP3   OH278693   0.762   4.766   4.935  0.6940  0.2847 -0.1920
19093TIP3    H178694   0.780   4.672   4.941  0.1609  0.2249  0.7034
19093TIP3    H278695   0.841   4.808   4.970  0.0758  0.0896  1.5402
19094TIP3   OH278696   3.841   0.030   9.863 -0.0941 -0.6582  1.1113
19094TIP3    H178697   3.817   0.022   9.955 -1.6269 -2.3344  0.6203
19094TIP3    H278698   3.772  -0.016   9.816  1.9231 -2.0479 -0.7189
19095TIP3   OH278699   0.791   2.453   3.679  0.2247  0.0060 -0.1604
19095TIP3    H178700   0.786   2.527   3.740  0.0705 -0.1738  0.0461
19095TIP3    H278701   0.741   2.482   3.602 -1.2457 -0.4998  0.5647
19096TIP3   OH278702   5.991   1.586  14.442 -0.4163 -0.2771  0.1352
19096TIP3    H178703   6.045   1.528  14.496  1.2389  3.5619  3.0525
19096TIP3    H278704   5.929   1.625  14.503 -3.1552 -0.6192 -2.1833
19097TIP3   OH278705   2.103   5.763   2.083  0.1826 -0.2082 -0.6519
19097TIP3    H178706   2.138   5.853   2.085  0.7697 -0.4314 -0.5141
19097TIP3    H278707   2.162   5.717   2.024  0.0639 -0.5785 -0.4804
19098TIP3   OH278708   1.651   6.236   5.402 -0.1089 -0.2122  0.6354
19098TIP3    H178709   1.672   6.280   5.484  0.2322 -0.1613  0.5209
19098TIP3    H278710   1.676   6.144   5.417  0.9161 -0.0129  0.2455
19099TIP3   OH278711   3.541   6.917   5.547 -0.2711  0.2197 -0.2582
19099TIP3    H178712   3.629   6.952   5.562  0.2247 -0.1743 -2.0301
19099TIP3    H278713   3.484   6.973   5.600  1.1169 -0.2728  1.9124
19100TIP3   OH278714   4.153   2.495   1.588  0.0185  0.1124  0.7568
19100TIP3    H178715   4.137   2.405   1.615  1.3768 -0.2615  0.4100
19100TIP3    H278716   4.207   2.532   1.658 -1.3699  1.0124  1.4116
19101TIP3   OH278717   5.679   6.399   0.056  0.0516 -0.6849  0.0953
19101TIP3    H178718   5.658   6.436   0.141  0.3920 -1.4366  0.5178
19101TIP3    H278719   5.720   6.314   0.076 -0.3635 -1.1150 -0.8226
19102TIP3   OH278720   1.885   4.708  14.164  0.1877 -0.7379 -0.5599
19102TIP3    H178721   1.838   4.791  14.167 -1.1483 -1.3962 -1.9763
19102TIP3    H278722   1.974   4.732  14.136 -0.6997  0.0775 -2.9765
19103TIP3   OH278723   5.862   2.387   3.142  0.3090  0.1370 -0.6408
19103TIP3    H178724   5.779   2.350   3.173  1.4037 -0.6135  1.6876
19103TIP3    H278725   5.837   2.465   3.093 -1.7377  1.5158  2.2993
19104TIP3   OH278726   3.087   3.983   1.301  0.4767  0.4913  0.2832
19104TIP3    H178727   3.124   3.983   1.213  0.6132  2.2697  0.2931
19104TIP3    H278728   3.162   3.965   1.358  0.7276  1.0045  0.1224
19105TIP3   OH278729   0.064   1.161   3.505  0.1737  0.0915 -0.2818
19105TIP3    H178730   0.090   1.147   3.596  0.0132 -0.0336 -0.2551
19105TIP3    H278731  -0.010   1.102   3.492  0.0450  0.2840 -0.4238
19106TIP3   OH278732   3.150   6.512   3.362  0.7510  0.5677 -0.7126
19106TIP3    H178733   3.237   6.471   3.356  0.1666 -0.7027 -0.7980
19106TIP3    H278734   3.091   6.439   3.378 -0.2844  1.4533 -0.4337
19107TIP3   OH278735   6.800   0.155   4.503  0.4116 -0.3848  0.1248
19107TIP3    H178736   6.830   0.246   4.499  0.5219 -0.4415 -0.5150
19107TIP3    H278737   6.712   0.157   4.464 -0.5956 -0.1623  2.3022
19108TIP3   OH278738   0.102   6.386   3.952  0.4114 -0.7104 -0.2668
19108TIP3    H178739   0.156   6.445   3.900 -0.2554 -0.7071 -0.9916
19108TIP3    H278740   0.158   6.357   4.023  1.4315 -0.8693 -1.1062
19109TIP3   OH278741   4.363   5.332  10.956  0.2927  0.0862 -0.0127
19109TIP3    H178742   4.413   5.253  10.973 -0.1573 -0.4983 -1.3273
19109TIP3    H278743   4.324   5.319  10.870  1.4971  2.3934 -0.9969
19110TIP3   OH278744   3.116   2.113   5.272  0.2458 -0.1786  0.8214
19110TIP3    H178745   3.101   2.019   5.279 -0.9607 -0.0550  0.2473
19110TIP3    H278746   3.146   2.126   5.182 -0.9218  0.1268  0.4630
19111TIP3   OH278747   3.562   6.121   0.712  0.6998 -0.0671 -0.0475
19111TIP3    H178748   3.508   6.043   0.701  0.4824  0.1325 -0.4388
19111TIP3    H278749   3.580   6.125   0.806 -0.0999 -0.0552  0.1195
19112TIP3   OH278750   3.488   1.486   1.764 -0.1510 -0.1889  0.0292
19112TIP3    H178751   3.527   1.453   1.845 -1.8224  0.1908  1.0368
19112TIP3    H278752   3.449   1.570   1.789  0.3909  0.5411 -1.4850
19113TIP3   OH278753   1.938   3.898   1.292  0.2658 -0.1609 -0.3549
19113TIP3    H178754   2.001   3.826   1.290 -0.3671 -0.7171 -1.0054
19113TIP3    H278755   1.933   3.923   1.384  1.8323  0.2641 -0.3663
19114TIP3   OH278756   2.492   0.084  13.325 -0.2030  0.0327 -0.0246
19114TIP3    H178757   2.505   0.012  13.386  0.8213  1.1645  1.1346
19114TIP3    H278758   2.500   0.044  13.238 -1.5002 -1.5639  0.5352
19115TIP3   OH278759   3.040   1.284   1.788  0.1837  0.3771  0.0116
19115TIP3    H178760   3.053   1.373   1.822  0.3508  0.3831 -0.0658
19115TIP3    H278761   2.985   1.241   1.853  0.3789  0.4351  0.2164
19116TIP3   OH278762   5.516   4.557   1.673 -0.5227 -0.4450  0.6903
19116TIP3    H178763   5.599   4.567   1.627 -1.4119  1.5963 -0.6110
19116TIP3    H278764   5.540   4.531   1.762  1.5222  0.7031  0.5144
19117TIP3   OH278765   5.524   1.397  14.346 -0.3790  0.1963 -0.5432
19117TIP3    H178766   5.604   1.360  14.307  0.6847  1.4845  0.3262
19117TIP3    H278767   5.546   1.406  14.439 -1.5035  0.7125 -0.3214
19118TIP3   OH278768   4.122   4.919  14.833  0.0585  0.0608  0.2419
19118TIP3    H178769   4.213   4.891  14.836 -0.0628 -0.4261 -0.3947
19118TIP3    H278770   4.096   4.927  14.925  0.6072 -0.2363  0.4258
19119TIP3   OH278771   0.127   0.369  10.536 -0.1529  0.1417 -0.0925
19119TIP3    H178772   0.196   0.435  10.545  0.7210 -0.8489  0.7168
19119TIP3    H278773   0.172   0.293  10.499 -0.1697 -1.4248  2.8479
19120TIP3   OH278774   0.853   4.994   5.748 -0.2180  0.9061  0.0375
19120TIP3    H178775   0.931   5.032   5.789  0.8747  0.0758 -1.1723
19120TIP3    H278776   0.843   4.909   5.789 -0.8202  1.2182  0.5585
19121TIP3   OH278777   3.247   1.837   3.615  0.3745 -0.6695 -0.2651
19121TIP3    H178778   3.312   1.778   3.654  1.1124  0.3279  0.0702
19121TIP3    H278779   3.254   1.918   3.667 -0.2093 -0.0932 -1.0540
19122TIP3   OH278780   4.337   1.305   5.931  0.1010  0.1424  0.3009
19122TIP3    H178781   4.389   1.355   5.993 -0.2612  0.5413  0.2885
19122TIP3    H278782   4.357   1.343   5.845 -1.6000  1.5782  0.4725
19123TIP3   OH278783   4.493   5.893   5.363  0.1863 -0.5045  0.3374
19123TIP3    H178784   4.454   5.880   5.450  1.5202  0.3081  1.0842
19123TIP3    H278785   4.576   5.846   5.367  0.8007  0.5209 -0.0822
19124TIP3   OH278786   2.179   4.744   3.114  0.2754 -0.2850  0.0691
19124TIP3    H178787   2.210   4.790   3.036  1.1529  0.3268  0.7496
19124TIP3    H278788   2.180   4.652   3.091  0.2115 -0.0863 -0.7446
19125TIP3   OH278789   5.886   6.558   3.733  0.3585 -0.0452 -0.2914
19125TIP3    H178790   5.844   6.481   3.696  0.7232  0.0294 -0.8631
19125TIP3    H278791   5.911   6.531   3.822 -1.9881  0.2891  0.5510
19126TIP3   OH278792   3.328   5.848   2.914 -0.6030  0.5611 -0.1109
19126TIP3    H178793   3.325   5.939   2.942 -2.4095  0.2711  0.7795
19126TIP3    H278794   3.241   5.829   2.881 -0.5164 -1.0434  0.4545
19127TIP3   OH278795   2.038   7.148  14.346  0.1132 -0.5080  0.6407
19127TIP3    H178796   1.979   7.073  14.340 -1.2015  0.6240 -2.3851
19127TIP3    H278797   1.980   7.223  14.360  0.8620  0.4831 -1.2563
19128TIP3   OH278798   3.696   6.550  15.304 -0.1465  0.2712 -0.2535
19128TIP3    H178799   3.607   6.515  15.314 -0.3209  0.9289  0.6265
19128TIP3    H278800   3.688   6.642  15.330  0.2631  1.0754 -2.6734
19129TIP3   OH278801   5.239   2.421   5.184  0.0047 -0.3398  0.4032
19129TIP3    H178802   5.223   2.393   5.274  0.5358 -0.3354  0.5014
19129TIP3    H278803   5.305   2.489   5.191 -0.0165 -0.2750  0.0146
19130TIP3   OH278804   4.450   1.815   4.486 -0.3468 -0.1324 -0.2951
19130TIP3    H178805   4.534   1.795   4.528 -0.9835  2.1520  2.4045
19130TIP3    H278806   4.449   1.761   4.408  2.8132 -1.6402  0.5270
19131TIP3   OH278807   1.246   0.700  14.564  0.4182 -0.0946 -0.2622
19131TIP3    H178808   1.339   0.700  14.584  0.9158  2.8336 -2.0896
19131TIP3    H278809   1.208   0.764  14.624 -0.2261 -0.3552 -0.3765
19132TIP3   OH278810   2.636   0.588   4.109  0.4292 -0.2110 -0.3413
19132TIP3    H178811   2.669   0.656   4.169 -1.1196 -0.4453  0.8372
19132TIP3    H278812   2.638   0.508   4.161 -1.2206 -0.3700 -0.4740
19133TIP3   OH278813   4.043   3.087   4.786  0.0440 -0.6873  0.1985
19133TIP3    H178814   4.055   3.143   4.863  0.1204  0.7828 -0.8376
19133TIP3    H278815   3.967   3.033   4.808  0.4167 -0.7217  1.5280
19134TIP3   OH278816   5.433   0.763   1.168 -0.6314  0.4042 -0.6711
19134TIP3    H178817   5.429   0.689   1.230 -0.2331  0.4007 -0.6486
19134TIP3    H278818   5.475   0.727   1.090  1.3778  1.0831  0.0386
19135TIP3   OH278819   0.336   4.920  10.571  0.0712 -0.6780  0.0624
19135TIP3    H178820   0.380   4.989  10.621 -0.3783  0.4623 -1.0701
19135TIP3    H278821   0.303   4.860  10.638 -0.5552  0.8265  1.1705
19136TIP3   OH278822   3.210   2.243   3.521 -0.0863  0.1072  0.3329
19136TIP3    H178823   3.258   2.324   3.507  1.1959 -0.3798  1.5877
19136TIP3    H278824   3.269   2.174   3.488 -1.1043 -0.3369 -0.6119
19137TIP3   OH278825   5.326   5.785   4.278  0.2207  0.5015  0.4044
19137TIP3    H178826   5.244   5.772   4.326  0.0339 -2.1242 -0.4602
19137TIP3    H278827   5.305   5.760   4.188  1.8964 -0.0112  0.1258
19138TIP3   OH278828   6.948   2.329   9.985  0.0598 -0.2515  0.3403
19138TIP3    H178829   7.027   2.301   9.937 -0.4601  0.2996 -0.8900
19138TIP3    H278830   6.883   2.261   9.965 -0.2634  0.1644 -0.0288
19139TIP3   OH278831   0.932   5.315   1.547 -0.2529  0.0569  0.2279
19139TIP3    H178832   0.879   5.272   1.479 -0.1162 -0.2411  0.3125
19139TIP3    H278833   0.880   5.306   1.627  0.7687 -1.8910  0.7092
19140TIP3   OH278834   0.063   2.303   2.369 -0.2680 -0.6425  0.0148
19140TIP3    H178835   0.103   2.299   2.456  0.3134 -1.8327 -0.2857
19140TIP3    H278836   0.088   2.221   2.328 -2.4855 -1.1708 -0.4189
19141TIP3   OH278837   4.527   1.303   3.224  0.4568  0.2483  0.3893
19141TIP3    H178838   4.533   1.219   3.178 -3.2568  0.2077 -0.3066
19141TIP3    H278839   4.533   1.279   3.317 -1.4026 -1.0124  0.2430
19142TIP3   OH278840   0.458   0.318   2.134 -1.0994 -0.1436  0.5567
19142TIP3    H178841   0.393   0.317   2.064 -0.8596 -2.0358  0.3190
19142TIP3    H278842   0.421   0.262   2.203 -1.1407  1.3383  1.8041
19143TIP3   OH278843   4.344   4.373   2.763 -0.0241 -0.3654  0.0884
19143TIP3    H178844   4.398   4.452   2.756 -1.0439  0.1870 -2.9823
19143TIP3    H278845   4.402   4.302   2.735  0.1992 -0.3626  0.5338
19144TIP3   OH278846   0.984   4.724   3.260  0.3481  0.9287  0.5288
19144TIP3    H178847   0.898   4.706   3.221  1.3221 -0.4252 -1.1291
19144TIP3    H278848   1.029   4.779   3.196  0.7305  1.6956  1.4192
19145TIP3   OH278849   2.946   5.911   4.326 -0.2616  0.1387  0.1898
19145TIP3    H178850   2.930   5.911   4.232 -1.3538 -1.4803  0.3445
19145TIP3    H278851   2.932   5.820   4.353  2.7392 -0.0214  1.4997
19146TIP3   OH278852   1.545   3.037  15.160  0.0705 -0.0828  0.5859
19146TIP3    H178853   1.596   3.092  15.100  0.0172 -3.2202 -2.6469
19146TIP3    H278854   1.492   3.099  15.210  3.1352  2.9997  0.4078
19147TIP3   OH278855   4.069   0.884   3.447  0.1525 -0.2541  0.2010
19147TIP3    H178856   4.036   0.971   3.421 -0.9491 -0.1842  1.7145
19147TIP3    H278857   4.154   0.902   3.487  0.8386 -0.1180 -1.2672
19148TIP3   OH278858   7.040   4.526  12.881 -0.1131  0.0355  0.0175
19148TIP3    H178859   7.067   4.454  12.938 -1.6679 -1.0281 -0.5066
19148TIP3    H278860   7.039   4.603  12.937  1.6246 -0.3099  0.5848
19149TIP3   OH278861   0.950   3.788   4.527 -0.6689 -0.5140  0.1281
19149TIP3    H178862   0.881   3.823   4.470  1.0772 -0.7373 -2.2563
19149TIP3    H278863   0.998   3.865   4.557 -0.3147 -0.5056 -0.4455
19150TIP3   OH278864   5.787   5.842   4.344  0.0828  0.4683 -0.1876
19150TIP3    H178865   5.810   5.750   4.333 -1.5770  0.2166 -2.0490
19150TIP3    H278866   5.870   5.885   4.367  0.8738 -1.4527  0.7708
19151TIP3   OH278867   3.364   0.040   2.785 -0.6514 -0.1952 -0.3696
19151TIP3    H178868   3.293   0.005   2.732 -1.9761 -1.4020  2.0298
19151TIP3    H278869   3.353  -0.001   2.871  1.4021  1.5813  0.8638
19152TIP3   OH278870   1.908   4.422   3.017  0.9651 -0.0894  0.8436
19152TIP3    H178871   1.868   4.346   3.059  1.3869 -1.0028 -0.3341
19152TIP3    H278872   1.836   4.463   2.968  1.2706 -1.3477 -0.7370
19153TIP3   OH278873   1.050   3.308  12.959 -0.1728 -0.3291  0.2007
19153TIP3    H178874   1.136   3.338  12.990  0.4270 -0.0672 -1.5533
19153TIP3    H278875   1.060   3.214  12.946 -0.1697 -0.3087  0.0541
19154TIP3   OH278876   2.857   5.219   4.326 -0.4785  0.4890 -0.7783
19154TIP3    H178877   2.864   5.171   4.243  0.1426 -1.1730  0.1781
19154TIP3    H278878   2.770   5.198   4.359  0.1236 -0.8307  0.0846
19155TIP3   OH278879   6.714   2.917   3.458  0.0371  0.2811  0.5276
19155TIP3    H178880   6.747   2.935   3.546 -0.3756  0.2898  0.6838
19155TIP3    H278881   6.785   2.943   3.400  0.0371  0.9607  0.8257
19156TIP3   OH278882   2.131   7.119  13.688  0.3020  0.2358  0.0684
19156TIP3    H178883   2.133   7.029  13.657 -2.0878  0.5624 -1.3089
19156TIP3    H278884   2.045   7.128  13.729  0.1037  2.1222 -0.6701
19157TIP3   OH278885   2.678   6.671   4.857  0.5475  0.2547  0.2306
19157TIP3    H178886   2.679   6.651   4.951 -1.4795  0.2968  0.2893
19157TIP3    H278887   2.736   6.605   4.818  0.2716 -0.6728  1.3344
19158TIP3   OH278888   6.086   3.775   1.832 -0.4526 -0.5207 -0.3791
19158TIP3    H178889   6.063   3.697   1.884  0.0488 -0.4292 -0.0162
19158TIP3    H278890   6.016   3.781   1.767 -0.7240 -1.0337 -0.1455
19159TIP3   OH278891   5.971   5.435   3.098 -0.4856  0.9179  0.2913
19159TIP3    H178892   5.940   5.366   3.039  0.0199  2.3288 -1.7614
19159TIP3    H278893   5.897   5.495   3.107  0.0223  1.7056 -0.5485
19160TIP3   OH278894   6.653   1.002   5.794  0.2548  0.0843  0.0375
19160TIP3    H178895   6.710   1.053   5.852  0.7392  0.6979 -0.9496
19160TIP3    H278896   6.714   0.956   5.736 -0.2238  1.3467 -1.5523
19161TIP3   OH278897   3.621   4.375  14.228 -0.2339 -0.6258 -0.3678
19161TIP3    H178898   3.655   4.395  14.141 -0.4423 -1.3733 -0.6299
19161TIP3    H278899   3.670   4.432  14.287 -2.8968  3.0227 -1.3244
19162TIP3   OH278900   6.792   5.514   1.345  0.3155  0.4871  0.1564
19162TIP3    H178901   6.711   5.561   1.324  0.0536 -0.3967 -0.8796
19162TIP3    H278902   6.780   5.427   1.308  1.7237  0.3227  0.0159
19163TIP3   OH278903   4.575   5.148  14.191  0.5190 -0.0953 -0.5450
19163TIP3    H178904   4.538   5.211  14.253  0.3250 -1.1352  0.4149
19163TIP3    H278905   4.670   5.153  14.205  0.7215  1.6005 -2.0775
19164TIP3   OH278906   3.512   0.503   1.647  0.0612 -0.1879 -0.4717
19164TIP3    H178907   3.558   0.433   1.694 -0.4636 -2.1236 -2.6130
19164TIP3    H278908   3.570   0.524   1.574 -0.1838  1.0324 -0.3212
19165TIP3   OH278909   0.564   5.846   2.649  0.0074  0.3222  0.3712
19165TIP3    H178910   0.509   5.813   2.578  2.1689  1.2571 -1.8710
19165TIP3    H278911   0.603   5.768   2.688 -0.4799 -0.1571 -0.0816
19166TIP3   OH278912   3.668   0.719  14.007 -0.8666 -0.4342  0.1477
19166TIP3    H178913   3.596   0.740  14.067 -0.5593  1.4300 -0.0911
19166TIP3    H278914   3.628   0.722  13.920 -0.6152  0.1257  0.0484
19167TIP3   OH278915   6.819   0.638   4.080  0.3220  0.0753 -0.6754
19167TIP3    H178916   6.729   0.605   4.083 -0.2014  1.4767  0.9531
19167TIP3    H278917   6.872   0.566   4.113 -0.3245 -0.4237 -0.6939
19168TIP3   OH278918   6.892   2.720   0.037  0.1213  0.1803 -0.3546
19168TIP3    H178919   6.917   2.780  -0.033 -0.2114 -0.3706 -0.9626
19168TIP3    H278920   6.973   2.677   0.062  0.1845  0.1121 -0.6693
19169TIP3   OH278921   1.791   0.732   2.869 -0.5889 -0.1172  0.3561
19169TIP3    H178922   1.742   0.651   2.879 -1.6944  0.7161  2.1835
19169TIP3    H278923   1.816   0.734   2.777 -0.7235 -2.4010  0.2196
19170TIP3   OH278924   3.718   3.664   3.240 -0.6497  0.9243 -0.0089
19170TIP3    H178925   3.646   3.642   3.181 -0.2611  0.6853 -0.4091
19170TIP3    H278926   3.758   3.742   3.201  0.5038 -0.0642 -0.9014
19171TIP3   OH278927   2.965   6.695   0.135 -0.1037 -0.4424 -0.0578
19171TIP3    H178928   2.913   6.664   0.210 -1.6394 -0.9806 -1.2796
19171TIP3    H278929   3.055   6.674   0.158 -0.5105 -0.3587  1.7504
19172TIP3   OH278930   2.045   3.858   1.994 -0.1370 -0.0005 -0.0565
19172TIP3    H178931   2.000   3.785   2.036  0.7717 -0.8183 -0.4625
19172TIP3    H278932   2.071   3.915   2.067 -0.2254 -0.4434  0.3231
19173TIP3   OH278933   0.951   7.056  15.266 -0.0062  0.1865  0.3591
19173TIP3    H178934   0.931   6.988  15.201  1.5336  0.3762 -0.3510
19173TIP3    H278935   0.922   7.018  15.349 -0.2705 -0.8459 -0.1822
19174TIP3   OH278936   6.049   5.229   4.456  0.2595  0.2454  0.2017
19174TIP3    H178937   6.057   5.141   4.419 -1.9604  1.0310 -2.4895
19174TIP3    H278938   6.109   5.282   4.404  0.4264  0.6205  0.7690
19175TIP3   OH278939   6.692   2.452  14.606  0.2270  0.0520  0.4614
19175TIP3    H178940   6.614   2.431  14.554  1.0452 -0.4511 -0.6078
19175TIP3    H278941   6.684   2.545  14.624  0.9786  0.8036 -2.5320
19176TIP3   OH278942   3.378   2.678   2.502 -0.0558 -0.1568 -0.0361
19176TIP3    H178943   3.346   2.654   2.589 -0.0349 -0.0692 -0.0044
19176TIP3    H278944   3.355   2.603   2.447 -1.1571  0.2928 -0.2157
19177TIP3   OH278945   6.604   4.990   1.265 -0.1746  0.3955  0.0053
19177TIP3    H178946   6.603   4.920   1.330 -2.1618 -0.4982 -0.8936
19177TIP3    H278947   6.697   5.000   1.242  0.3938 -0.3406  1.7880
19178TIP3   OH278948   4.480   5.508   4.200  0.5106 -0.2667  0.5125
19178TIP3    H178949   4.512   5.498   4.290  0.6877 -1.6129  0.3168
19178TIP3    H278950   4.387   5.487   4.205 -0.0921  2.1287  0.7966
19179TIP3   OH278951   4.276   5.204   4.536  0.1202  0.1613 -0.3047
19179TIP3    H178952   4.224   5.136   4.578 -1.2676  1.5101  0.2559
19179TIP3    H278953   4.267   5.280   4.593  0.1598  1.3377 -1.7841
19180TIP3   OH278954   5.784   1.511   5.245 -0.1114  0.2585 -0.4823
19180TIP3    H178955   5.875   1.505   5.271  0.3645  2.4199 -1.4534
19180TIP3    H278956   5.778   1.457   5.166  0.7971  1.5439 -1.4644
19181TIP3   OH278957   2.203   3.319   2.083  0.3033  0.4104 -0.2092
19181TIP3    H178958   2.265   3.390   2.101 -0.4182  0.6914  1.3830
19181TIP3    H278959   2.217   3.256   2.154 -0.5074 -0.0171 -0.4183
19182TIP3   OH278960   5.282   1.458   5.869 -0.1566 -0.0171 -0.2265
19182TIP3    H178961   5.342   1.445   5.796  0.0054  0.3923 -0.1690
19182TIP3    H278962   5.295   1.549   5.895 -1.9412  0.5898 -1.2572
19183TIP3   OH278963   1.731   2.038  10.575 -0.4029  0.3939 -0.0933
19183TIP3    H178964   1.812   2.075  10.539  0.0160 -0.1453  0.2779
19183TIP3    H278965   1.697   2.105  10.634 -0.6961  0.9788 -0.9008
19184TIP3   OH278966   6.396   0.343  11.083 -0.2563  0.2762 -0.5745
19184TIP3    H178967   6.442   0.363  11.002  1.0007 -0.2951 -0.0242
19184TIP3    H278968   6.407   0.249  11.095  0.5728  0.5305  0.8352
19185TIP3   OH278969   0.656   6.362   5.608 -0.7283 -0.0554 -0.0106
19185TIP3    H178970   0.722   6.373   5.676 -0.0103  1.7170 -0.9074
19185TIP3    H278971   0.637   6.452   5.579 -0.1568 -0.7507 -2.8949
19186TIP3   OH278972   6.541   0.811   3.029 -0.0173 -0.2519  0.1915
19186TIP3    H178973   6.524   0.762   2.948 -4.6087  0.9813  0.1361
19186TIP3    H278974   6.555   0.743   3.095 -0.3916 -1.4362 -0.9028
19187TIP3   OH278975   4.207   6.694   4.315  0.4862  0.4164  0.0056
19187TIP3    H178976   4.271   6.635   4.276  0.5754  0.8175 -0.4699
19187TIP3    H278977   4.176   6.648   4.393 -1.2274 -1.3674 -1.6091
19188TIP3   OH278978   2.550   5.317   3.863  0.0891  0.6428 -0.1103
19188TIP3    H178979   2.567   5.412   3.864 -0.0698  0.7075 -1.7181
19188TIP3    H278980   2.631   5.278   3.832 -0.8269  0.5419 -2.5735
19189TIP3   OH278981   1.324   6.995   5.528 -0.1579  0.2086  0.0717
19189TIP3    H178982   1.279   7.000   5.613 -2.1909  0.3980 -0.9417
19189TIP3    H278983   1.362   7.082   5.516 -0.1526  0.2917  0.6321
19190TIP3   OH278984   0.282   1.588   1.372 -0.5163  0.5855  0.1525
19190TIP3    H178985   0.209   1.589   1.433 -1.1051  0.5641 -0.5451
19190TIP3    H278986   0.288   1.678   1.341 -0.0819  0.6430  0.3955
19191TIP3   OH278987   3.014   4.028   4.290  0.0136  0.5725  0.2259
19191TIP3    H178988   2.939   4.059   4.240 -0.9836 -0.8968  0.7596
19191TIP3    H278989   3.089   4.041   4.232 -1.0836 -0.9170 -1.6023
19192TIP3   OH278990   5.846   6.288   3.645  0.5652 -0.1332 -0.0541
19192TIP3    H178991   5.812   6.231   3.714  0.9662  0.6868  0.8451
19192TIP3    H278992   5.859   6.230   3.570 -0.0275 -1.0110  0.5127
19193TIP3   OH278993   2.410   3.284  14.077  0.1799  0.0272 -0.0459
19193TIP3    H178994   2.376   3.369  14.047  0.9891  1.1004  1.8655
19193TIP3    H278995   2.485   3.266  14.020  0.7113  1.2185  0.2357
19194TIP3   OH278996   2.633   2.479   3.426 -0.2579  0.0352 -0.5302
19194TIP3    H178997   2.718   2.475   3.382  1.0826  0.9853  1.7536
19194TIP3    H278998   2.655   2.495   3.518 -2.9216 -0.1808  0.2306
19195TIP3   OH278999   2.557   3.906   2.221  0.0089 -0.1944  0.2132
19195TIP3    H179000   2.601   3.925   2.138 -0.1132 -1.5720 -0.1921
19195TIP3    H279001   2.494   3.978   2.231 -0.0516 -0.0610 -0.9416
19196TIP3   OH279002   7.013   7.108   5.034 -0.2010 -0.6571  0.0948
19196TIP3    H179003   6.997   7.202   5.044 -1.4908 -0.9102  0.6969
19196TIP3    H279004   7.011   7.093   4.940 -0.5248 -0.1597  0.0190
19197TIP3   OH279005   5.836   1.579   4.649 -0.3944  0.2936 -0.0042
19197TIP3    H179006   5.741   1.580   4.662 -0.5239  0.9708 -0.8604
19197TIP3    H279007   5.847   1.589   4.554  0.5160 -1.2414 -0.0888
19198TIP3   OH279008   4.030   2.151   2.943 -0.0070  0.1284 -0.5856
19198TIP3    H179009   3.956   2.102   2.979 -0.4409  1.1797 -0.0166
19198TIP3    H279010   4.045   2.111   2.857 -0.0420 -1.3012  0.0373
19199TIP3   OH279011   4.384   1.488   1.641 -0.5581  0.2294  0.4169
19199TIP3    H179012   4.366   1.581   1.627 -0.7260  0.4738  2.0955
19199TIP3    H279013   4.478   1.484   1.654 -0.3270 -0.0691 -1.1146
19200TIP3   OH279014   6.025   0.377   1.441 -0.0108  0.1345 -0.4372
19200TIP3    H179015   5.990   0.422   1.517  1.7072  1.0503 -0.1483
19200TIP3    H279016   5.969   0.405   1.368 -0.5451  0.6827  0.1720
19201TIP3   OH279017   3.877   0.940   4.164  0.1100 -0.2425  0.2802
19201TIP3    H179018   3.824   0.871   4.125 -0.4588  0.1861  0.2742
19201TIP3    H279019   3.816   1.014   4.175  0.7887  0.3815 -0.0509
19202TIP3   OH279020   4.606   2.911   3.017 -0.3415  0.5654  0.4147
19202TIP3    H179021   4.645   2.972   3.080  0.3040 -0.9885  1.5875
19202TIP3    H279022   4.670   2.840   3.009 -1.0612  0.0236 -0.9028
19203TIP3   OH279023   5.552   6.283  15.079 -0.2421 -0.1478 -0.2336
19203TIP3    H179024   5.624   6.336  15.045 -0.4285  0.3068  0.0769
19203TIP3    H279025   5.486   6.346  15.106 -1.0239 -0.5826 -1.0840
19204TIP3   OH279026   2.009   4.637   5.633  0.4409 -0.2459  0.9997
19204TIP3    H179027   2.039   4.676   5.715 -1.2298  1.0139  1.0505
19204TIP3    H279028   1.927   4.593   5.655  0.4510 -0.6970  0.1819
19205TIP3   OH279029   2.704   2.907   3.151  0.2542 -0.4070  0.1462
19205TIP3    H179030   2.785   2.931   3.195  0.8438 -2.0030  0.0171
19205TIP3    H279031   2.705   2.957   3.069  0.1041  1.0855  1.0316
19206TIP3   OH279032   0.980   1.536   4.399 -0.1212  0.2124 -0.1237
19206TIP3    H179033   0.982   1.501   4.488 -1.0735 -0.0840 -0.2109
19206TIP3    H279034   1.054   1.494   4.355 -0.4521 -0.6766  0.1552
19207TIP3   OH279035   1.221   3.823  13.463 -0.1028 -0.3184 -0.3531
19207TIP3    H179036   1.260   3.747  13.422  0.2972 -0.9152  1.0752
19207TIP3    H279037   1.261   3.898  13.418 -0.4205 -0.9243 -1.6916
19208TIP3   OH279038   5.796   2.823   3.279 -0.5546  0.0044  0.0164
19208TIP3    H179039   5.878   2.776   3.261 -0.5953 -0.2120  0.3805
19208TIP3    H279040   5.775   2.868   3.197 -2.2063 -3.1259 -1.4357
19209TIP3   OH279041   5.044   0.702   2.919 -0.3892 -0.3458  0.1126
19209TIP3    H179042   5.094   0.620   2.924 -0.4326 -0.4264 -0.6207
19209TIP3    H279043   4.955   0.674   2.896 -0.2636 -0.0556 -0.7424
19210TIP3   OH279044   4.127   1.949   2.242  0.4320  0.0407 -0.5743
19210TIP3    H179045   4.038   1.916   2.235 -0.2050  1.2417  1.3348
19210TIP3    H279046   4.178   1.874   2.273 -0.4873  0.1038  1.1612
19211TIP3   OH279047   2.193   1.152  14.880  0.0190 -0.1750  0.8793
19211TIP3    H179048   2.247   1.086  14.836 -0.0524 -0.9267  1.8710
19211TIP3    H279049   2.222   1.148  14.972  0.0247  1.1939  0.9452
19212TIP3   OH279050   4.226   6.893   2.770  0.6930  0.4019  0.4406
19212TIP3    H179051   4.174   6.813   2.779 -0.5045  0.9191 -1.3768
19212TIP3    H279052   4.213   6.940   2.852  0.3198 -0.6321  0.9904
19213TIP3   OH279053   4.710   2.793   5.876 -0.6523 -0.1540 -0.1547
19213TIP3    H179054   4.647   2.865   5.870 -1.2490 -0.7469 -1.3712
19213TIP3    H279055   4.657   2.717   5.901 -0.4198 -0.6255 -1.0498
19214TIP3   OH279056   4.341   5.311   1.417  0.0050  0.2098 -0.8396
19214TIP3    H179057   4.408   5.244   1.422 -1.2160 -1.0002  0.4909
19214TIP3    H279058   4.262   5.265   1.388 -1.2738  0.6261  1.6082
19215TIP3   OH279059   0.225   5.444   1.990 -0.4296  0.1912 -0.2729
19215TIP3    H179060   0.301   5.500   2.010 -0.8026  0.2745  0.9996
19215TIP3    H279061   0.174   5.495   1.928 -1.2802  1.7851  1.6120
19216TIP3   OH279062   2.995   6.994   0.196  0.0611 -0.0865 -0.8366
19216TIP3    H179063   3.087   6.978   0.172  0.4283 -3.2800  1.9364
19216TIP3    H279064   2.945   6.951   0.127  0.6528  0.4955 -1.6542
19217TIP3   OH279065   2.991   0.015   4.658 -0.1300  0.8845 -0.5567
19217TIP3    H179066   2.908   0.063   4.662 -1.0441 -0.6544  0.0852
19217TIP3    H279067   3.057   0.079   4.685 -0.8962  2.5120 -2.3067
19218TIP3   OH279068   2.658   4.541   3.118 -0.5539 -0.0235  0.0615
19218TIP3    H179069   2.730   4.489   3.154  0.3231  1.4546  0.5666
19218TIP3    H279070   2.641   4.607   3.185 -1.6943  0.2982 -0.5110
19219TIP3   OH279071   5.835   3.343   2.581  0.3003 -0.1754 -0.2071
19219TIP3    H179072   5.790   3.281   2.523 -0.1123 -1.5280  1.4936
19219TIP3    H279073   5.765   3.380   2.635  0.8729 -0.0768  0.4663
19220TIP3   OH279074   1.007   3.593   0.870  0.2687 -0.4533  0.4475
19220TIP3    H179075   0.984   3.631   0.955  1.0962 -1.0252  0.9367
19220TIP3    H279076   1.092   3.632   0.849 -0.1599  0.0790 -0.3772
19221TIP3   OH279077   1.349   3.804   1.896 -0.7354  0.0363 -0.0701
19221TIP3    H179078   1.420   3.782   1.956  0.5988 -0.1142 -1.6163
19221TIP3    H279079   1.306   3.720   1.879  1.1639 -0.6476 -2.0306
19222TIP3   OH279080   5.258   0.629   5.699 -0.4867 -0.3129 -0.2445
19222TIP3    H179081   5.191   0.664   5.758  0.2805 -1.8500  1.6572
19222TIP3    H279082   5.255   0.535   5.713  1.2416 -0.5128 -1.0257
19223TIP3   OH279083   4.247   7.096   3.646  0.9174 -0.2548 -0.4067
19223TIP3    H179084   4.325   7.052   3.614  1.0299  0.1722 -0.7301
19223TIP3    H279085   4.186   7.093   3.572 -0.0731 -2.2062  0.4197
19224TIP3   OH279086   6.832   1.734   4.855 -0.1020  0.8265  0.0437
19224TIP3    H179087   6.854   1.692   4.938 -0.9655  0.2805  0.0084
19224TIP3    H279088   6.847   1.666   4.789 -0.3016  0.9696 -0.1513
19225TIP3   OH279089   5.227   4.704   1.070  0.2626  0.2574  0.1138
19225TIP3    H179090   5.295   4.738   1.012 -0.1558  0.3709 -0.3213
19225TIP3    H279091   5.248   4.611   1.080  0.9869  0.4761  0.7115
19226TIP3   OH279092   0.983   3.097  14.416  0.4265 -0.1014  0.0244
19226TIP3    H179093   1.054   3.119  14.356 -0.1860  0.1472 -0.6165
19226TIP3    H279094   0.999   3.151  14.493  1.5145 -0.8109  0.3139
19227TIP3   OH279095   5.264   1.363   4.161  0.0330  0.2694  0.5208
19227TIP3    H179096   5.291   1.347   4.251  0.0114 -0.0159  0.4794
19227TIP3    H279097   5.304   1.291   4.111  0.5052  0.7311  0.2188
19228TIP3   OH279098   6.699   1.746  14.057 -0.0516 -0.1933  0.0105
19228TIP3    H179099   6.626   1.731  13.997  0.6254  0.3495 -0.9676
19228TIP3    H279100   6.676   1.826  14.104 -0.8697 -0.9472  0.9591
19229TIP3   OH279101   1.897   3.052  10.725  0.5273 -0.0800 -0.4093
19229TIP3    H179102   1.973   3.057  10.666  0.0840  0.3523 -0.9545
19229TIP3    H279103   1.842   3.127  10.700  0.0466 -0.2324  0.1621
19230TIP3   OH279104   3.947   5.564   1.372 -0.0836 -0.3059 -0.4568
19230TIP3    H179105   4.001   5.620   1.428 -1.7936  0.7587  0.2045
19230TIP3    H279106   4.010   5.522   1.313  1.8743 -1.6338  2.2996
19231TIP3   OH279107   3.694   5.964   1.528  0.1517 -0.0795 -0.3900
19231TIP3    H179108   3.655   5.877   1.534  0.0044 -0.0412 -0.7668
19231TIP3    H279109   3.788   5.949   1.526  0.0972 -0.3163 -1.7848
19232TIP3   OH279110   2.183   4.346   0.235  0.2186 -0.2801 -0.1586
19232TIP3    H179111   2.094   4.366   0.206  0.4583  0.4132 -0.4340
19232TIP3    H279112   2.177   4.258   0.272 -0.0637 -1.3695 -2.5594
19233TIP3   OH279113   5.125   4.702   5.465 -0.6497  0.1977  0.0007
19233TIP3    H179114   5.126   4.706   5.561  0.6447 -0.4172  0.0381
19233TIP3    H279115   5.036   4.728   5.441 -0.9854  0.4016  1.3636
19234TIP3   OH279116   5.863   2.101  15.411  0.2251  0.4301 -0.0791
19234TIP3    H179117   5.940   2.062  15.453  1.1198  1.0661 -1.0934
19234TIP3    H279118   5.881   2.195  15.408 -1.5694  0.8943  1.6286
19235TIP3   OH279119   6.674   2.785   5.732  0.2621 -0.1959 -0.6925
19235TIP3    H179120   6.687   2.747   5.645 -0.7015  2.3387 -2.0628
19235TIP3    H279121   6.586   2.758   5.757  0.4333 -0.6887 -0.5980
19236TIP3   OH279122   2.600   0.260   3.089  0.3575  0.1707  0.2520
19236TIP3    H179123   2.632   0.332   3.034  0.0565 -0.9022 -1.3908
19236TIP3    H279124   2.674   0.239   3.147  1.0278  0.6988 -0.3952
19237TIP3   OH279125   1.169   4.688   2.567 -0.0862 -0.6115 -0.2678
19237TIP3    H179126   1.157   4.743   2.644  1.8416  0.6478 -0.7917
19237TIP3    H279127   1.258   4.653   2.576 -0.1726 -1.1942 -1.4666
19238TIP3   OH279128   2.367   0.010  14.347 -0.3508  0.8004  0.0987
19238TIP3    H179129   2.422  -0.057  14.306 -0.0009  0.9142  0.3744
19238TIP3    H279130   2.300   0.028  14.282 -0.9532 -0.4224  0.3431
19239TIP3   OH279131   4.199   6.477  13.202  0.1664  0.1413 -0.0726
19239TIP3    H179132   4.228   6.527  13.125  0.6136  0.9684  0.6082
19239TIP3    H279133   4.152   6.402  13.166 -1.6629  1.7090 -1.1569
19240TIP3   OH279134   0.588   5.469   5.795 -0.0028 -0.0567  0.1124
19240TIP3    H179135   0.551   5.403   5.853  2.2241 -1.8925 -0.3982
19240TIP3    H279136   0.532   5.467   5.717 -2.1509  1.4121  1.5031
19241TIP3   OH279137   6.902   1.621   1.302 -0.4426  0.3864 -0.5489
19241TIP3    H179138   6.831   1.565   1.271  0.8346 -1.0353 -1.0209
19241TIP3    H279139   6.860   1.680   1.365 -2.0781 -0.2217 -1.0163
19242TIP3   OH279140   1.644   2.581   5.385  0.0293 -0.5480  0.5652
19242TIP3    H179141   1.634   2.670   5.418 -1.0425 -0.6397  0.5204
19242TIP3    H279142   1.607   2.525   5.453  1.3670 -1.0266  0.9268
19243TIP3   OH279143   3.496   5.398   5.087  0.3461  0.2720 -0.0046
19243TIP3    H179144   3.545   5.327   5.130  1.4418  0.0852 -1.4772
19243TIP3    H279145   3.471   5.456   5.159  0.2057 -1.1331  1.1348
19244TIP3   OH279146   3.839   6.582   0.620 -0.3284 -0.3673 -0.4821
19244TIP3    H179147   3.878   6.666   0.594 -0.9187 -0.0170 -0.2730
19244TIP3    H279148   3.745   6.598   0.616 -0.4399 -0.8961 -0.0148
19245TIP3   OH279149   6.164   7.007  13.066  0.0386  0.5642 -0.1159
19245TIP3    H179150   6.139   6.924  13.108  0.0373  1.2751  1.3379
19245TIP3    H279151   6.244   7.033  13.112  2.9942 -1.0083 -3.7592
19246TIP3   OH279152   3.287   0.871  14.432  0.3257  0.0743  0.1777
19246TIP3    H179153   3.280   0.849  14.525 -2.3649 -1.1934 -0.2224
19246TIP3    H279154   3.243   0.956  14.424 -1.4789 -0.8426 -0.1854
19247TIP3   OH279155   1.423   7.049   1.940  0.2252  0.0924  0.1183
19247TIP3    H179156   1.494   7.058   1.877  0.5631 -1.5736  0.2166
19247TIP3    H279157   1.344   7.041   1.887  0.5474 -1.6766 -0.1677
19248TIP3   OH279158   3.170   2.549   1.558 -0.4389  0.6602  0.5561
19248TIP3    H179159   3.197   2.627   1.510 -0.4808  1.2023  1.3934
19248TIP3    H279160   3.100   2.579   1.616 -1.1760 -0.2266  0.1536
19249TIP3   OH279161   3.863   5.652   3.555  0.1336  0.0493  0.3341
19249TIP3    H179162   3.915   5.708   3.498  1.1100  1.6471  2.6192
19249TIP3    H279163   3.786   5.704   3.577 -0.0205 -0.3689  0.8079
19250TIP3   OH279164   3.412   2.315   4.832  0.1021 -0.3884  0.2002
19250TIP3    H179165   3.396   2.231   4.789 -2.2912  1.4003 -2.8139
19250TIP3    H279166   3.326   2.340   4.867  0.3397  1.5385 -0.4863
19251TIP3   OH279167   6.082   1.016   0.748  0.3854  0.5346  0.4911
19251TIP3    H179168   6.000   1.059   0.772  0.1834 -0.0544  0.8955
19251TIP3    H279169   6.058   0.956   0.678  0.6893  1.1526 -0.1601
19252TIP3   OH279170   2.067   7.134   5.594 -0.4543 -0.3567 -0.2162
19252TIP3    H179171   2.084   7.040   5.587 -1.5303 -0.4929 -1.6167
19252TIP3    H279172   2.050   7.162   5.503  0.7830  1.3861  0.0306
19253TIP3   OH279173   7.014   6.185   4.867 -0.5778  0.3237 -0.0659
19253TIP3    H179174   6.995   6.255   4.805  1.8369  1.1291 -0.0083
19253TIP3    H279175   7.007   6.104   4.816 -1.9435  0.6973 -0.5009
19254TIP3   OH279176   4.280   5.313   4.041  0.3840  0.2912 -0.0764
19254TIP3    H179177   4.268   5.352   3.954  2.5044  1.8494  0.2261
19254TIP3    H279178   4.367   5.273   4.037  1.0478  1.4415  1.6285
19255TIP3   OH279179   2.634   6.476   5.345  0.6503 -0.3076  0.3344
19255TIP3    H179180   2.682   6.393   5.353 -0.3987 -0.8610  1.1561
19255TIP3    H279181   2.669   6.531   5.416  1.5697  0.0888 -0.4057
19256TIP3   OH279182   0.833   0.467   1.340  0.5936 -0.4814  0.2518
19256TIP3    H179183   0.838   0.517   1.422 -1.2637 -1.2279  0.8839
19256TIP3    H279184   0.775   0.519   1.284 -0.7519 -1.4860  0.6465
19257TIP3   OH279185   2.716   0.990   2.412  0.4345 -0.2796 -0.3035
19257TIP3    H179186   2.687   1.075   2.445  0.5863 -0.4315  0.2402
19257TIP3    H279187   2.793   0.969   2.466  0.1543 -0.9464 -0.1580
19258TIP3   OH279188   6.604   2.062   0.726  0.5130  0.7032 -0.3432
19258TIP3    H179189   6.590   2.128   0.658  1.8508  0.5174 -0.8455
19258TIP3    H279190   6.596   1.978   0.679  1.0702  0.5679 -0.2086
19259TIP3   OH279191   6.424   1.833   4.825 -0.0978  0.5467 -0.0052
19259TIP3    H179192   6.489   1.841   4.756 -1.1782 -0.3996 -1.1693
19259TIP3    H279193   6.377   1.916   4.824  0.7772  1.0659  0.5526
19260TIP3   OH279194   7.018   4.492   2.138 -0.2017 -0.6053 -0.2028
19260TIP3    H179195   7.053   4.519   2.053  1.2364  1.3747  0.9303
19260TIP3    H279196   6.982   4.572   2.175 -0.3905 -1.3318  1.2423
19261TIP3   OH279197   4.480   0.351   3.643 -0.4433  0.6258 -0.8185
19261TIP3    H179198   4.575   0.362   3.644 -0.5164  1.3279 -0.9404
19261TIP3    H279199   4.460   0.312   3.728 -0.0898  0.8745 -0.6179
19262TIP3   OH279200   4.163   6.016   3.523  0.3126  0.1968  0.6218
19262TIP3    H179201   4.191   5.930   3.553  0.4715  0.6182  1.7278
19262TIP3    H279202   4.243   6.058   3.493  0.6242  0.7768  2.1974
19263TIP3   OH279203   2.664   5.719   2.226  0.3556 -0.3988  0.1970
19263TIP3    H179204   2.718   5.645   2.197  3.4583  1.1175  1.6360
19263TIP3    H279205   2.574   5.688   2.217  1.4327 -3.4413 -1.5386
19264TIP3   OH279206   0.347   2.085   3.292 -0.4976  0.3356  0.7385
19264TIP3    H179207   0.272   2.141   3.312 -1.1812  0.0078 -0.8053
19264TIP3    H279208   0.337   2.063   3.200  1.5780  0.3822  0.4604
19265TIP3   OH279209   3.362   2.493  14.238  0.0222  1.1083  0.4259
19265TIP3    H179210   3.360   2.547  14.317 -0.3306 -2.5734  3.1689
19265TIP3    H279211   3.455   2.483  14.219  0.1273  4.4719 -1.7047
19266TIP3   OH279212   4.604   2.356   0.382  0.2864  0.6033  0.0891
19266TIP3    H179213   4.643   2.399   0.306  2.8322 -0.5626  0.6132
19266TIP3    H279214   4.636   2.406   0.457 -0.8416  0.7547  0.4917
19267TIP3   OH279215   7.150   1.444   1.335 -0.0008 -0.1457 -0.8994
19267TIP3    H179216   7.073   1.492   1.306 -0.8863 -1.2734 -0.5031
19267TIP3    H279217   7.183   1.494   1.410 -0.5341  0.1827 -0.8765
19268TIP3   OH279218   4.088   7.109   3.323  0.1713  0.0079  0.1194
19268TIP3    H179219   4.066   7.016   3.312 -0.4851  0.0298  1.1424
19268TIP3    H279220   4.171   7.119   3.276 -0.5114 -0.7440 -1.2884
19269TIP3   OH279221   0.715   3.366  14.937 -0.0609  0.6809 -0.8302
19269TIP3    H179222   0.656   3.396  15.006  1.8114  2.4262  0.1304
19269TIP3    H279223   0.697   3.425  14.864  2.0395  2.8535  0.2839
19270TIP3   OH279224   2.565   1.473   4.882 -0.7517  0.1286 -0.1778
19270TIP3    H179225   2.636   1.409   4.886 -0.8099  0.0484 -0.4130
19270TIP3    H279226   2.517   1.460   4.964 -1.1449 -0.5753 -0.5135
19271TIP3   OH279227   0.981   0.089   4.901  0.1122 -0.0516  0.3884
19271TIP3    H179228   0.898   0.120   4.865  0.2568 -0.2528 -0.1285
19271TIP3    H279229   0.975  -0.006   4.896  0.4653 -0.0615  0.1364
19272TIP3   OH279230   3.790   6.936   2.798 -0.1965  0.4744  0.4141
19272TIP3    H179231   3.703   6.975   2.792 -0.1026  0.9448  1.7534
19272TIP3    H279232   3.818   6.953   2.888  0.3720 -1.6074  0.6885
19273TIP3   OH279233   0.105   5.392  11.186 -0.9885 -0.4012  0.1478
19273TIP3    H179234   0.029   5.446  11.208  0.2356  0.7550  1.8425
19273TIP3    H279235   0.146   5.436  11.111 -0.5112  0.5634  0.9458
19274TIP3   OH279236   1.813   0.008   4.893 -0.4906  0.1916 -0.4326
19274TIP3    H179237   1.836  -0.083   4.911 -2.3181 -0.7858 -2.6685
19274TIP3    H279238   1.724   0.018   4.927  0.1777  1.6136  1.0387
19275TIP3   OH279239   3.173   5.736   1.605  0.1277  0.2531 -0.0211
19275TIP3    H179240   3.177   5.716   1.699  1.4465  1.0549  0.1122
19275TIP3    H279241   3.216   5.662   1.563  0.8630  0.5922  0.1254
19276TIP3   OH279242   2.006   2.969   3.853  0.1669  0.1343 -0.0760
19276TIP3    H179243   2.029   3.058   3.876 -0.6390  0.3094  0.0716
19276TIP3    H279244   2.077   2.915   3.889  0.5984  0.6993 -0.0797
19277TIP3   OH279245   5.927   1.960   5.268 -0.4409  0.0141  0.0323
19277TIP3    H179246   5.934   2.046   5.226 -0.4484 -0.7632 -1.6581
19277TIP3    H279247   5.980   1.902   5.212 -0.5032 -1.1021  1.0856
19278TIP3   OH279248   0.802   6.102   2.694 -0.3320  0.7859 -0.0760
19278TIP3    H179249   0.846   6.184   2.670  2.1468 -0.5664 -0.4190
19278TIP3    H279250   0.865   6.034   2.673 -1.7339 -1.1470  1.6437
19279TIP3   OH279251   3.391   5.884   0.685  0.1792  0.3548 -0.3963
19279TIP3    H179252   3.296   5.885   0.694  0.2040 -0.7196  0.0728
19279TIP3    H279253   3.413   5.792   0.668  1.3091  0.2144  1.5573
19280TIP3   OH279254   2.923   6.712   5.047  0.0860  0.5816 -0.3543
19280TIP3    H179255   2.900   6.786   4.991  0.8827  1.5342  0.5367
19280TIP3    H279256   2.996   6.670   5.001  0.0188  0.6997 -0.5715
19281TIP3   OH279257   4.169   0.847   4.847  0.4409 -0.0799 -0.2862
19281TIP3    H179258   4.179   0.883   4.758  1.9985  1.4225  0.4320
19281TIP3    H279259   4.103   0.902   4.888 -0.9793 -1.3616 -0.7418
19282TIP3   OH279260   2.730   5.078   4.108  0.1868 -0.3943  0.1632
19282TIP3    H179261   2.662   5.037   4.055  0.2000  0.2377 -0.3548
19282TIP3    H279262   2.763   5.007   4.164 -1.1913 -0.6272  0.7417
19283TIP3   OH279263   4.234   4.945   4.666  0.2362  0.4186  0.5254
19283TIP3    H179264   4.303   4.896   4.710  0.3119  0.7653  0.7974
19283TIP3    H279265   4.156   4.891   4.675  0.6671 -0.4364 -0.6189
19284TIP3   OH279266   5.283   1.137   4.027 -0.8238 -0.4298  0.3326
19284TIP3    H179267   5.318   1.092   3.951 -1.2999  1.0739 -0.8357
19284TIP3    H279268   5.188   1.121   4.023 -1.1633  1.4839 -0.7541
19285TIP3   OH279269   0.287   5.565   3.696  0.2332  0.2106  0.2197
19285TIP3    H179270   0.322   5.477   3.698  0.2284  0.2150  1.4826
19285TIP3    H279271   0.197   5.555   3.666  0.4944 -0.1045 -0.4677
19286TIP3   OH279272   1.931   3.024   1.896 -0.0339  0.6344  0.0782
19286TIP3    H179273   1.902   3.069   1.975 -1.6815  0.7873 -0.5818
19286TIP3    H279274   1.973   3.092   1.843  1.7763  0.3793  1.1035
19287TIP3   OH279275   6.193   6.474   3.540 -0.4003  0.5279  0.1191
19287TIP3    H179276   6.278   6.443   3.510 -1.0285 -1.0245 -0.1664
19287TIP3    H279277   6.189   6.445   3.632 -0.7208  0.3345  0.0458
19288TIP3   OH279278   4.016   0.222   2.807  0.3073 -0.6834 -0.0500
19288TIP3    H179279   4.076   0.188   2.873  0.8561 -0.5512 -0.4753
19288TIP3    H279280   4.001   0.313   2.834  1.7814 -0.1394 -0.9647
19289TIP3   OH279281   3.188   6.106   5.228 -0.7574 -0.6028  0.3063
19289TIP3    H179282   3.137   6.177   5.189 -1.0804 -0.3093  1.2229
19289TIP3    H279283   3.179   6.033   5.167 -0.5840  0.0808 -0.5489
19290TIP3   OH279284   4.474   0.094  15.110  0.4043  0.5888  0.0729
19290TIP3    H179285   4.549   0.035  15.119 -1.8901 -2.7294 -0.6353
19290TIP3    H279286   4.497   0.153  15.039  2.8106  0.5470  0.7542
19291TIP3   OH279287   4.976   6.548   0.324 -0.3524 -0.5754 -0.4169
19291TIP3    H179288   4.903   6.561   0.386 -1.0693 -1.5001 -1.0514
19291TIP3    H279289   4.938   6.496   0.253  0.8771 -0.8644 -0.8725
19292TIP3   OH279290   5.614   1.579   4.402  0.2962  0.0484 -0.0362
19292TIP3    H179291   5.558   1.626   4.465 -1.1239  0.1070 -1.2930
19292TIP3    H279292   5.640   1.645   4.339  1.5103 -0.0670  0.3181
19293TIP3   OH279293   6.084   3.330   1.258  0.1152  0.4499  0.0328
19293TIP3    H179294   6.035   3.398   1.304 -1.4321  0.3944 -1.4484
19293TIP3    H279295   6.149   3.301   1.322  0.1489  2.5690  1.0679
19294TIP3   OH279296   2.739   2.303   4.424  0.0864  0.4028 -0.3530
19294TIP3    H179297   2.801   2.232   4.436 -0.6502 -0.1126  0.5540
19294TIP3    H279298   2.787   2.370   4.376  0.8546 -0.6202 -1.0476
19295TIP3   OH279299   5.017   0.033   3.286 -0.1848 -0.0468 -0.5810
19295TIP3    H179300   5.101   0.067   3.254 -0.0439 -0.2219 -0.3986
19295TIP3    H279301   4.956   0.106   3.275  0.1655  0.3466  0.0237
19296TIP3   OH279302   5.434   3.088   2.694  0.2028 -0.2175 -0.6330
19296TIP3    H179303   5.416   3.149   2.623 -0.6620 -2.0286 -2.0340
19296TIP3    H279304   5.433   3.002   2.653  0.9407 -1.2371  1.3637
19297TIP3   OH279305   0.763   5.012  12.260  0.1459 -0.0461  0.3203
19297TIP3    H179306   0.800   5.089  12.216 -1.0080  0.1473 -0.3582
19297TIP3    H279307   0.738   5.044  12.347 -0.6950  0.4697 -0.0962
19298TIP3   OH279308   1.968   2.589   5.950 -0.1175  0.1116 -0.2056
19298TIP3    H179309   2.009   2.514   5.908  1.0355  0.7879 -0.3399
19298TIP3    H279310   1.949   2.561   6.039  0.8733 -0.1521 -0.0698
19299TIP3   OH279311   5.618   6.384  13.155  0.0165  0.4808  0.2926
19299TIP3    H179312   5.571   6.456  13.197  1.1625  1.1992  0.3917
19299TIP3    H279313   5.592   6.389  13.063 -0.3433  0.6778  0.4033
19300TIP3   OH279314   6.833   4.447   1.674  0.0684  0.3825 -0.2224
19300TIP3    H179315   6.824   4.359   1.708 -0.2956  0.5222  0.0473
19300TIP3    H279316   6.927   4.456   1.656  0.7642  1.1445  3.0854
19301TIP3   OH279317   4.161   5.941   5.655 -0.0583  0.3479 -0.6138
19301TIP3    H179318   4.120   5.951   5.740 -0.9191 -0.6887 -0.8743
19301TIP3    H279319   4.253   5.962   5.669  0.1400 -1.3440  0.9341
19302TIP3   OH279320   2.057   2.676   2.710 -0.0927  0.5028  0.6638
19302TIP3    H179321   2.073   2.670   2.616 -0.1953  5.3211  0.0829
19302TIP3    H279322   1.966   2.649   2.721 -0.2438  0.3908 -0.7105
19303TIP3   OH279323   4.118   2.796   3.815 -0.4608  0.3815  0.1450
19303TIP3    H179324   4.142   2.750   3.735  0.7456  1.3732 -0.1052
19303TIP3    H279325   4.114   2.728   3.882 -0.2691 -0.2918 -0.5193
19304TIP3   OH279326   5.043   4.441   5.694 -0.0372  0.2182 -0.0744
19304TIP3    H179327   5.101   4.514   5.717 -0.0666  0.0733  0.4754
19304TIP3    H279328   4.959   4.464   5.735 -0.1136 -0.0064 -0.1065
19305TIP3   OH279329   1.120   2.127  11.847 -0.1484  0.1110 -0.0126
19305TIP3    H179330   1.026   2.144  11.839  0.3332  2.6958 -1.3534
19305TIP3    H279331   1.161   2.201  11.803  2.5458 -0.9079  0.6089
19306TIP3   OH279332   1.167   4.405   5.786  0.6614  0.1820 -0.4519
19306TIP3    H179333   1.230   4.475   5.772  2.3964 -1.1713  0.2406
19306TIP3    H279334   1.182   4.344   5.714  1.5385 -1.0838  0.7408
19307TIP3   OH279335   3.203   1.131  14.526  0.4192  0.0437 -0.3539
19307TIP3    H179336   3.273   1.186  14.493  1.1140  0.3285  1.4535
19307TIP3    H279337   3.157   1.186  14.590 -0.5997 -0.5857 -0.5181
19308TIP3   OH279338   2.795   0.801   0.976  0.1892 -0.2453 -0.2265
19308TIP3    H179339   2.778   0.892   0.955  0.1118  0.0176  0.8883
19308TIP3    H279340   2.867   0.775   0.918  0.8066  0.7889  0.0568
19309TIP3   OH279341   5.091   0.775   4.284 -0.2715 -0.1126  0.3081
19309TIP3    H179342   5.014   0.831   4.289 -1.0323 -1.1320  0.3718
19309TIP3    H279343   5.061   0.691   4.320 -0.7170 -2.2299 -4.3538
19310TIP3   OH279344   3.941   2.715   3.568 -0.6389  0.3025 -0.1928
19310TIP3    H179345   3.999   2.770   3.515  0.5295  1.3749  2.0839
19310TIP3    H279346   3.862   2.705   3.514  1.2975 -0.6550 -3.1111
19311TIP3   OH279347   7.018   2.210   1.985  0.5752  0.1099 -0.0425
19311TIP3    H179348   7.063   2.163   1.915 -0.3039 -1.5628  0.4560
19311TIP3    H279349   7.013   2.300   1.954  3.4736  0.2178 -0.4662
19312TIP3   OH279350   4.980   1.711   4.504  0.1668  0.5653  0.6315
19312TIP3    H179351   5.018   1.753   4.582  1.7925  1.1698 -0.4323
19312TIP3    H279352   4.995   1.774   4.434 -1.7542  0.2643 -0.1122
19313TIP3   OH279353   3.200   2.062   0.315  0.7345 -0.6900  0.3286
19313TIP3    H179354   3.226   2.030   0.401  0.3871 -0.2042  0.6194
19313TIP3    H279355   3.188   2.156   0.327 -0.7523 -0.8354  0.1084
19314TIP3   OH279356   3.424   2.657  14.686  0.3732  0.7097 -0.4816
19314TIP3    H179357   3.374   2.689  14.761 -1.4514  0.5686 -1.5883
19314TIP3    H279358   3.449   2.567  14.711 -3.4528 -0.8103 -1.3851
19315TIP3   OH279359   6.137   2.959   0.730 -0.0798 -0.9348 -0.1363
19315TIP3    H179360   6.107   2.905   0.657 -0.3527 -0.7711 -0.1449
19315TIP3    H279361   6.226   2.928   0.747  0.3281 -0.3475 -1.1392
19316TIP3   OH279362   6.808   4.732   5.665  0.4167 -0.6998 -0.7899
19316TIP3    H179363   6.902   4.750   5.658  0.8551 -2.8489 -1.4427
19316TIP3    H279364   6.766   4.816   5.649  2.2068 -0.0172 -2.3691
19317TIP3   OH279365   1.264   1.857   3.409 -0.0529 -0.0191  0.1331
19317TIP3    H179366   1.283   1.827   3.498 -0.1709 -0.0239  0.1565
19317TIP3    H279367   1.344   1.902   3.381 -0.1972  0.4325  0.4335
19318TIP3   OH279368   3.700   0.194   5.529 -0.6900  0.0928 -0.2076
19318TIP3    H179369   3.713   0.204   5.624 -0.8146 -0.2998 -0.1463
19318TIP3    H279370   3.637   0.261   5.506 -0.1131  0.6698 -0.1414
19319TIP3   OH279371   4.170   1.561   2.705 -0.1204  0.4249  0.7180
19319TIP3    H179372   4.159   1.640   2.759 -0.6578  1.4682 -0.8528
19319TIP3    H279373   4.262   1.536   2.718  0.5748  2.3637 -0.0942
19320TIP3   OH279374   0.207   6.514   3.741 -0.2939 -0.1994  0.0423
19320TIP3    H179375   0.302   6.519   3.727  0.0200 -1.6902  1.2813
19320TIP3    H279376   0.175   6.465   3.666 -0.0737  0.2499 -0.3484
19321TIP3   OH279377   3.093   5.149   3.996 -0.2987 -0.4868  0.2992
19321TIP3    H179378   3.007   5.109   3.980 -1.7274  2.2291  0.6341
19321TIP3    H279379   3.154   5.091   3.951 -2.4772 -1.5492 -1.5528
19322TIP3   OH279380   2.326   1.105  11.344  0.1488  0.5880 -0.4911
19322TIP3    H179381   2.300   1.091  11.435  1.1467  0.7378 -0.1699
19322TIP3    H279382   2.416   1.139  11.349  0.7124 -0.6280 -1.5766
19323TIP3   OH279383   2.760   5.954   1.750 -0.1317 -0.2930  0.3214
19323TIP3    H179384   2.671   5.951   1.714 -0.1629 -1.2745  0.4731
19323TIP3    H279385   2.756   6.023   1.817 -0.5422  0.2810 -0.2805
19324TIP3   OH279386   2.691   6.586  12.765 -0.3216  0.2944 -0.6433
19324TIP3    H179387   2.681   6.533  12.686  0.0148  1.0455 -1.2026
19324TIP3    H279388   2.653   6.671  12.741  0.3060  0.7041 -0.1911
19325TIP3   OH279389   1.456   4.559   3.355  0.2360  0.3472  0.2306
19325TIP3    H179390   1.408   4.626   3.404  0.7818  0.2103  0.9702
19325TIP3    H279391   1.392   4.489   3.340 -0.2943  0.9527 -0.4133
19326TIP3   OH279392   3.297   4.296   1.926  0.0519  0.1648 -0.4740
19326TIP3    H179393   3.383   4.330   1.902  0.0247  0.5525 -0.0358
19326TIP3    H279394   3.310   4.201   1.934  0.4143  0.2117 -0.4982
19327TIP3   OH279395   0.938   2.504   2.921  0.4909  0.2197  0.1009
19327TIP3    H179396   1.008   2.444   2.947  1.0667 -0.7206 -3.0792
19327TIP3    H279397   0.983   2.585   2.898  0.0032  1.0385  1.8808
19328TIP3   OH279398   1.275   5.791   4.470  0.3297  0.0861  0.2541
19328TIP3    H179399   1.311   5.785   4.558  0.2652  1.5323  0.3942
19328TIP3    H279400   1.217   5.715   4.462  1.7758 -1.1205  0.7602
19329TIP3   OH279401   5.601   6.178   4.888  0.0989  0.0346 -0.5673
19329TIP3    H179402   5.635   6.088   4.883  0.4501  0.2274 -2.0565
19329TIP3    H279403   5.678   6.230   4.911  0.0982  0.0691 -0.6436
19330TIP3   OH279404   3.726   0.194   2.788 -0.6988 -0.2858 -0.0102
19330TIP3    H179405   3.703   0.287   2.793 -2.0536 -0.6802  2.7798
19330TIP3    H279406   3.821   0.193   2.799 -0.5141  0.7680 -1.1466
19331TIP3   OH279407   4.226   1.192  13.820 -0.3749  0.4159  0.1382
19331TIP3    H179408   4.283   1.237  13.758  0.0444 -0.0879  0.1543
19331TIP3    H279409   4.156   1.155  13.767  0.3331 -0.5731 -0.1325
19332TIP3   OH279410   0.977   6.549   3.356 -0.2877  0.2617 -0.1227
19332TIP3    H179411   0.957   6.627   3.304 -0.0085  0.5137  0.1475
19332TIP3    H279412   1.064   6.522   3.327  0.1255  0.7491  0.6266
19333TIP3   OH279413   3.318   1.529   4.735 -0.5321 -0.0047  0.6344
19333TIP3    H179414   3.248   1.471   4.706 -0.3867 -0.5956  1.4609
19333TIP3    H279415   3.284   1.569   4.815 -0.4510  0.7213  0.3148
19334TIP3   OH279416   0.999   6.277  13.214  0.1583 -0.4885  0.2153
19334TIP3    H179417   1.022   6.229  13.135 -2.0918  0.5572 -1.1646
19334TIP3    H279418   0.905   6.263  13.225  0.3933 -0.6128  2.7573
19335TIP3   OH279419   3.735   5.524   1.943  0.2352  0.2706 -0.3558
19335TIP3    H179420   3.727   5.564   2.030  2.5552  2.5172 -1.0436
19335TIP3    H279421   3.724   5.430   1.959 -2.8753  0.8438  1.7818
19336TIP3   OH279422   2.332   1.615  15.482 -0.1263 -0.4553 -0.5521
19336TIP3    H179423   2.330   1.568  15.565  0.0348 -0.8650 -0.7754
19336TIP3    H279424   2.240   1.627  15.459 -0.1733 -0.1877 -0.2334
19337TIP3   OH279425   0.616   2.180   5.954  0.4814 -0.1724  0.2837
19337TIP3    H179426   0.684   2.113   5.943  1.7398  1.3756 -2.2892
19337TIP3    H279427   0.662   2.263   5.938 -1.6115  1.1074  0.5723
19338TIP3   OH279428   3.326   0.437  15.148 -0.3242  0.0159  0.5008
19338TIP3    H179429   3.351   0.360  15.198 -3.7976 -1.6385  0.0010
19338TIP3    H279430   3.277   0.491  15.210  0.0767  0.6882  0.2421
19339TIP3   OH279431   2.709   3.665   1.863  0.2497  0.1267  0.6220
19339TIP3    H179432   2.676   3.744   1.821  0.7080  0.5437  1.0450
19339TIP3    H279433   2.750   3.695   1.944  0.9620 -0.4756  0.4985
19340TIP3   OH279434   5.547   2.296   3.956  0.2967  0.2821 -0.0884
19340TIP3    H179435   5.572   2.322   3.867  0.1886  0.5287 -0.0479
19340TIP3    H279436   5.613   2.232   3.982 -0.2677 -0.5913 -0.7465
19341TIP3   OH279437   1.477   1.019   3.191  0.0287  0.1948  0.5052
19341TIP3    H179438   1.503   0.946   3.247 -2.1178 -1.0917 -0.0489
19341TIP3    H279439   1.385   1.002   3.170  0.1377  1.7583 -1.6619
19342TIP3   OH279440   1.073   2.755   5.735  0.5455  0.0485 -0.0344
19342TIP3    H179441   1.003   2.691   5.734  0.4236  0.0736  1.9652
19342TIP3    H279442   1.091   2.774   5.643  0.3914 -2.6100 -0.6825
19343TIP3   OH279443   4.512   5.054   2.770 -0.5100  0.2333  0.3613
19343TIP3    H179444   4.477   4.971   2.804  0.4291 -0.1846  0.3571
19343TIP3    H279445   4.502   5.115   2.843 -1.0693  0.0831  0.4179
19344TIP3   OH279446   4.705   6.598   4.697  0.3639  0.4244 -0.0888
19344TIP3    H179447   4.744   6.657   4.633 -0.3292  0.2110 -0.7088
19344TIP3    H279448   4.733   6.634   4.782  0.2243  1.4435 -0.4651
19345TIP3   OH279449   5.961   0.054   1.611 -0.1248 -0.0328 -0.4869
19345TIP3    H179450   6.014   0.102   1.675 -1.9128  1.4515 -0.0486
19345TIP3    H279451   6.019  -0.016   1.580  1.1021 -0.3043  2.1334
19346TIP3   OH279452   3.926   5.238   3.893 -0.1044 -0.1906 -0.5607
19346TIP3    H179453   3.891   5.303   3.954 -1.1770 -0.6299 -0.6752
19346TIP3    H279454   4.004   5.204   3.937 -0.6259 -0.2059  0.3913
19347TIP3   OH279455   2.561   5.019   3.387  0.1353 -1.0193  0.1169
19347TIP3    H179456   2.493   5.027   3.453 -0.5705  0.7188 -0.7778
19347TIP3    H279457   2.517   5.033   3.303  1.1144 -2.6063 -0.7383
19348TIP3   OH279458   6.290   6.471   2.328 -0.5706  0.3589  0.2809
19348TIP3    H179459   6.349   6.501   2.259 -1.0987  1.2123  0.1965
19348TIP3    H279460   6.213   6.437   2.281 -0.9349  0.9501  0.4467
19349TIP3   OH279461   4.671   2.181   3.669 -0.1225  0.1386  0.3845
19349TIP3    H179462   4.677   2.156   3.576  0.2093  0.4263  0.3264
19349TIP3    H279463   4.756   2.219   3.689  0.2596 -1.0485  1.1484
19350TIP3   OH279464   4.860   3.320   3.968 -0.2820 -0.2736  0.2988
19350TIP3    H179465   4.856   3.225   3.974  2.7463 -0.4335  1.3403
19350TIP3    H279466   4.953   3.341   3.976 -0.6441  2.6903 -1.6250
19351TIP3   OH279467   1.403   5.341   3.952 -0.2642  0.9352 -0.3219
19351TIP3    H179468   1.401   5.373   4.042  2.2793  0.5350 -0.0526
19351TIP3    H279469   1.441   5.413   3.902  1.1072  0.1097 -0.5214
19352TIP3   OH279470   1.632   1.417   0.085  0.1913 -0.5155 -0.1116
19352TIP3    H179471   1.575   1.400   0.010 -0.2031  2.6955 -0.6809
19352TIP3    H279472   1.576   1.402   0.161 -0.7642  0.3939 -0.6071
19353TIP3   OH279473   2.214   3.922   2.291 -0.3438 -0.1516  0.3652
19353TIP3    H179474   2.253   4.009   2.297 -2.6675  1.1710 -1.8256
19353TIP3    H279475   2.133   3.929   2.340 -0.7222 -0.9642 -0.1296
19354TIP3   OH279476   1.323   2.241   1.810 -0.0166  0.0099  0.0241
19354TIP3    H179477   1.317   2.273   1.900 -1.7376 -2.7867  1.0522
19354TIP3    H279478   1.232   2.233   1.781  0.4478 -0.5895 -1.3823
19355TIP3   OH279479   3.498   4.952  15.467 -0.6547  0.0478  0.7698
19355TIP3    H179480   3.581   4.938  15.512 -0.6287 -0.9113  0.4461
19355TIP3    H279481   3.436   4.896  15.513 -0.6642 -0.8094 -0.2472
19356TIP3   OH279482   5.380   5.964   2.205  0.2965  0.5389 -0.0159
19356TIP3    H179483   5.388   6.023   2.130 -2.0994  2.0565  0.7971
19356TIP3    H279484   5.286   5.950   2.213  0.6976 -2.0020  0.9509
19357TIP3   OH279485   6.852   3.203  15.403 -0.1824  0.0219 -0.1344
19357TIP3    H179486   6.930   3.174  15.450 -0.0990  3.0883  1.9231
19357TIP3    H279487   6.887   3.245  15.324  0.3984  1.9037  1.0615
19358TIP3   OH279488   3.508   3.166  12.283  0.4695 -0.0412  0.0932
19358TIP3    H179489   3.515   3.100  12.352  0.4254 -0.4673 -0.3027
19358TIP3    H279490   3.590   3.160  12.235  0.6983  0.5879  0.3982
19359TIP3   OH279491   3.879   2.121   3.349 -0.4505  0.1475 -0.0635
19359TIP3    H179492   3.817   2.073   3.293  0.4303 -0.2172 -0.7504
19359TIP3    H279493   3.949   2.058   3.366  1.3879  1.4994 -2.0512
19360TIP3   OH279494   0.272   3.700   4.606 -0.0583 -0.7407  0.1293
19360TIP3    H179495   0.347   3.712   4.665  0.1240  0.1256 -0.2625
19360TIP3    H279496   0.312   3.682   4.521 -0.2919 -0.2848 -0.0802
19361TIP3   OH279497   0.916   2.835   3.548  0.2248 -0.5765 -0.5513
19361TIP3    H179498   0.860   2.893   3.496  0.7291 -0.2761 -0.7772
19361TIP3    H279499   0.978   2.799   3.484  0.8483 -0.2085 -0.1699
19362TIP3   OH279500   0.446   6.191   5.620 -0.9786  0.0619  0.0323
19362TIP3    H179501   0.531   6.231   5.603 -1.0521  0.3086  0.2445
19362TIP3    H279502   0.402   6.190   5.535 -0.8236  0.0683 -0.0479
19363TIP3   OH279503   0.663   1.348   3.020  0.3434 -0.3646  0.0065
19363TIP3    H179504   0.595   1.390   2.966  0.4441  0.2292  0.3267
19363TIP3    H279505   0.622   1.340   3.107  1.2144  1.4970  0.6446
19364TIP3   OH279506   0.239   3.000   1.268 -0.2061  0.8216  0.0290
19364TIP3    H179507   0.257   3.063   1.338 -2.3075  1.2688  0.2149
19364TIP3    H279508   0.144   2.986   1.271  0.1669 -2.4861  0.0941
19365TIP3   OH279509   3.125   6.276   5.661  0.5586  0.5662  0.4360
19365TIP3    H179510   3.070   6.276   5.739  0.0700  1.5471  0.0964
19365TIP3    H279511   3.066   6.296   5.589  1.0704  0.0166 -0.1545
19366TIP3   OH279512   2.057   5.505   5.604  0.5096 -0.4239  0.4163
19366TIP3    H179513   2.068   5.416   5.638  1.3871  0.3745  2.3433
19366TIP3    H279514   2.051   5.560   5.681 -2.0113  1.0327 -0.7149
19367TIP3   OH279515   2.224   1.348  14.408 -0.0388 -0.3951  0.5757
19367TIP3    H179516   2.285   1.420  14.420 -1.0238  0.9273 -1.6603
19367TIP3    H279517   2.231   1.326  14.315 -2.0585 -0.9972  0.5102
19368TIP3   OH279518   6.007   3.038  11.942  0.6936  0.0143  0.1655
19368TIP3    H179519   6.029   3.035  11.849  0.9635  0.4911  0.2134
19368TIP3    H279520   6.074   3.095  11.981 -0.0849  0.7346  0.4668
19369TIP3   OH279521   1.300   5.858   0.843  0.0536 -0.1672 -0.4014
19369TIP3    H179522   1.326   5.924   0.909  0.8939 -0.8876  0.0110
19369TIP3    H279523   1.348   5.779   0.868  1.1377 -0.2161 -2.4121
19370TIP3   OH279524   4.563   4.533   4.634  0.0862 -0.0332  0.2493
19370TIP3    H179525   4.655   4.517   4.655 -0.2112  0.7788  2.3859
19370TIP3    H279526   4.522   4.447   4.638  0.5947 -0.2830  0.1200
19371TIP3   OH279527   1.264   6.706   3.841  0.2111  0.0772  0.1193
19371TIP3    H179528   1.329   6.741   3.780 -0.8695 -0.3233 -1.3240
19371TIP3    H279529   1.315   6.676   3.916  1.5401  1.0190 -0.3757
19372TIP3   OH279530   1.960   5.483   2.554 -0.0210  0.0026 -0.0399
19372TIP3    H179531   1.993   5.530   2.631 -2.0073 -0.3782  1.1048
19372TIP3    H279532   1.934   5.552   2.493 -0.4147  0.3479  0.5165
19373TIP3   OH279533   0.607   5.343   4.624  0.0570  0.3239  1.1231
19373TIP3    H179534   0.573   5.295   4.549  1.0496  0.8887  0.2837
19373TIP3    H279535   0.661   5.413   4.586  0.2246  0.8995  2.3509
19374TIP3   OH279536   2.425   1.911   2.659  0.7116 -0.2900  0.1054
19374TIP3    H179537   2.383   1.976   2.716 -0.5988 -0.6673 -0.3993
19374TIP3    H279538   2.369   1.834   2.665  1.5614 -0.9542 -0.2950
19375TIP3   OH279539   1.348   6.932   0.565  0.1951 -0.1185  0.0090
19375TIP3    H179540   1.290   6.873   0.518 -0.3500  0.0275  0.4896
19375TIP3    H279541   1.312   7.019   0.548  2.4188  0.4322 -2.8258
19376TIP3   OH279542   1.745   3.328   3.107 -0.3405  0.3368 -0.6087
19376TIP3    H179543   1.714   3.356   3.021 -1.9097 -1.0730 -0.5511
19376TIP3    H279544   1.793   3.247   3.090 -0.8136 -0.0477 -0.1575
19377TIP3   OH279545   5.011   4.261   2.123 -0.4982 -0.1643 -0.2460
19377TIP3    H179546   5.035   4.293   2.210 -2.1409 -0.0327  0.1994
19377TIP3    H279547   4.982   4.339   2.076 -3.6058 -0.6811  0.5309
19378TIP3   OH279548   2.467   6.980   4.823  0.3223  0.2039 -0.4049
19378TIP3    H179549   2.435   6.907   4.771 -0.1821 -0.8591  1.3451
19378TIP3    H279550   2.561   6.985   4.802  0.2074 -0.4564 -1.0916
19379TIP3   OH279551   5.254   6.330   2.320  0.0316 -0.4985 -0.4441
19379TIP3    H179552   5.207   6.280   2.253 -0.3875  1.0540 -1.3678
19379TIP3    H279553   5.341   6.346   2.282  0.7347 -1.8451  0.5187
19380TIP3   OH279554   6.740   0.294   5.343 -0.1762  0.0865 -0.3549
19380TIP3    H179555   6.758   0.345   5.264 -0.1254 -0.3294 -0.6154
19380TIP3    H279556   6.646   0.278   5.341 -0.1963  0.1946 -0.2595
19381TIP3   OH279557   6.389   2.102   3.803  0.4621 -0.2896  0.2711
19381TIP3    H179558   6.369   2.039   3.872 -0.0560 -0.2691  0.1427
19381TIP3    H279559   6.481   2.125   3.817  0.2188  0.1110  1.2797
19382TIP3   OH279560   3.002   2.603   4.364 -0.0593  0.0733 -0.2301
19382TIP3    H179561   3.049   2.658   4.303 -0.4165  0.9759  0.2921
19382TIP3    H279562   2.948   2.546   4.309 -0.1146  0.6334 -0.7607
19383TIP3   OH279563   5.434   0.568   1.333  0.0936 -0.3993  0.7742
19383TIP3    H179564   5.342   0.550   1.351  0.4164 -1.1591  1.7797
19383TIP3    H279565   5.467   0.489   1.290  0.2392 -0.0565  0.2416
19384TIP3   OH279566   4.347   1.246   4.060 -0.2058  0.1844  0.3928
19384TIP3    H179567   4.287   1.208   4.124  0.7987  0.3887  1.4888
19384TIP3    H279568   4.411   1.176   4.042  0.2336  0.5446  0.5536
19385TIP3   OH279569   5.663   5.433   0.477  0.6536  0.6132  0.2443
19385TIP3    H179570   5.643   5.513   0.526 -0.7781  0.7498 -0.5244
19385TIP3    H279571   5.649   5.363   0.541 -0.0023  0.8658  0.3905
19386TIP3   OH279572   6.654   1.394   0.120  0.2370 -0.1374  0.5532
19386TIP3    H179573   6.711   1.381   0.195  0.3802 -0.7134  0.3505
19386TIP3    H279574   6.688   1.335   0.053  0.7667  1.1235 -0.3369
19387TIP3   OH279575   6.489   3.302   1.124  0.5062  0.4222  0.4981
19387TIP3    H179576   6.422   3.343   1.069  1.2967  2.9720  1.2715
19387TIP3    H279577   6.441   3.238   1.176 -1.4188  2.1638  1.0418
19388TIP3   OH279578   1.777   1.086   1.092 -0.1689  0.2713 -0.4204
19388TIP3    H179579   1.857   1.049   1.130  2.1684  2.3165 -2.9006
19388TIP3    H279580   1.746   1.148   1.158  0.7726  0.0585  0.2425
19389TIP3   OH279581   5.239   4.416   3.261  0.1296  0.4579  0.1519
19389TIP3    H179582   5.325   4.391   3.293  0.0707 -0.6411 -0.4977
19389TIP3    H279583   5.202   4.335   3.224 -0.5857  1.2296 -0.8833
19390TIP3   OH279584   5.681   3.554   3.252 -0.1372  0.0821  0.3172
19390TIP3    H179585   5.628   3.605   3.313  0.9822 -0.5564  1.9157
19390TIP3    H279586   5.713   3.481   3.304  1.3892 -0.1536 -0.8636
19391TIP3   OH279587   6.919   6.476   2.748 -0.0154  0.5180  0.1711
19391TIP3    H179588   6.895   6.464   2.840 -1.0629  0.8818 -0.0457
19391TIP3    H279589   6.839   6.456   2.700  0.0974  1.7832 -0.5780
19392TIP3   OH279590   3.286   6.539  13.453 -0.1948 -0.2287 -0.3394
19392TIP3    H179591   3.378   6.564  13.452 -0.8633  2.5731 -0.2973
19392TIP3    H279592   3.262   6.533  13.360 -0.1749  0.0342 -0.3648
19393TIP3   OH279593   1.070   1.712   2.506  0.2587  0.2238  0.0786
19393TIP3    H179594   1.035   1.633   2.463  0.9213  1.0715 -2.1306
19393TIP3    H279595   1.158   1.721   2.471 -0.3206  2.7615 -0.9086
19394TIP3   OH279596   7.039   5.389   4.900  0.0965  0.8492 -0.2318
19394TIP3    H179597   7.072   5.427   4.819 -0.0939 -0.8206 -1.1337
19394TIP3    H279598   7.096   5.314   4.917  0.1535  1.1895  1.2151
19395TIP3   OH279599   0.738   3.664  13.734 -0.0997 -0.7179  0.1717
19395TIP3    H179600   0.686   3.725  13.681 -0.4479 -0.5190  0.7331
19395TIP3    H279601   0.694   3.579  13.721  1.0414 -1.1011 -1.5012
19396TIP3   OH279602   2.623   6.705   5.856 -0.2865 -0.0148  0.0550
19396TIP3    H179603   2.589   6.615   5.856 -0.7421  0.1577 -0.0658
19396TIP3    H279604   2.716   6.695   5.879 -0.0550 -0.6292 -1.0674
19397TIP3   OH279605   0.161   1.871   3.177  0.3702  0.5796 -0.0358
19397TIP3    H179606   0.186   1.817   3.252 -1.2873  0.4039  0.4238
19397TIP3    H279607   0.244   1.893   3.135  1.1983 -1.1134  0.6000
19398TIP3   OH279608   1.816   0.060   1.366  0.0494  0.1927 -0.3225
19398TIP3    H179609   1.867   0.038   1.288 -0.1690  1.2075 -0.7628
19398TIP3    H279610   1.726   0.037   1.343  0.2679 -1.6609  0.4787
19399TIP3   OH279611   4.106   3.782   3.469  0.1153  0.0806 -0.6508
19399TIP3    H179612   4.127   3.730   3.391  0.3565 -0.4901 -0.2132
19399TIP3    H279613   4.036   3.734   3.512 -1.1154  1.2088 -1.3160
19400TIP3   OH279614   5.542   2.001   4.096  0.1327  0.7354 -0.0460
19400TIP3    H179615   5.566   2.091   4.121  0.8223  0.6331 -0.3258
19400TIP3    H279616   5.569   1.994   4.005 -0.2044  0.3356 -0.1168
19401TIP3   OH279617   0.489   5.395   5.179 -0.5712 -0.0786 -0.5662
19401TIP3    H179618   0.424   5.463   5.162  0.0610  0.8879  0.7407
19401TIP3    H279619   0.563   5.418   5.123 -1.7031 -1.8645 -3.0011
19402TIP3   OH279620   5.582   6.170  12.874  0.2200  0.3216  0.3916
19402TIP3    H179621   5.567   6.117  12.796  0.7400 -0.3055  0.7130
19402TIP3    H279622   5.677   6.167  12.888  0.0080 -0.6903  1.8200
19403TIP3   OH279623   2.195   6.582   2.799  0.2613 -0.0420  0.2440
19403TIP3    H179624   2.286   6.602   2.822  0.0327 -0.6788  1.7762
19403TIP3    H279625   2.153   6.667   2.791  0.4671  0.2251  1.7905
19404TIP3   OH279626   0.114   2.107   5.260  0.6246  0.0626 -0.7367
19404TIP3    H179627   0.049   2.161   5.217  0.7705 -0.3303 -1.4612
19404TIP3    H279628   0.173   2.079   5.190  0.4237 -1.2160 -0.4105
19405TIP3   OH279629   1.811   0.372   4.302  0.0230 -0.2640 -0.0351
19405TIP3    H179630   1.743   0.313   4.272 -0.4071  0.5205 -0.6530
19405TIP3    H279631   1.818   0.356   4.396  0.1360 -1.4908 -0.2442
19406TIP3   OH279632   0.354   1.930  14.360  0.5615 -0.0167 -0.3761
19406TIP3    H179633   0.420   1.998  14.351  0.1157  0.7832  1.9059
19406TIP3    H279634   0.374   1.888  14.443 -0.7269 -0.9714 -0.5180
19407TIP3   OH279635   0.540   3.455   4.468 -0.0849  0.3354 -0.2582
19407TIP3    H179636   0.459   3.458   4.418 -0.8043  0.4170  0.8787
19407TIP3    H279637   0.514   3.425   4.555  1.5851 -3.2386 -0.7968
19408TIP3   OH279638   0.319   1.053  15.465 -0.2653 -0.2836 -0.5082
19408TIP3    H179639   0.296   0.971  15.420  0.4394 -0.3449 -0.7714
19408TIP3    H279640   0.409   1.038  15.496 -1.1668 -0.7535  2.1073
19409TIP3   OH279641   0.115   4.430   3.022  0.0616  0.3141 -0.1638
19409TIP3    H179642   0.047   4.486   2.984  0.5591  0.0080 -1.5896
19409TIP3    H279643   0.069   4.377   3.086 -1.0514  0.1678 -1.0450
19410TIP3   OH279644   1.655   0.216  14.618  0.4095 -0.6488 -0.4611
19410TIP3    H179645   1.719   0.235  14.687 -1.1622 -0.6798  1.0542
19410TIP3    H279646   1.602   0.145  14.653 -0.5923 -0.4875 -1.5974
19411TIP3   OH279647   0.760   0.654   5.616  0.3464  0.3565  0.0549
19411TIP3    H179648   0.808   0.618   5.690 -1.6746 -2.4834  0.1569
19411TIP3    H279649   0.683   0.695   5.654  0.3888  0.8406 -0.3635
19412TIP3   OH279650   3.365   2.927   2.376  0.5624  0.1424  0.0716
19412TIP3    H179651   3.375   2.840   2.415 -1.4712  0.2080  0.8538
19412TIP3    H279652   3.354   2.986   2.451 -0.7770  0.6637 -0.4968
19413TIP3   OH279653   3.816   6.283   4.278  0.6025  0.1571  0.5176
19413TIP3    H179654   3.839   6.328   4.359  0.2963 -0.0927  0.7486
19413TIP3    H279655   3.837   6.191   4.295  1.4269  0.2408 -0.0258
19414TIP3   OH279656   2.806   5.360   5.601 -0.2657  0.4537 -0.5252
19414TIP3    H179657   2.798   5.369   5.696 -0.7843 -3.1492 -0.1026
19414TIP3    H279658   2.716   5.348   5.570  0.0171  0.2600 -1.2903
19415TIP3   OH279659   0.002   3.255  10.158  0.1483  0.4955 -0.4402
19415TIP3    H179660  -0.073   3.256  10.098 -0.2580 -1.1414 -0.0076
19415TIP3    H279661  -0.034   3.287  10.241 -0.0695 -0.1811 -0.2637
19416TIP3   OH279662   2.406   3.200  15.242 -0.1894 -0.2378  0.9650
19416TIP3    H179663   2.318   3.237  15.245 -0.5206 -0.8380 -0.5398
19416TIP3    H279664   2.432   3.205  15.150  1.1017 -0.6494  1.2774
19417TIP3   OH279665   3.151   1.869   2.303 -0.7080  0.5376  0.3273
19417TIP3    H179666   3.183   1.791   2.257 -1.5002  0.4606 -0.0961
19417TIP3    H279667   3.056   1.868   2.291 -0.8288  1.0623  1.1157
19418TIP3   OH279668   1.866   6.041   3.467 -0.6369  0.5389  0.0677
19418TIP3    H179669   1.804   5.969   3.476  0.2059 -0.3802 -1.1994
19418TIP3    H279670   1.849   6.078   3.381  0.8132  0.0076 -0.4766
19419TIP3   OH279671   4.057   5.023   2.444  0.3466 -0.3221  0.4346
19419TIP3    H179672   4.058   4.964   2.368 -1.5661 -1.4158  1.1919
19419TIP3    H279673   4.148   5.051   2.454  1.3061 -2.9718 -0.1054
19420TIP3   OH279674   0.386   1.838   1.203  0.1501  0.1901 -0.0163
19420TIP3    H179675   0.430   1.755   1.182 -0.6922  0.2669 -2.4446
19420TIP3    H279676   0.441   1.878   1.270  1.2381 -1.7817  0.3548
19421TIP3   OH279677   2.004   2.523  13.975  0.2897  0.1872 -0.0662
19421TIP3    H179678   2.085   2.557  14.013  0.9182  0.8315 -1.8793
19421TIP3    H279679   1.971   2.594  13.920  0.2360 -1.1845 -1.9007
19422TIP3   OH279680   3.914   1.194  14.653  0.4559  0.1368 -1.2214
19422TIP3    H179681   3.978   1.200  14.582 -2.5382 -0.6117 -4.2645
19422TIP3    H279682   3.872   1.109  14.640 -0.7403  0.3137  1.0058
19423TIP3   OH279683   1.045   6.669  13.066 -0.4520  0.4510  0.5099
19423TIP3    H179684   0.999   6.629  12.992  0.4193 -0.0478  0.2202
19423TIP3    H279685   1.131   6.693  13.030 -0.0014  0.1687  1.3716
19424TIP3   OH279686   6.017   2.400   4.793 -0.9233  0.0556  0.2460
19424TIP3    H179687   5.963   2.452   4.851 -1.5486  0.2982 -0.5417
19424TIP3    H279688   5.989   2.424   4.705  0.3518  0.0740 -0.1855
19425TIP3   OH279689   6.693   5.437   5.017 -0.0401  0.1071 -0.5247
19425TIP3    H179690   6.604   5.405   5.000  0.8455 -2.3134 -0.9096
19425TIP3    H279691   6.728   5.456   4.930  0.2328 -0.1468 -0.4709
19426TIP3   OH279692   6.401   2.748   1.474  0.1494 -0.5538  0.2630
19426TIP3    H179693   6.406   2.799   1.393 -0.2230  0.4904  0.8834
19426TIP3    H279694   6.462   2.791   1.533  0.0206 -0.9894  0.7207
19427TIP3   OH279695   6.285   3.405   1.924 -0.1996 -0.3793 -0.4520
19427TIP3    H179696   6.292   3.313   1.901  0.1671 -0.8350  1.3720
19427TIP3    H279697   6.375   3.436   1.928 -0.2937 -0.1077 -0.4268
19428TIP3   OH279698   6.428   0.991   0.864 -0.3736  0.5267 -0.2778
19428TIP3    H179699   6.486   1.037   0.926  1.1078 -0.1109 -1.1283
19428TIP3    H279700   6.477   0.913   0.839 -2.1081 -0.6435 -0.1997
19429TIP3   OH279701   0.494   0.995  13.683 -0.4324  0.5481  0.7396
19429TIP3    H179702   0.481   0.996  13.778 -2.3433 -0.2405  0.5325
19429TIP3    H279703   0.567   1.056  13.668 -0.9249  1.6850  2.6046
19430TIP3   OH279704   4.351   1.630   0.024 -0.0220  0.2441 -0.4592
19430TIP3    H179705   4.439   1.648  -0.009  0.0022  0.6058 -0.2030
19430TIP3    H279706   4.359   1.547   0.071  0.2074  0.3270 -0.3522
19431TIP3   OH279707   3.241   6.157   9.654 -0.0583  0.0868 -0.7403
19431TIP3    H179708   3.336   6.171   9.659 -0.0684 -0.0024 -0.2444
19431TIP3    H279709   3.232   6.064   9.636 -0.0718 -0.3957  1.4629
19432TIP3   OH279710   6.428   6.856   4.857  0.0884 -0.0161  0.7094
19432TIP3    H179711   6.490   6.928   4.863 -2.0744  2.0352 -0.0240
19432TIP3    H279712   6.483   6.778   4.848  2.5387  1.7522 -0.9711
19433TIP3   OH279713   2.749   6.786  11.591 -0.5864 -0.0209  0.0062
19433TIP3    H179714   2.788   6.794  11.678 -0.1306 -1.1874 -0.0804
19433TIP3    H279715   2.822   6.760  11.534 -0.7217  1.3817 -0.8745
19434TIP3   OH279716   5.266   4.826   4.460  0.6213 -0.7155  0.1773
19434TIP3    H179717   5.326   4.891   4.423  0.2953  0.9349  2.3413
19434TIP3    H279718   5.316   4.744   4.461  1.4679 -0.2578 -1.5026
19435TIP3   OH279719   4.638   5.106   3.463  0.2662 -0.2479 -0.4455
19435TIP3    H179720   4.711   5.062   3.419  0.6868 -0.5566  0.5251
19435TIP3    H279721   4.636   5.066   3.550 -0.4429  0.4526 -0.1346
19436TIP3   OH279722   4.948   5.021   3.410  0.0714  0.2404 -0.7363
19436TIP3    H179723   4.897   4.962   3.354  1.2161 -0.9086 -0.6147
19436TIP3    H279724   4.981   5.088   3.349 -2.6664  1.8849 -0.6044
19437TIP3   OH279725   0.930   4.840   2.308  0.1662  0.1708  0.5089
19437TIP3    H179726   0.964   4.760   2.347 -0.7223 -1.1523 -1.2917
19437TIP3    H279727   0.836   4.823   2.297 -0.2804  1.9740  1.2588
19438TIP3   OH279728   0.285   2.659   3.342  0.2946  1.1016 -0.1567
19438TIP3    H179729   0.341   2.665   3.264 -0.0980 -2.0228 -0.8150
19438TIP3    H279730   0.321   2.725   3.402  4.1718 -0.0907 -0.8914
19439TIP3   OH279731   6.481   3.823   2.505  0.4773  0.2937  0.0315
19439TIP3    H179732   6.486   3.913   2.538  1.7843 -0.3403  1.7181
19439TIP3    H279733   6.438   3.831   2.420 -1.6675  2.2264  1.1806
19440TIP3   OH279734   0.192   6.874   4.134 -0.5008 -0.6149 -0.2353
19440TIP3    H179735   0.222   6.801   4.188 -1.6922 -0.4920  0.6467
19440TIP3    H279736   0.260   6.941   4.142 -0.1369 -1.0325  0.2043
19441TIP3   OH279737   5.769   3.529   5.027 -0.6194  0.8075 -0.0031
19441TIP3    H179738   5.820   3.457   4.989  2.3960  3.3290 -1.2100
19441TIP3    H279739   5.805   3.539   5.116 -0.4752  1.3121 -0.1179
19442TIP3   OH279740   6.187   5.298   4.737  0.0287 -0.0143  0.4667
19442TIP3    H179741   6.153   5.312   4.648 -1.2501 -0.1843  0.8989
19442TIP3    H279742   6.263   5.242   4.725 -0.4845 -0.5414 -0.4807
19443TIP3   OH279743   0.628   0.638   5.062 -0.4337 -0.0089 -0.0331
19443TIP3    H179744   0.609   0.552   5.099 -1.1005  0.7361  1.4438
19443TIP3    H279745   0.575   0.642   4.982 -0.5876 -0.8709  0.0208
19444TIP3   OH279746   2.943   0.854   2.535  0.3438 -0.0439  0.0366
19444TIP3    H179747   3.020   0.827   2.486  1.1846 -0.9754  1.7499
19444TIP3    H279748   2.888   0.776   2.539 -1.1250  0.8181 -1.8236
19445TIP3   OH279749   1.565   1.456   6.016  0.2200 -0.3883  0.0902
19445TIP3    H179750   1.526   1.498   5.938 -0.8209 -0.0654  0.7608
19445TIP3    H279751   1.490   1.435   6.071  0.9548 -0.5169  1.0611
19446TIP3   OH279752   2.475   3.317   3.545 -1.0834 -0.4660 -0.2629
19446TIP3    H179753   2.568   3.307   3.563 -1.2736 -3.1969 -0.5125
19446TIP3    H279754   2.447   3.232   3.512 -3.5511  0.4776 -0.8116
19447TIP3   OH279755   4.948   3.738   3.967  0.0476  0.8292  0.4626
19447TIP3    H179756   4.986   3.826   3.976  2.2116 -0.0809  0.9056
19447TIP3    H279757   4.961   3.716   3.875  0.8154  0.4507  0.6510
19448TIP3   OH279758   5.408   2.312   3.622 -0.1968  0.6402  0.1391
19448TIP3    H179759   5.412   2.229   3.670  0.8628 -0.4764 -1.7218
19448TIP3    H279760   5.381   2.287   3.533  0.6412  2.2008 -0.6058
19449TIP3   OH279761   3.533   4.411   1.837  0.9641  0.0699 -0.2925
19449TIP3    H179762   3.546   4.391   1.745 -1.7448 -1.1618 -0.5089
19449TIP3    H279763   3.510   4.504   1.839  0.0277 -0.1354 -1.0137
19450TIP3   OH279764   1.619   4.427   4.566 -0.8133 -0.1769  0.7875
19450TIP3    H179765   1.559   4.355   4.550 -2.5322  1.2243  0.6182
19450TIP3    H279766   1.617   4.439   4.661 -2.3336  1.0545  0.6432
19451TIP3   OH279767   4.997   3.346   2.990  0.3005  0.2804 -0.0922
19451TIP3    H179768   5.050   3.294   3.051 -0.2755  0.1145  0.2728
19451TIP3    H279769   4.993   3.292   2.910  0.0760 -0.0373  0.1310
19452TIP3   OH279770   2.767   5.759   5.017 -0.3906 -0.3063 -0.5913
19452TIP3    H179771   2.702   5.830   5.018 -0.3448 -0.2602  0.9894
19452TIP3    H279772   2.845   5.798   5.056 -0.7300 -1.5247  1.4582
19453TIP3   OH279773   2.331   2.270   3.846 -0.1632 -0.8586  0.4811
19453TIP3    H179774   2.306   2.239   3.934 -0.2164 -0.6444  0.5405
19453TIP3    H279775   2.397   2.337   3.863 -0.0742 -0.9141  0.3509
19454TIP3   OH279776   2.839   1.465   0.282 -0.2116 -0.0686 -0.1044
19454TIP3    H179777   2.849   1.411   0.360 -0.5391  0.8649  0.5967
19454TIP3    H279778   2.910   1.529   0.288  0.1987 -0.4163 -0.9514
19455TIP3   OH279779   0.520   4.901  12.965 -0.2335 -0.1689  0.1682
19455TIP3    H179780   0.477   4.980  12.931 -0.2471 -0.6527 -0.9585
19455TIP3    H279781   0.489   4.895  13.056 -2.4899 -0.4158 -0.5535
19456TIP3   OH279782   3.718   0.057   1.361  0.3371 -0.1216 -0.3721
19456TIP3    H179783   3.748   0.137   1.317  0.4527  1.1617  1.8963
19456TIP3    H279784   3.797   0.021   1.402  0.0824 -0.8130 -0.4687
19457TIP3   OH279785   6.331   4.425   3.726  0.1345  0.3628  0.6361
19457TIP3    H179786   6.250   4.407   3.773 -0.2265  1.7485  0.6050
19457TIP3    H279787   6.335   4.358   3.658 -0.4032 -0.4009  1.3446
19458TIP3   OH279788   6.753   3.272   4.023  0.6947  0.1747  0.3939
19458TIP3    H179789   6.827   3.271   4.084 -1.2056  0.2107  2.8584
19458TIP3    H279790   6.763   3.353   3.974  3.1393 -0.5993 -0.5181
19459TIP3   OH279791   2.975   6.997   4.023 -0.6880  0.3981  0.1866
19459TIP3    H179792   3.033   7.012   3.948 -2.5048 -0.8878 -1.5632
19459TIP3    H279793   2.946   7.085   4.048  0.5556  0.9076 -0.0523
19460TIP3   OH279794   2.536   2.463   4.918 -0.6169  0.3415  0.0920
19460TIP3    H179795   2.602   2.507   4.972 -0.4754 -0.7992  0.8843
19460TIP3    H279796   2.494   2.401   4.978 -1.5521  0.1717 -0.7243
19461TIP3   OH279797   0.361   1.369   5.961  0.2950 -0.4710 -0.7467
19461TIP3    H179798   0.375   1.297   6.023 -1.5495 -0.4057 -0.1769
19461TIP3    H279799   0.447   1.409   5.950  0.8194 -0.9431  1.2055
19462TIP3   OH279800   6.869   0.279   3.257 -0.4109 -0.2898 -0.2156
19462TIP3    H179801   6.916   0.344   3.309 -0.3483 -0.3169 -0.2386
19462TIP3    H279802   6.937   0.222   3.222 -0.3421  0.4149 -1.2852
19463TIP3   OH279803   1.864   3.599   4.768  0.1817  0.2473 -0.1901
19463TIP3    H179804   1.786   3.596   4.713 -0.5852  1.1449  0.7933
19463TIP3    H279805   1.835   3.563   4.852  0.9620  0.1164  0.0264
19464TIP3   OH279806   5.552   3.866   0.885 -0.6458 -0.3399 -0.1597
19464TIP3    H179807   5.626   3.817   0.848  0.1109  1.4241 -1.0658
19464TIP3    H279808   5.531   3.932   0.819 -2.0024  0.2244  0.7907
19465TIP3   OH279809   4.801   4.373   1.787  0.1564 -0.1787  0.0870
19465TIP3    H179810   4.724   4.355   1.732  0.2077 -1.5829  0.4470
19465TIP3    H279811   4.853   4.433   1.735 -0.2000 -0.8319 -1.0646
19466TIP3   OH279812   3.161   6.225   3.405  0.3523 -0.5736  0.8738
19466TIP3    H179813   3.176   6.227   3.311 -0.1158 -1.5033  0.7675
19466TIP3    H279814   3.247   6.208   3.443  0.3226 -1.5730  0.5237
19467TIP3   OH279815   4.375   6.440  15.222 -0.3738 -0.4495 -0.2410
19467TIP3    H179816   4.329   6.490  15.155  0.9524  0.7389 -0.3233
19467TIP3    H279817   4.387   6.502  15.294  1.9737 -0.3232 -0.6481
19468TIP3   OH279818   6.356   5.764  13.899  0.6080 -0.1210 -0.3812
19468TIP3    H179819   6.342   5.757  13.993  0.1839 -0.6809 -0.4755
19468TIP3    H279820   6.406   5.686  13.876  2.3750  0.9484 -0.3462
19469TIP3   OH279821   3.813   2.074  14.005  0.1930  0.0128 -0.3759
19469TIP3    H179822   3.747   2.123  14.055  0.7466 -0.3726  0.7598
19469TIP3    H279823   3.807   1.985  14.039  2.5235  0.3278  1.0954
19470TIP3   OH279824   3.478   6.582  13.807  0.0056 -0.0092  0.3694
19470TIP3    H179825   3.492   6.616  13.719  1.2697 -1.2499  0.0552
19470TIP3    H279826   3.434   6.653  13.854  1.0123  1.3959 -0.7202
19471TIP3   OH279827   1.264   5.411   2.538  0.0175 -0.0815  0.3724
19471TIP3    H179828   1.215   5.436   2.617 -3.1418  1.2334 -1.7774
19471TIP3    H279829   1.209   5.344   2.497  1.6805 -0.8621 -0.6683
19472TIP3   OH279830   4.742   1.815  12.411  0.0604  0.3792  0.2661
19472TIP3    H179831   4.778   1.751  12.472 -1.4122 -0.0591  0.7365
19472TIP3    H279832   4.815   1.838  12.353  0.6393 -1.7437  0.0699
19473TIP3   OH279833   5.495   5.582   4.043 -0.4105  0.3607 -0.5299
19473TIP3    H179834   5.409   5.545   4.022 -0.2958 -0.6195  0.6284
19473TIP3    H279835   5.481   5.677   4.041 -2.0223  0.2282  1.4812
19474TIP3   OH279836   7.077   3.237  13.255 -0.5196 -0.0177 -0.4098
19474TIP3    H179837   7.149   3.262  13.197  0.4029  0.6720  0.9849
19474TIP3    H279838   7.119   3.188  13.326 -1.5436 -0.3495 -0.0092
19475TIP3   OH279839   1.246   2.661   4.350 -0.0766  0.3382  0.3969
19475TIP3    H179840   1.210   2.576   4.326  0.1983  0.4201 -0.3223
19475TIP3    H279841   1.233   2.715   4.272  0.9166  0.5834  0.3901
19476TIP3   OH279842   6.508   1.643   1.589  0.1517  0.4947 -0.0533
19476TIP3    H179843   6.566   1.578   1.628 -1.7257 -1.7305 -0.7531
19476TIP3    H279844   6.447   1.592   1.536 -1.3401  2.8664 -0.7733
19477TIP3   OH279845   2.683   6.817  10.455  0.0142  0.3286  0.2609
19477TIP3    H179846   2.663   6.724  10.455 -1.8342  0.6863 -0.0834
19477TIP3    H279847   2.687   6.840  10.548 -0.7847  0.1326  0.3520
19478TIP3   OH279848   7.016   0.289   3.616 -0.4489  0.3148 -0.6416
19478TIP3    H179849   6.949   0.334   3.667 -0.2956  0.2011 -0.3357
19478TIP3    H279850   7.023   0.340   3.535 -1.0707  0.1868 -0.7773
19479TIP3   OH279851   6.174   6.740   5.184  0.0970  0.6307  0.7734
19479TIP3    H179852   6.133   6.662   5.147 -0.8091  0.8956  1.1891
19479TIP3    H279853   6.158   6.808   5.119  0.3333  0.6154  0.6998
19480TIP3   OH279854   4.656   0.421   0.497  0.4560 -0.6704  0.4562
19480TIP3    H179855   4.593   0.349   0.489 -1.2110  0.7219  0.4243
19480TIP3    H279856   4.623   0.489   0.438  2.7215 -0.3353 -0.5499
19481TIP3   OH279857   6.947   6.376   4.683  0.4574 -0.2949  0.4877
19481TIP3    H179858   6.898   6.411   4.609  1.1679  1.7072  0.8774
19481TIP3    H279859   7.036   6.364   4.650  0.4575 -0.7395  0.6440
19482TIP3   OH279860   0.204   5.477   4.067 -0.3665 -0.3309 -0.2999
19482TIP3    H179861   0.130   5.532   4.094 -0.1557 -0.3356  0.3049
19482TIP3    H279862   0.167   5.418   4.001 -0.6736  0.3004 -0.6973
19483TIP3   OH279863   2.852   1.299   2.307  0.0871 -0.2324  0.3034
19483TIP3    H179864   2.942   1.266   2.315 -0.1070 -0.6334  0.9083
19483TIP3    H279865   2.830   1.330   2.394 -0.6181 -0.8036  0.3370
19484TIP3   OH279866   7.052   1.914  15.458 -0.2908 -0.3198  0.4215
19484TIP3    H179867   6.990   1.984  15.478  3.2168  3.4315 -0.2906
19484TIP3    H279868   7.042   1.899  15.364  0.4456  1.0565  0.0879
19485TIP3   OH279869   5.363   1.481   2.405  0.4285 -0.2665  0.0629
19485TIP3    H179870   5.420   1.489   2.481  2.4661 -1.7906 -1.2087
19485TIP3    H279871   5.322   1.395   2.414  0.6222 -0.4263 -0.4974
19486TIP3   OH279872   3.303   1.404   1.213  0.0682 -0.5064 -0.3645
19486TIP3    H179873   3.260   1.486   1.187  0.8674 -0.1624 -0.6282
19486TIP3    H279874   3.301   1.350   1.134  1.4239  0.0808 -0.8313
19487TIP3   OH279875   4.789   5.252   2.899 -0.0760 -0.5021 -0.0894
19487TIP3    H179876   4.879   5.284   2.903 -0.0072 -0.5751 -0.9430
19487TIP3    H279877   4.794   5.162   2.932 -0.1567  0.0686  1.6207
19488TIP3   OH279878   0.817   1.925   3.092  0.1945 -0.0799 -0.3619
19488TIP3    H179879   0.906   1.958   3.086  0.2543 -0.4491 -1.9086
19488TIP3    H279880   0.782   1.964   3.172  1.8187 -0.1435  0.4120
19489TIP3   OH279881   0.769   6.150  13.334 -0.0646 -0.0049 -0.1340
19489TIP3    H179882   0.754   6.235  13.377 -0.0302  0.5006 -1.0844
19489TIP3    H279883   0.832   6.106  13.390  1.7437  1.5642 -0.8259
19490TIP3   OH279884   0.865   2.027   5.283  0.1179  0.0198 -0.2181
19490TIP3    H179885   0.929   2.071   5.339  0.2974  2.6476 -2.2811
19490TIP3    H279886   0.783   2.073   5.299  0.0310  0.3772 -1.5771
19491TIP3   OH279887   4.297   1.571   3.167  0.1148 -0.2002 -0.2457
19491TIP3    H179888   4.240   1.646   3.148 -1.0919 -0.5927  1.5629
19491TIP3    H279889   4.311   1.576   3.262  3.0488 -0.1924 -0.6153
19492TIP3   OH279890   0.622   4.409  14.314 -0.2847 -0.8336  0.5873
19492TIP3    H179891   0.684   4.458  14.261  0.7590 -2.4435  0.2574
19492TIP3    H279892   0.550   4.389  14.254  0.4492 -1.8204 -0.0015
19493TIP3   OH279893   1.198   1.706  11.188  0.0770 -0.0435  0.7887
19493TIP3    H179894   1.171   1.619  11.159 -0.0728  0.8080 -1.8539
19493TIP3    H279895   1.122   1.740  11.236 -0.2862 -0.9315  0.8528
19494TIP3   OH279896   5.131   1.630   4.169 -0.3043 -0.2257  0.2203
19494TIP3    H179897   5.075   1.664   4.239  0.9044  1.3618  0.4733
19494TIP3    H279898   5.166   1.548   4.204  1.3767  1.2128  2.1097
19495TIP3   OH279899   1.899   0.942   4.921 -0.5927  0.0694 -0.3410
19495TIP3    H179900   1.887   1.020   4.866 -0.4295  0.4215  0.1157
19495TIP3    H279901   1.897   0.976   5.011  0.2774 -0.3445 -0.1584
19496TIP3   OH279902   6.997   5.813  15.174 -0.0037  0.7217  0.2327
19496TIP3    H179903   7.024   5.723  15.193  0.0634  0.5953 -0.4432
19496TIP3    H279904   6.901   5.812  15.181 -0.0001  0.6063  0.2593
19497TIP3   OH279905   3.667   4.830   5.674 -0.3124 -1.6980  0.2105
19497TIP3    H179906   3.639   4.917   5.647 -0.9313 -1.7207  0.7571
19497TIP3    H279907   3.687   4.784   5.593 -0.1930 -1.1155 -0.0896
19498TIP3   OH279908   4.188   5.203   2.770 -0.3193  0.4050  0.1007
19498TIP3    H179909   4.255   5.258   2.729  0.8533 -0.3483  0.9565
19498TIP3    H279910   4.233   5.161   2.843 -1.5005 -0.8123  0.1579
19499TIP3   OH279911   5.884   6.745   2.999  0.0849  0.1891 -0.4771
19499TIP3    H179912   5.965   6.775   3.038  0.2352 -1.3441  0.4543
19499TIP3    H279913   5.908   6.666   2.950 -0.6646  0.3125 -1.0696
19500TIP3   OH279914   1.143   4.441  15.343  0.7881 -0.2354 -0.0642
19500TIP3    H179915   1.219   4.392  15.375  1.0860  0.6195  0.5657
19500TIP3    H279916   1.170   4.532  15.344 -0.1835  0.0682 -0.0109
19501TIP3   OH279917   2.533   3.249   2.821  0.0933  0.3682  0.2695
19501TIP3    H179918   2.441   3.235   2.845  0.3851 -0.8339  0.7492
19501TIP3    H279919   2.531   3.323   2.760 -0.9937  1.5803  1.7146
19502TIP3   OH279920   0.683   3.242   3.448 -0.3857 -0.8541 -0.3355
19502TIP3    H179921   0.741   3.315   3.428 -2.8325  1.1604 -0.4602
19502TIP3    H279922   0.624   3.236   3.373 -1.3801 -1.7556  0.4893
19503TIP3   OH279923   1.829   2.638   0.419 -0.1303  0.1400  0.3655
19503TIP3    H179924   1.758   2.671   0.474  0.3906  1.4113  0.3096
19503TIP3    H279925   1.908   2.653   0.470  0.1232 -1.2299  0.4117
19504TIP3   OH279926   4.376   2.240   3.552 -0.6113 -0.4891 -0.2862
19504TIP3    H179927   4.468   2.241   3.527 -0.5224  1.7109 -0.0214
19504TIP3    H279928   4.348   2.149   3.537  1.9560 -1.5958  1.0311
19505TIP3   OH279929   4.054   3.421   3.571  0.2126  0.7979 -0.4214
19505TIP3    H179930   4.054   3.516   3.587  0.0942  0.6461  0.5479
19505TIP3    H279931   3.961   3.398   3.567  0.2393  0.6527 -0.2007
19506TIP3   OH279932   0.726   6.582   0.110  0.2971 -0.2186 -0.1694
19506TIP3    H179933   0.694   6.597   0.021 -0.6799 -0.8718  0.0590
19506TIP3    H279934   0.665   6.518   0.147  0.2362  0.6012  1.2294
19507TIP3   OH279935   3.445   3.085   2.078  0.3992  0.0692 -0.1945
19507TIP3    H179936   3.501   3.036   2.018 -2.5320 -2.1735 -1.3790
19507TIP3    H279937   3.477   3.062   2.165  1.8225 -0.4273 -0.8210
19508TIP3   OH279938   6.679   4.590  14.134 -0.3446  0.0027  0.0262
19508TIP3    H179939   6.631   4.620  14.057  1.0211 -2.9802 -2.1801
19508TIP3    H279940   6.611   4.575  14.200 -1.9827 -0.5053 -1.7036
19509TIP3   OH279941   5.711   2.861   5.369 -0.1559  0.1706 -0.0129
19509TIP3    H179942   5.729   2.948   5.334  1.5542 -0.2771 -0.3100
19509TIP3    H279943   5.784   2.843   5.428  0.0216 -1.4379 -0.6758
19510TIP3   OH279944   5.162   3.331   1.499 -0.4848 -0.2872 -0.5808
19510TIP3    H179945   5.108   3.360   1.426 -0.2239  1.5030 -0.1079
19510TIP3    H279946   5.215   3.260   1.464 -1.2770 -0.3164 -1.7592
19511TIP3   OH279947   5.662   1.022   2.882  0.2979 -0.6670  0.3995
19511TIP3    H179948   5.737   0.970   2.853 -0.0183 -1.3513  0.7966
19511TIP3    H279949   5.700   1.088   2.940  0.9780  0.8876 -1.6984
19512TIP3   OH279950   4.560   6.024   4.948  0.6805  0.0409  0.1905
19512TIP3    H179951   4.587   6.102   4.998 -0.1761  1.3529 -1.2941
19512TIP3    H279952   4.493   6.057   4.888  1.5522 -1.4811 -1.7037
19513TIP3   OH279953   3.864   2.386  13.858 -0.4815  0.1953  0.1638
19513TIP3    H179954   3.900   2.438  13.787 -0.1169  0.3264  0.4423
19513TIP3    H279955   3.772   2.373  13.834 -0.8651  1.8879  0.6224
19514TIP3   OH279956   5.178   0.239   3.920  0.0642  0.8178 -0.2345
19514TIP3    H179957   5.135   0.202   3.998 -0.5768 -0.9459 -1.3584
19514TIP3    H279958   5.169   0.334   3.930  1.6498  0.7592  2.7335
19515TIP3   OH279959   5.089   0.251  13.163  0.1877  0.0802  0.4532
19515TIP3    H179960   5.067   0.213  13.249 -0.8431 -0.6275 -0.0933
19515TIP3    H279961   5.078   0.178  13.102  2.3705  0.1793 -0.1297
19516TIP3   OH279962   2.728   0.668   2.769 -0.0309  0.5798  0.5403
19516TIP3    H179963   2.804   0.627   2.729 -0.9527 -1.8028  1.0872
19516TIP3    H279964   2.667   0.681   2.696 -0.3564 -0.5586  0.5925
19517TIP3   OH279965   1.304   6.544   3.486  0.1423 -0.2687  0.7761
19517TIP3    H179966   1.381   6.593   3.513 -1.1435  1.7107  1.0148
19517TIP3    H279967   1.233   6.576   3.541 -1.2006 -0.8737 -0.5048
19518TIP3   OH279968   0.412   5.914  13.743  0.4335  0.0567  0.0881
19518TIP3    H179969   0.355   5.881  13.813  1.3856 -0.1955  0.7780
19518TIP3    H279970   0.370   5.995  13.714  1.5720  1.9543  3.1670
19519TIP3   OH279971   5.840   4.592   0.126 -0.0496  0.9357  0.2506
19519TIP3    H179972   5.883   4.677   0.132 -2.6960  2.3269  0.9870
19519TIP3    H279973   5.833   4.575   0.032  0.9438  1.2502  0.1061
19520TIP3   OH279974   1.073   3.965   0.841  0.6165 -0.0238 -0.4095
19520TIP3    H179975   1.133   3.934   0.909  1.4460  1.5732 -0.3659
19520TIP3    H279976   1.102   4.054   0.823 -0.8433  0.2653 -1.4571
19521TIP3   OH279977   1.094   1.465   0.108  0.4538 -0.9640 -0.3440
19521TIP3    H179978   1.059   1.395   0.052  1.1218 -0.4259 -1.4688
19521TIP3    H279979   1.018   1.518   0.130  0.1707 -1.2118 -0.7041
19522TIP3   OH279980   4.749   2.461   0.603 -0.2617 -0.0718  0.2448
19522TIP3    H179981   4.804   2.383   0.599  0.8042  0.4305  2.7386
19522TIP3    H279982   4.735   2.475   0.697  0.9762  3.6231  0.0511
19523TIP3   OH279983   4.666   2.728   2.650  0.0838  0.1172  0.0480
19523TIP3    H179984   4.668   2.652   2.708 -0.2664 -1.1264 -1.4840
19523TIP3    H279985   4.593   2.781   2.682 -1.1800 -1.3807 -0.2231
19524TIP3   OH279986   4.369   0.518   1.003 -0.4205  0.9390 -0.4477
19524TIP3    H179987   4.292   0.476   1.041 -0.5562  2.3863  0.9911
19524TIP3    H279988   4.368   0.606   1.040  2.0691  0.9208 -0.2021
19525TIP3   OH279989   6.114   1.612   2.566  0.3444 -0.0011 -0.6587
19525TIP3    H179990   6.104   1.528   2.608  0.5934 -0.4176 -1.4052
19525TIP3    H279991   6.209   1.621   2.552  0.2476  0.0080 -1.3480
19526TIP3   OH279992   4.830   6.296   4.896  0.1836  0.5649 -0.2777
19526TIP3    H179993   4.747   6.295   4.944 -0.2544  0.1943 -1.0286
19526TIP3    H279994   4.883   6.363   4.941 -0.1026  0.0391  0.8906
19527TIP3   OH279995   5.892   1.665   3.601  0.4766  0.2455 -0.1470
19527TIP3    H179996   5.837   1.587   3.610  0.4127  0.0287 -2.0366
19527TIP3    H279997   5.974   1.642   3.646 -0.3115 -0.0629  1.2002
19528TIP3   OH279998   0.579   4.311   2.831 -0.3440  0.0381  0.2638
19528TIP3    H179999   0.621   4.307   2.745 -0.7404 -0.8327  0.0993
19528TIP3    H280000   0.487   4.329   2.812 -0.1436  1.4721  0.6002
19529TIP3   OH280001   0.087   6.825   2.813  0.0280 -0.1110 -0.2303
19529TIP3    H180002   0.042   6.740   2.818 -1.7319  0.8411  1.7975
19529TIP3    H280003   0.080   6.860   2.901  0.2560  2.3734 -1.1396
19530TIP3   OH280004   3.090   1.484   3.109 -0.3646  0.7929  0.5595
19530TIP3    H180005   3.042   1.452   3.032 -2.2363  0.4372  1.7890
19530TIP3    H280006   3.088   1.411   3.171  0.0172  1.4733  1.4038
19531TIP3   OH280007   4.022   0.780   2.827 -0.4028  0.1689  0.0830
19531TIP3    H180008   4.090   0.799   2.892 -1.1215  1.4336  0.4997
19531TIP3    H280009   4.043   0.837   2.752 -0.5199 -0.0535 -0.1205
19532TIP3   OH280010   7.055   2.751   3.798 -0.4084 -0.5620  0.1354
19532TIP3    H180011   7.034   2.661   3.776 -1.0536 -0.1162 -1.2171
19532TIP3    H280012   7.059   2.753   3.893  1.0803 -2.3227  0.1637
19533TIP3   OH280013   4.199   6.050   2.894  0.1787 -0.6285  0.3268
19533TIP3    H180014   4.228   6.022   2.981  0.4929 -0.6731  0.2078
19533TIP3    H280015   4.128   5.990   2.872  0.4273 -0.9313  0.3450
19534TIP3   OH280016   1.517   2.417   2.436 -0.0588  0.4994 -0.6929
19534TIP3    H180017   1.611   2.433   2.423 -0.2124  1.1621 -1.0146
19534TIP3    H280018   1.475   2.457   2.360 -0.6111  0.2880 -0.5009
19535TIP3   OH280019   3.665   2.802   4.389  0.7153 -0.0194  0.3708
19535TIP3    H180020   3.637   2.862   4.459 -0.1715 -0.9544  0.8471
19535TIP3    H280021   3.626   2.718   4.413  1.1878 -0.5794 -0.7620
19536TIP3   OH280022   5.738   3.897   3.236 -0.2896 -0.2921  0.8408
19536TIP3    H180023   5.708   3.872   3.148  1.3722  0.1480  0.1088
19536TIP3    H280024   5.715   3.823   3.291  1.3681 -1.9591 -0.5805
19537TIP3   OH280025   2.086   2.726   4.476 -0.3925 -0.5586  0.0773
19537TIP3    H180026   2.036   2.732   4.557  0.4505  1.1415  0.5353
19537TIP3    H280027   2.163   2.674   4.500  0.4295  0.8865  0.7423
19538TIP3   OH280028   0.548   1.939   1.826  0.0001  0.0669  0.5478
19538TIP3    H180029   0.533   1.857   1.779 -0.2676 -0.2256  1.1354
19538TIP3    H280030   0.599   1.992   1.765  0.4074 -0.6340  0.2591
19539TIP3   OH280031   0.654   2.789  15.291  0.1775 -0.9006 -0.5548
19539TIP3    H180032   0.565   2.789  15.254  0.2782 -0.7215 -0.7959
19539TIP3    H280033   0.660   2.706  15.337 -0.6475 -0.2803  0.7362
19540TIP3   OH280034   3.957   0.600   3.937 -0.0557 -0.2271  0.0346
19540TIP3    H180035   4.026   0.666   3.944 -0.5755  0.9085 -3.5036
19540TIP3    H280036   3.999   0.526   3.894 -0.9049  0.3497 -1.8518
19541TIP3   OH280037   3.298   3.246  14.897  0.3062 -0.1167  0.1105
19541TIP3    H180038   3.210   3.281  14.885  0.3437 -0.1947 -0.4173
19541TIP3    H280039   3.296   3.204  14.983 -0.4046 -0.8139 -0.2362
19542TIP3   OH280040   6.312   4.361   0.630  0.0169 -0.7058 -0.4050
19542TIP3    H180041   6.394   4.335   0.671  0.4788  1.7461  0.3865
19542TIP3    H280042   6.324   4.341   0.537  1.0887 -1.3300 -0.1504
19543TIP3   OH280043   3.581   1.210   0.948 -0.1017 -0.2056  0.0636
19543TIP3    H180044   3.643   1.232   0.878 -0.3936 -0.8171 -0.3945
19543TIP3    H280045   3.627   1.232   1.029  1.1996 -1.7964 -0.2029
19544TIP3   OH280046   2.383   5.493   2.594  0.2877  0.0357  0.1107
19544TIP3    H180047   2.434   5.529   2.667 -0.2296  0.2370  0.3763
19544TIP3    H280048   2.362   5.569   2.540 -0.5415  0.0915  0.5076
19545TIP3   OH280049   6.589   1.027   3.807 -0.1958  0.6290  0.3247
19545TIP3    H180050   6.509   1.054   3.853  0.9771  0.7993  2.3611
19545TIP3    H280051   6.660   1.067   3.856  1.1796  0.8196 -1.6806
19546TIP3   OH280052   4.348   6.108   0.273  0.2121 -0.2024  0.2651
19546TIP3    H180053   4.404   6.181   0.298 -0.8373  0.2455  1.4457
19546TIP3    H280054   4.305   6.082   0.355 -3.0777  1.0076 -0.8873
19547TIP3   OH280055   3.919   1.549   4.416 -0.7095  0.0229 -0.2912
19547TIP3    H180056   3.994   1.553   4.476 -1.7331 -1.3106  1.1420
19547TIP3    H280057   3.950   1.592   4.336  1.1179  0.7322  0.7441
19548TIP3   OH280058   1.678   3.838   1.413 -0.0277  0.0831  0.3614
19548TIP3    H180059   1.751   3.850   1.351 -0.4034  0.6759  0.0340
19548TIP3    H280060   1.614   3.905   1.389 -0.9458 -0.7984  0.2756
19549TIP3   OH280061   3.707   7.020   4.530 -0.1007  0.0007 -0.1199
19549TIP3    H180062   3.702   6.979   4.617 -0.9854 -0.1572 -0.2339
19549TIP3    H280063   3.630   7.077   4.526  1.3130  2.0257  0.1799
19550TIP3   OH280064   2.864   1.860   2.331 -0.4825  0.1892 -0.3671
19550TIP3    H180065   2.875   1.888   2.422 -1.9578  1.0765 -0.4207
19550TIP3    H280066   2.800   1.788   2.336  2.0098 -2.1776 -0.4033
19551TIP3   OH280067   1.069   1.068   4.444 -0.3020 -0.4972 -0.2503
19551TIP3    H180068   1.009   1.129   4.488 -0.2255 -0.0810 -0.7129
19551TIP3    H280069   1.013   0.996   4.417 -0.0750 -1.5866  1.9937
19552TIP3   OH280070   4.307   4.841   4.390  0.0594  0.3814 -0.0367
19552TIP3    H180071   4.270   4.867   4.474 -0.9584 -1.1282  0.0241
19552TIP3    H280072   4.300   4.919   4.335 -0.6311  0.9492  0.8415
19553TIP3   OH280073   3.084   2.306  10.008 -0.0717 -0.6630  0.3132
19553TIP3    H180074   3.140   2.383   9.998  0.6538 -1.2212 -0.0115
19553TIP3    H280075   3.009   2.337  10.059 -0.0214  0.3665 -0.2150
19554TIP3   OH280076   3.792   0.244   4.532  0.3631  0.1271  0.0075
19554TIP3    H180077   3.700   0.268   4.543  0.2130 -0.5066  0.1465
19554TIP3    H280078   3.834   0.326   4.505 -0.3380  0.2989 -0.6291
19555TIP3   OH280079   7.143   3.115   3.850 -0.5370 -0.7729 -0.0438
19555TIP3    H180080   7.049   3.100   3.863 -1.3793  3.6008  0.4948
19555TIP3    H280081   7.158   3.203   3.885  3.6872 -1.0011 -0.7511
19556TIP3   OH280082   2.000   1.465   1.918  0.8587  0.5981  0.3933
19556TIP3    H180083   2.089   1.432   1.903  1.5694  3.0302 -1.3423
19556TIP3    H280084   1.956   1.455   1.834  0.3321  1.7041  0.5161
19557TIP3   OH280085   1.653   2.138   2.292 -0.1262 -0.0356  0.0869
19557TIP3    H180086   1.634   2.216   2.239  0.5558  1.0689  1.4083
19557TIP3    H280087   1.575   2.126   2.346 -0.1818 -0.1913 -0.0284
19558TIP3   OH280088   0.110   2.131   3.458  0.8019  0.3151 -0.3746
19558TIP3    H180089   0.104   2.180   3.540  0.2061  1.7037 -1.2012
19558TIP3    H280090   0.118   2.040   3.485 -1.7295  0.4734  1.2255
19559TIP3   OH280091   1.772   3.450   4.977  0.3803  0.5424  0.3694
19559TIP3    H180092   1.780   3.388   5.049 -1.4836 -0.9280 -0.6079
19559TIP3    H280093   1.724   3.524   5.013 -0.6277 -0.2264  0.6330
19560TIP3   OH280094   0.125   7.040  15.137  0.6143  0.0404 -0.4474
19560TIP3    H180095   0.207   7.030  15.089  1.0457 -0.6790  0.4238
19560TIP3    H280096   0.077   7.107  15.088  0.9473 -0.8158 -2.0157
19561TIP3   OH280097   3.071   5.660   3.803  0.5633  0.4599 -0.0581
19561TIP3    H180098   2.985   5.682   3.767  0.9179 -0.0840 -1.2831
19561TIP3    H280099   3.124   5.739   3.792  1.0605 -0.0866 -2.0262
19562TIP3   OH280100   5.566   2.279  13.552  0.4274 -0.4908 -0.3433
19562TIP3    H180101   5.505   2.344  13.517  0.3239  0.0185  0.7558
19562TIP3    H280102   5.558   2.205  13.492 -3.1234 -1.4520  0.9974
19563TIP3   OH280103   4.113   4.880   5.052  0.3110  0.4757  0.1959
19563TIP3    H180104   4.182   4.862   5.115 -0.5615  1.4173  1.4644
19563TIP3    H280105   4.159   4.918   4.977  1.4602 -1.4739 -0.1485
19564TIP3   OH280106   1.729   2.038   2.978 -0.0310  0.0409 -0.4117
19564TIP3    H180107   1.785   2.115   2.983 -0.5353  0.3512  1.2892
19564TIP3    H280108   1.723   2.007   3.069 -0.1829 -1.7537 -0.9941
19565TIP3   OH280109   0.479   5.176   5.519  0.1736 -0.2120  0.0868
19565TIP3    H180110   0.456   5.266   5.542 -1.8650 -0.5020 -0.5884
19565TIP3    H280111   0.396   5.129   5.523  0.8370 -1.6138 -1.5772
19566TIP3   OH280112   5.101   5.006   5.995  0.2205 -0.4158  0.1923
19566TIP3    H180113   5.086   5.037   5.906 -0.7541  0.3862  0.6186
19566TIP3    H280114   5.018   5.021   6.040  1.0196  0.1796  1.5219
19567TIP3   OH280115   6.666   5.700   4.530 -0.2816  0.2255  0.3054
19567TIP3    H180116   6.613   5.717   4.452 -0.9793 -2.2938  0.1201
19567TIP3    H280117   6.605   5.710   4.603  0.1898  1.8508  0.5124
19568TIP3   OH280118   7.054   3.412  13.948 -0.1072  0.0842  0.2471
19568TIP3    H180119   7.082   3.350  13.881  1.3051  0.6602  0.2770
19568TIP3    H280120   7.089   3.496  13.920  1.2455  0.2081  2.1012
19569TIP3   OH280121   0.599   6.348  15.432  0.3805 -0.1916 -1.0663
19569TIP3    H180122   0.654   6.301  15.494  0.1384  0.8031 -0.0850
19569TIP3    H280123   0.526   6.288  15.415 -0.2319  0.0293  0.6288
19570TIP3   OH280124   0.407   5.940   3.142 -0.6246 -0.2550  0.1475
19570TIP3    H180125   0.358   6.022   3.142 -0.4794 -0.1677 -0.1143
19570TIP3    H280126   0.471   5.950   3.071  0.1127 -0.1638  0.8125
19571TIP3   OH280127   6.102   1.427   1.868  0.0920 -0.2029  0.7994
19571TIP3    H180128   6.068   1.447   1.955  0.6803  0.3141  0.9188
19571TIP3    H280129   6.148   1.344   1.880  0.0788 -0.1886  0.9625
19572TIP3   OH280130   4.129   1.493   5.937  0.1907 -0.3531  0.3275
19572TIP3    H180131   4.057   1.450   5.983  0.3739 -1.8988 -0.7382
19572TIP3    H280132   4.208   1.463   5.981  0.4260 -2.5477 -1.4020
19573TIP3   OH280133   0.441   0.955   5.354 -0.0868  0.3127 -0.5269
19573TIP3    H180134   0.535   0.970   5.342  0.1212 -0.3922  0.1432
19573TIP3    H280135   0.414   0.913   5.272  0.3591 -0.2297 -0.4059
19574TIP3   OH280136   5.534   6.688  14.328  0.0208 -0.2122  0.4580
19574TIP3    H180137   5.615   6.738  14.330  0.7619 -1.3963  0.7164
19574TIP3    H280138   5.469   6.747  14.367  1.2100 -0.0576  2.3112
19575TIP3   OH280139   5.074   5.214   4.265  0.4187 -0.5629  0.0547
19575TIP3    H180140   5.006   5.166   4.313  0.6518 -0.8377  0.1114
19575TIP3    H280141   5.130   5.251   4.333 -1.0110  1.6810  0.0996
19576TIP3   OH280142   3.878   2.261  14.490 -0.0692 -0.0083 -0.4005
19576TIP3    H180143   3.939   2.232  14.422 -1.8197 -0.8857 -1.6800
19576TIP3    H280144   3.893   2.355  14.498  0.0731  0.1427 -2.1227
19577TIP3   OH280145   5.351   7.074   3.079  0.1286  0.5232 -1.1002
19577TIP3    H180146   5.307   7.155   3.055  1.0563  1.1842 -0.6327
19577TIP3    H280147   5.349   7.073   3.175  0.4091  0.1734 -1.0944
19578TIP3   OH280148   6.465   7.019   1.811  0.0115 -0.6399 -0.2665
19578TIP3    H180149   6.494   6.976   1.892 -0.4279 -0.2898  0.0843
19578TIP3    H280150   6.402   6.958   1.772 -0.2237 -0.5491 -0.0342
19579TIP3   OH280151   1.947   5.047  15.227  0.0068  0.1900 -0.3715
19579TIP3    H180152   2.035   5.085  15.228 -0.4391  1.2744  1.2392
19579TIP3    H280153   1.958   4.957  15.257  0.6715 -0.0157 -1.1862
19580TIP3   OH280154   7.078   3.532   5.361  0.0772 -0.3575  0.2701
19580TIP3    H180155   7.030   3.587   5.299 -1.6136 -3.4832 -1.4534
19580TIP3    H280156   7.054   3.565   5.447 -2.4419  0.3590 -0.6404
19581TIP3   OH280157   3.500   6.544   2.125  0.4150 -0.8589  0.2760
19581TIP3    H180158   3.453   6.556   2.042  0.9181  0.7242  0.1711
19581TIP3    H280159   3.497   6.450   2.141 -0.9172 -1.0416 -0.8121
19582TIP3   OH280160   4.774   0.170   4.957 -0.3290 -0.2892  0.2495
19582TIP3    H180161   4.826   0.225   4.899  1.9434 -1.5259  0.9980
19582TIP3    H280162   4.716   0.231   5.003  1.9578  1.5304  0.9415
19583TIP3   OH280163   7.005   6.882   3.979  0.1009 -0.0876 -0.2226
19583TIP3    H180164   6.949   6.808   3.958 -0.3380  0.1346  0.1464
19583TIP3    H280165   7.073   6.846   4.035  0.9909 -0.5839 -1.5701
19584TIP3   OH280166   5.623   0.896  14.971  0.3859 -0.3195  0.3416
19584TIP3    H180167   5.708   0.874  14.932 -0.4307 -0.3790 -1.5304
19584TIP3    H280168   5.563   0.901  14.896 -0.9911  1.0464  1.4697
19585TIP3   OH280169   0.191   2.247   2.676 -0.4859 -0.2736 -0.6707
19585TIP3    H180170   0.200   2.331   2.720  1.2096  1.0081 -3.2168
19585TIP3    H280171   0.097   2.227   2.681 -0.6890  0.8914  1.4072
19586TIP3   OH280172   4.066   0.145   3.507  0.0986  0.1676  0.2142
19586TIP3    H180173   3.998   0.132   3.573  0.3424  0.9513  0.6225
19586TIP3    H280174   4.050   0.075   3.443 -2.2928  1.4531 -0.7215
19587TIP3   OH280175   6.065   4.538   5.029  0.6288 -0.4328  0.1597
19587TIP3    H180176   6.074   4.454   5.073  1.4440 -0.5621 -0.2414
19587TIP3    H280177   5.971   4.547   5.013  0.7038 -2.2218 -1.6412
19588TIP3   OH280178   1.307   6.289   4.718  0.9033 -0.4374 -0.0382
19588TIP3    H180179   1.339   6.233   4.648 -0.6583 -0.4905 -0.7619
19588TIP3    H280180   1.354   6.261   4.796  1.5919 -1.3851 -0.7803
19589TIP3   OH280181   4.524   5.804   1.464 -0.0520 -0.1560 -0.9205
19589TIP3    H180182   4.584   5.766   1.528 -0.9565 -0.5829 -0.3155
19589TIP3    H280183   4.531   5.746   1.388  1.7901  0.9149 -1.6502
19590TIP3   OH280184   3.705   6.161   1.950  0.0614 -0.0258 -0.9323
19590TIP3    H180185   3.782   6.170   2.007 -0.7937 -0.1092  0.2904
19590TIP3    H280186   3.733   6.197   1.866  0.9912  1.2870 -0.1001
19591TIP3   OH280187   6.968   4.297   2.738  0.3305  0.2158 -0.2875
19591TIP3    H180188   6.907   4.352   2.788 -0.8359 -0.5782 -0.8027
19591TIP3    H280189   6.984   4.222   2.795 -0.4109 -0.3268 -0.7807
19592TIP3   OH280190   1.313   1.939   2.214 -0.3017  0.6010 -0.0299
19592TIP3    H180191   1.276   1.961   2.129  0.0539  0.1582 -0.2995
19592TIP3    H280192   1.364   2.016   2.239  2.0085 -0.3618 -1.5529
19593TIP3   OH280193   2.585   4.521   1.297  0.0334  0.0597 -0.4193
19593TIP3    H180194   2.592   4.615   1.281 -0.5967 -0.1650 -2.1447
19593TIP3    H280195   2.569   4.483   1.211 -0.8434 -1.5241  0.4119
19594TIP3   OH280196   0.104   6.139   0.539  0.0309  0.0453 -0.1105
19594TIP3    H180197   0.122   6.216   0.484  1.3042 -0.2420 -0.1126
19594TIP3    H280198   0.054   6.081   0.482 -0.6795  0.7332 -0.2085
19595TIP3   OH280199   2.974   2.549   2.037 -0.7158 -0.9906  0.3327
19595TIP3    H180200   3.028   2.527   1.962 -1.1483 -1.2411  0.0911
19595TIP3    H280201   3.030   2.603   2.093 -1.2146  1.4296 -1.3839
19596TIP3   OH280202   2.334   4.947   5.600 -0.3397  0.5234 -0.3283
19596TIP3    H180203   2.419   4.987   5.579  0.2549 -1.4341 -2.0773
19596TIP3    H280204   2.353   4.885   5.670 -0.8519  1.8212  0.9859
19597TIP3   OH280205   6.486   2.343   5.831 -0.0335 -0.3662  0.0113
19597TIP3    H180206   6.415   2.293   5.871 -0.7241  0.1385 -0.5673
19597TIP3    H280207   6.553   2.277   5.812 -0.9236 -1.0844 -0.7289
19598TIP3   OH280208   3.358   4.753   5.692  0.5378  0.0442  0.1321
19598TIP3    H180209   3.407   4.702   5.627 -1.7704 -2.8580  0.4498
19598TIP3    H280210   3.347   4.693   5.766 -0.2929  1.8795  1.5758
19599TIP3   OH280211   7.077   2.612   1.435  0.2298 -0.0219  0.7193
19599TIP3    H180212   7.023   2.566   1.371  0.5360  0.7706 -0.1374
19599TIP3    H280213   7.035   2.698   1.445  0.4484  0.0282  1.2287
19600TIP3   OH280214   4.053   6.179   1.085 -0.2843  0.1680 -0.3857
19600TIP3    H180215   4.053   6.273   1.098 -1.2195 -0.0004  1.0027
19600TIP3    H280216   4.065   6.142   1.172  0.8123 -1.0142 -0.9881
19601TIP3   OH280217   4.684   5.374   2.387  0.3028 -0.3525  0.3598
19601TIP3    H180218   4.738   5.335   2.456  0.3259  1.7034  1.5923
19601TIP3    H280219   4.626   5.435   2.434  0.5373  1.3417 -1.4359
19602TIP3   OH280220   3.858   1.083   5.074  0.2106  0.0172  0.3845
19602TIP3    H180221   3.900   1.004   5.107 -1.8595 -2.3583 -2.2748
19602TIP3    H280222   3.764   1.069   5.088 -0.5296  0.2741 -3.2940
19603TIP3   OH280223   6.315   0.185   2.261  0.6114  0.5268 -0.0673
19603TIP3    H180224   6.376   0.248   2.222  0.4680 -0.1879 -1.5458
19603TIP3    H280225   6.277   0.140   2.185 -3.1903  2.1968  0.6527
19604TIP3   OH280226   5.190   0.555  14.247 -0.3831  1.0964 -0.4813
19604TIP3    H180227   5.130   0.533  14.319  2.6357 -1.4243  1.5370
19604TIP3    H280228   5.202   0.473  14.200  1.9000  1.3195 -0.4044
19605TIP3   OH280229   5.168   5.507   3.497 -0.0880  0.4742 -0.6229
19605TIP3    H180230   5.098   5.510   3.561 -0.3115 -0.9328 -0.7673
19605TIP3    H280231   5.134   5.454   3.426  1.3295 -0.7912 -0.4138
19606TIP3   OH280232   2.520   5.747   0.873  0.3530  0.0808 -0.4945
19606TIP3    H180233   2.579   5.805   0.922 -0.5188 -0.1446  0.8753
19606TIP3    H280234   2.525   5.663   0.918 -0.9806  0.0476 -0.3555
19607TIP3   OH280235   6.655   7.082   0.739 -0.0104  0.1373  0.6123
19607TIP3    H180236   6.633   7.104   0.649  1.7407 -1.7314 -0.3723
19607TIP3    H280237   6.717   7.151   0.766  2.4981 -1.2893 -1.0818
19608TIP3   OH280238   5.442   1.497   5.673 -0.8127 -0.1155 -0.0142
19608TIP3    H180239   5.466   1.585   5.645 -0.8891 -0.1544 -0.2028
19608TIP3    H280240   5.513   1.441   5.641 -0.3396 -0.0172  0.8154
19609TIP3   OH280241   0.139   0.222   3.580 -0.3290  0.0961  0.3948
19609TIP3    H180242   0.162   0.293   3.640 -1.9107  0.8595  0.1463
19609TIP3    H280243   0.043   0.223   3.577 -0.3241 -0.7531 -1.1760
19610TIP3   OH280244   1.695   1.784  15.169 -0.2511 -0.2668  0.3298
19610TIP3    H180245   1.715   1.720  15.101 -1.3344 -0.5669  0.2784
19610TIP3    H280246   1.647   1.734  15.235 -1.5746  0.5932  0.0454
19611TIP3   OH280247   5.891   5.843   2.025  0.1620 -0.3644  0.0120
19611TIP3    H180248   5.808   5.865   1.982 -0.6406 -1.2459  1.0583
19611TIP3    H280249   5.901   5.910   2.093 -0.0308 -0.6349  0.3098
19612TIP3   OH280250   4.569   1.156   4.451 -0.2238  0.2270 -0.7015
19612TIP3    H180251   4.661   1.177   4.471 -0.8013  0.8292  1.6086
19612TIP3    H280252   4.569   1.061   4.438  0.6946  0.1899 -0.5373
19613TIP3   OH280253   4.072   3.028   0.771 -0.6042  1.1885 -0.1983
19613TIP3    H180254   3.988   3.006   0.731  0.5361  1.0652 -2.6900
19613TIP3    H280255   4.136   3.016   0.701  1.1732  4.0246  0.7650
19614TIP3   OH280256   5.660   0.422   0.571  0.2213 -0.2095 -0.6552
19614TIP3    H180257   5.573   0.462   0.566  1.8195  3.9903  0.7929
19614TIP3    H280258   5.702   0.447   0.489  1.2102  1.0791  0.2130
19615TIP3   OH280259   6.646   7.032   2.018 -0.4086 -0.1909 -0.1253
19615TIP3    H180260   6.648   7.067   2.107 -0.1843  1.1251 -0.6154
19615TIP3    H280261   6.712   6.964   2.017 -0.3420 -0.1492  0.6913
19616TIP3   OH280262   2.208   0.623   4.047  0.3303 -0.8818 -0.0520
19616TIP3    H180263   2.169   0.556   4.105  1.7398  0.1397  2.2102
19616TIP3    H280264   2.268   0.574   3.991 -0.3630 -1.7811 -0.0458
19617TIP3   OH280265   1.976   3.273   4.464  0.4270  0.5933 -0.0973
19617TIP3    H180266   1.964   3.367   4.478  0.6622  0.7107 -0.6796
19617TIP3    H280267   1.997   3.265   4.371  0.8388  0.0050  0.0451
19618TIP3   OH280268   3.447   5.411  11.161  0.6246 -0.4243  0.5766
19618TIP3    H180269   3.387   5.337  11.173 -0.4228  0.0904 -1.0580
19618TIP3    H280270   3.396   5.474  11.109  2.8185 -0.2875 -1.6154
19619TIP3   OH280271   1.817   6.326   4.342 -0.0493 -0.1358 -0.1623
19619TIP3    H180272   1.813   6.339   4.437  1.7573 -0.1426 -0.0584
19619TIP3    H280273   1.874   6.250   4.330 -0.2041 -0.0976 -1.2548
19620TIP3   OH280274   1.629   1.366   1.583 -0.7366 -0.9704 -0.5091
19620TIP3    H180275   1.577   1.359   1.663 -1.1606  0.3046 -0.6335
19620TIP3    H280276   1.613   1.284   1.536 -1.7203 -1.0920  0.0078
19621TIP3   OH280277   2.667   6.061   4.456 -0.0383  0.3335 -0.3244
19621TIP3    H180278   2.602   6.104   4.512 -0.1171 -0.5056  0.2384
19621TIP3    H280279   2.736   6.033   4.516  1.1662  1.7648 -0.9987
19622TIP3   OH280280   3.924   7.026   0.746  0.1421  0.2908  0.9230
19622TIP3    H180281   4.002   7.036   0.692 -0.8956 -0.0993 -0.7160
19622TIP3    H280282   3.930   6.937   0.781 -0.4520 -0.4357 -0.7262
19623TIP3   OH280283   4.883   3.598   5.512  0.0358 -0.5695 -0.3300
19623TIP3    H180284   4.812   3.534   5.500 -0.4830  0.2358 -1.8747
19623TIP3    H280285   4.925   3.603   5.426  0.5162  0.6290 -0.0442
19624TIP3   OH280286   3.910   1.542  10.800 -0.0630 -0.2271 -0.4983
19624TIP3    H180287   3.844   1.612  10.792  0.0515  0.0797  1.0553
19624TIP3    H280288   3.860   1.463  10.815 -0.1408 -0.3239 -1.2051
19625TIP3   OH280289   0.060   4.598   3.407 -0.4272 -0.2680  0.4534
19625TIP3    H180290   0.132   4.553   3.364  0.7369  1.2106  0.7543
19625TIP3    H280291   0.075   4.584   3.500 -0.7300 -0.2458  0.5063
19626TIP3   OH280292   2.634   4.636   3.775  0.0497  0.8559  0.5712
19626TIP3    H180293   2.563   4.571   3.784  0.5475  0.1051 -0.6397
19626TIP3    H280294   2.596   4.705   3.720  0.3030  0.3529 -0.2527
19627TIP3   OH280295   3.965   3.586   0.576  0.5092 -0.1474  0.1281
19627TIP3    H180296   3.981   3.494   0.595 -1.2902 -0.8767 -1.5552
19627TIP3    H280297   4.038   3.612   0.519 -0.6532 -1.5496 -2.1343
19628TIP3   OH280298   7.001   5.730   4.593  0.2078  0.1255 -0.3316
19628TIP3    H180299   7.017   5.637   4.576 -1.3414 -0.1731 -0.2393
19628TIP3    H280300   6.953   5.732   4.675  3.8086  1.3037  1.9491
19629TIP3   OH280301   4.599   3.376   1.904  0.2008 -0.7863 -0.1561
19629TIP3    H180302   4.601   3.448   1.841 -0.4866 -1.5358 -1.0671
19629TIP3    H280303   4.653   3.308   1.863  2.4625 -0.1378  1.5667
19630TIP3   OH280304   3.844   1.274   3.963 -0.0860  0.1245  0.5122
19630TIP3    H180305   3.898   1.295   4.039 -0.5284  1.3024  0.5290
19630TIP3    H280306   3.767   1.331   3.972 -0.8909 -0.8481  0.0001
19631TIP3   OH280307   5.486   3.804  15.030 -0.2280  0.2522 -0.0449
19631TIP3    H180308   5.496   3.715  14.995 -1.7609  0.2756 -0.6003
19631TIP3    H280309   5.570   3.822  15.073 -0.0191 -1.5978  0.3977
19632TIP3   OH280310   6.016   3.820   2.560 -0.2750  0.4656 -0.4494
19632TIP3    H180311   5.922   3.827   2.545 -0.4213 -2.0083 -1.0791
19632TIP3    H280312   6.053   3.802   2.474  0.3201 -1.9471  0.2273
19633TIP3   OH280313   6.701   6.066   2.811  0.3412 -0.3185 -0.6610
19633TIP3    H180314   6.697   6.013   2.731  0.9761 -0.2795 -0.7167
19633TIP3    H280315   6.770   6.026   2.863 -0.6805 -0.9200  0.2887
19634TIP3   OH280316   5.700   4.546   2.725 -0.0431  0.6476  0.3038
19634TIP3    H180317   5.714   4.596   2.805  2.6913  1.2459 -0.4459
19634TIP3    H280318   5.745   4.463   2.739 -1.3561 -0.1166  0.1408
19635TIP3   OH280319   1.556   1.618  15.353 -0.0562 -0.0703  0.0187
19635TIP3    H180320   1.537   1.525  15.360 -0.6370  0.0652  0.3109
19635TIP3    H280321   1.494   1.660  15.414 -0.2941  0.5593 -0.6399
19636TIP3   OH280322   2.490   4.008  10.487 -0.2726 -0.2262  0.8560
19636TIP3    H180323   2.537   3.934  10.450  2.1191  1.6316 -0.0866
19636TIP3    H280324   2.413   3.969  10.529  0.6374 -3.1472  0.0455
19637TIP3   OH280325   2.617   1.077   1.115 -0.1087 -0.5786  0.2167
19637TIP3    H180326   2.663   1.055   1.196  1.1437 -1.4303 -0.6857
19637TIP3    H280327   2.638   1.169   1.100 -0.9834 -0.1877  1.2272
19638TIP3   OH280328   2.386   6.188   3.330  0.3187  0.5149 -0.3439
19638TIP3    H180329   2.294   6.176   3.351  0.1910 -0.6456 -1.4581
19638TIP3    H280330   2.430   6.113   3.371  0.6929  0.7426 -0.3177
19639TIP3   OH280331   0.609   5.919  12.414  0.1639 -0.2347  0.2938
19639TIP3    H180332   0.527   5.930  12.462  0.7684  1.4010  1.0311
19639TIP3    H280333   0.588   5.947  12.325 -0.1027  0.0957  0.4568
19640TIP3   OH280334   6.885   1.733   6.091 -0.0390  0.4833  0.1415
19640TIP3    H180335   6.940   1.811   6.099  1.2827 -0.1095 -2.2132
19640TIP3    H280336   6.880   1.698   6.180  1.5641  1.7981  0.8086
19641TIP3   OH280337   6.063   3.709   4.227 -0.0080  0.2372  0.3707
19641TIP3    H180338   6.146   3.730   4.185  0.2196  2.2990  1.7194
19641TIP3    H280339   5.997   3.748   4.170 -0.0828 -1.0584 -0.4885
19642TIP3   OH280340   1.918   4.500   5.366 -0.1206 -0.2283  0.0312
19642TIP3    H180341   1.890   4.590   5.378 -1.2937 -0.5710 -0.0585
19642TIP3    H280342   1.987   4.505   5.300  0.8300  0.7493  1.0502
19643TIP3   OH280343   0.535   1.121   1.589 -0.2515  0.3260 -0.1678
19643TIP3    H180344   0.527   1.117   1.494 -0.8918  2.4623 -0.2452
19643TIP3    H280345   0.488   1.200   1.614  0.5421  0.2118  1.8598
19644TIP3   OH280346   1.399   6.871   4.308 -0.3647 -0.1129 -0.4710
19644TIP3    H180347   1.406   6.955   4.353 -1.8825 -1.2721  2.1837
19644TIP3    H280348   1.489   6.838   4.304 -0.0105  0.7166  0.3631
19645TIP3   OH280349   0.695   4.511  15.412 -0.4178 -0.9762  0.0601
19645TIP3    H180350   0.741   4.443  15.461 -0.6187 -0.3572  1.1341
19645TIP3    H280351   0.759   4.581  15.400 -0.7506 -0.5491  0.6639
19646TIP3   OH280352   6.907   6.822   4.356 -0.4641 -0.4184  0.2625
19646TIP3    H180353   6.898   6.915   4.378 -1.1343 -0.8346  1.8625
19646TIP3    H280354   7.001   6.812   4.336 -0.5165  0.7270 -0.7137
19647TIP3   OH280355   1.005   0.304   1.792  0.4708 -0.7291  0.0816
19647TIP3    H180356   0.931   0.333   1.846  0.0737 -1.8953  0.2035
19647TIP3    H280357   1.012   0.369   1.723 -0.0743 -0.1027  0.6037
19648TIP3   OH280358   2.235   1.290   5.925 -0.0846  0.2583  0.0232
19648TIP3    H180359   2.271   1.216   5.974 -0.8282  0.0056  0.2051
19648TIP3    H280360   2.237   1.363   5.986  0.8487  0.4513 -0.2229
19649TIP3   OH280361   5.039   6.197  15.374  0.6278 -0.5302 -0.6969
19649TIP3    H180362   5.111   6.149  15.334 -0.1435 -3.0991  0.7494
19649TIP3    H280363   4.978   6.128  15.402 -0.3990  1.2963  1.8694
19650TIP3   OH280364   0.462   2.090   1.456 -0.5171 -0.0157 -0.5537
19650TIP3    H180365   0.528   2.021   1.450  1.0040  1.5001 -2.9554
19650TIP3    H280366   0.513   2.171   1.462 -2.2253  1.0341  0.5039
19651TIP3   OH280367   0.431   1.662   2.581  0.1854 -0.8502 -0.1860
19651TIP3    H180368   0.346   1.688   2.616  0.7301 -1.1355  1.4315
19651TIP3    H280369   0.411   1.589   2.522 -0.8422  0.1681 -1.1624
19652TIP3   OH280370   5.274   6.900  12.566  0.4920  0.2218  0.1027
19652TIP3    H180371   5.215   6.975  12.570  1.0490  0.6571  0.2587
19652TIP3    H280372   5.228   6.835  12.513  0.0573  0.7227 -0.1328
19653TIP3   OH280373   4.587   1.520  14.761 -0.3320  0.3736  0.6375
19653TIP3    H180374   4.597   1.448  14.699 -0.6005 -0.9524  2.0672
19653TIP3    H280375   4.637   1.592  14.723 -0.2287 -0.4956 -0.9395
19654TIP3   OH280376   3.429   5.734   3.208 -0.3311  0.2362 -0.2060
19654TIP3    H180377   3.376   5.752   3.130 -1.2714  0.4581  0.4564
19654TIP3    H280378   3.385   5.660   3.249 -0.1434  0.4428  0.3763
19655TIP3   OH280379   2.844   1.947  14.498  0.3178  0.7403  0.2947
19655TIP3    H180380   2.855   1.860  14.461 -0.3746  0.8416 -0.1804
19655TIP3    H280381   2.921   1.960  14.554 -0.6575 -1.0845  2.2275
19656TIP3   OH280382   3.971   5.923   2.785  0.1611  0.0229 -0.3017
19656TIP3    H180383   3.941   5.832   2.780 -0.1913  0.1818 -1.4276
19656TIP3    H280384   3.897   5.970   2.823  0.4693 -0.2081  0.5962
19657TIP3   OH280385   3.583   3.438  15.295 -0.3888  0.0670  0.3482
19657TIP3    H180386   3.516   3.505  15.278 -0.6122 -0.3016 -0.2681
19657TIP3    H280387   3.571   3.374  15.225  0.3499 -0.2097  0.4616
19658TIP3   OH280388   4.296   1.843   0.481 -0.7528  0.1036 -0.3040
19658TIP3    H180389   4.221   1.897   0.456 -1.8164 -0.6767  1.0453
19658TIP3    H280390   4.270   1.754   0.459 -1.1358 -0.4362  2.0416
19659TIP3   OH280391   6.051   5.410  15.173 -0.1483 -0.2143  0.2593
19659TIP3    H180392   6.036   5.478  15.109  2.3735  1.8857  1.7106
19659TIP3    H280393   5.968   5.401  15.220 -0.5587  1.8393 -0.0215
19660TIP3   OH280394   4.784   4.870   1.228 -0.6122 -0.1986 -0.3253
19660TIP3    H180395   4.739   4.807   1.285  0.6128 -0.8381 -0.0265
19660TIP3    H280396   4.876   4.846   1.235 -0.3529  0.2621 -1.9309
19661TIP3   OH280397   1.920   2.956  10.365 -0.0931 -0.4508 -0.5137
19661TIP3    H180398   1.922   2.886  10.299 -0.5027  0.2173 -1.2572
19661TIP3    H280399   1.826   2.970  10.381 -0.1077  1.0622 -1.6431
19662TIP3   OH280400   4.081   4.768   3.312  0.2916  0.2273  0.6712
19662TIP3    H180401   4.167   4.730   3.329  1.6300  1.2335 -2.8843
19662TIP3    H280402   4.064   4.748   3.220 -3.8873 -0.8844  1.4741
19663TIP3   OH280403   6.351   5.663   5.182  0.4732 -0.0199  0.0332
19663TIP3    H180404   6.365   5.739   5.238 -0.1094  0.6627 -0.7177
19663TIP3    H280405   6.324   5.593   5.242  1.7538  0.1231  0.8310
19664TIP3   OH280406   6.427   6.425  13.183  0.4282 -0.3536 -0.5354
19664TIP3    H180407   6.392   6.418  13.272  0.9493 -2.9838 -0.4575
19664TIP3    H280408   6.522   6.421  13.195  0.4871 -1.1958 -1.2113
19665TIP3   OH280409   4.353   0.046  13.976 -0.0901  0.1177  0.0722
19665TIP3    H180410   4.257   0.038  13.977  0.0105 -1.2559  0.7993
19665TIP3    H280411   4.371   0.127  14.024 -0.8581  0.0740  0.4464
19666TIP3   OH280412   2.692   1.284   4.134 -0.2306  0.2891  0.2016
19666TIP3    H180413   2.598   1.267   4.141 -0.2905  0.7759  0.6293
19666TIP3    H280414   2.697   1.366   4.083 -0.0836  0.8260  1.0626
19667TIP3   OH280415   4.912   3.345   0.375 -0.3992  0.7959  0.2737
19667TIP3    H180416   5.002   3.378   0.373  0.1553 -0.4963  2.0138
19667TIP3    H280417   4.897   3.319   0.466 -1.5187 -1.6706 -0.5217
19668TIP3   OH280418   0.086   2.114   2.173 -0.1048  0.1252 -0.8555
19668TIP3    H180419   0.049   2.160   2.098 -1.9273 -0.7712 -0.5653
19668TIP3    H280420   0.120   2.033   2.137  0.4672  0.4036 -0.9433
19669TIP3   OH280421   3.826   2.704   2.837 -0.2484  0.1665 -0.1614
19669TIP3    H180422   3.801   2.612   2.828 -0.9955  0.3479 -0.0208
19669TIP3    H280423   3.922   2.703   2.846 -0.1977 -0.5482 -0.7243
19670TIP3   OH280424   0.011   6.888  12.901  0.1351  0.3433  0.5650
19670TIP3    H180425  -0.061   6.826  12.898 -0.6125  1.1566  1.2180
19670TIP3    H280426   0.002   6.931  12.986  1.2440  0.6333  0.5567
19671TIP3   OH280427   1.230   5.735  14.986  0.0100 -0.2783  0.4343
19671TIP3    H180428   1.220   5.768  14.897 -3.3231 -3.7076 -0.6936
19671TIP3    H280429   1.221   5.813  15.041 -1.2124  1.5443 -2.1231
19672TIP3   OH280430   1.033   5.003   1.957 -0.0915 -0.1220  0.2720
19672TIP3    H180431   0.992   4.963   1.880  0.5978  1.8302 -1.1894
19672TIP3    H280432   0.963   5.008   2.022 -1.1307 -0.3673 -0.8015
19673TIP3   OH280433   6.880   7.072   4.437 -0.4900 -0.2501  0.1300
19673TIP3    H180434   6.959   7.103   4.394 -0.2335 -0.9262  0.0904
19673TIP3    H280435   6.830   7.151   4.459 -0.2400  0.1310 -0.6752
19674TIP3   OH280436   6.246   2.262   3.625  0.2190  0.0970  0.4009
19674TIP3    H180437   6.308   2.212   3.678 -0.1277 -0.3214  0.4222
19674TIP3    H280438   6.257   2.226   3.537 -0.6332 -0.6180  0.5742
19675TIP3   OH280439   1.115   2.064   4.942 -0.4200 -0.0046  0.2204
19675TIP3    H180440   1.055   2.002   4.984 -2.9568  1.5426 -0.8975
19675TIP3    H280441   1.132   2.025   4.856  2.1482 -1.5519  1.3077
19676TIP3   OH280442   0.622   2.972   0.473  0.1837  0.4323 -0.1195
19676TIP3    H180443   0.561   2.987   0.401  0.7088 -0.5681 -0.7928
19676TIP3    H280444   0.692   3.036   0.460  1.3846 -1.1191 -1.7961
19677TIP3   OH280445   5.158   3.092  13.011 -0.0080  0.1759 -0.2937
19677TIP3    H180446   5.148   3.078  12.917  0.1904  0.5702 -0.3753
19677TIP3    H280447   5.180   3.185  13.019 -2.3443  0.7537  0.2987
19678TIP3   OH280448   4.967   5.336   1.207 -0.2199  0.5742  0.1579
19678TIP3    H180449   4.899   5.365   1.146  1.0387  2.3706 -0.4933
19678TIP3    H280450   5.047   5.375   1.173  1.7215 -3.6113 -0.6468
19679TIP3   OH280451   1.157   6.834   2.807  0.1165  0.0043 -0.2782
19679TIP3    H180452   1.206   6.760   2.771  0.6647  0.6198 -0.8472
19679TIP3    H280453   1.098   6.861   2.736  1.4669  1.4604 -0.9248
19680TIP3   OH280454   1.323   7.057  15.109  0.1109  0.0315 -0.2483
19680TIP3    H180455   1.283   6.975  15.139  2.8930 -1.5900 -0.5833
19680TIP3    H280456   1.335   7.108  15.189 -4.2390  1.5585 -0.3269
19681TIP3   OH280457   1.570   4.868   2.326 -0.0875  0.0215 -0.0389
19681TIP3    H180458   1.509   4.797   2.310  0.7453 -0.7926  0.2834
19681TIP3    H280459   1.629   4.834   2.394  0.6195  0.8313 -0.2242
19682TIP3   OH280460   6.518   0.929  14.584  0.2292 -0.3164  0.4069
19682TIP3    H180461   6.580   0.919  14.656  1.1756  1.9769 -0.0082
19682TIP3    H280462   6.484   1.018  14.594 -0.7552 -0.4882 -1.1230
19683TIP3   OH280463   3.072   3.485   2.815  0.0254 -0.1312 -0.0123
19683TIP3    H180464   3.069   3.579   2.797 -3.8010  0.5290  2.6884
19683TIP3    H280465   2.983   3.455   2.797  0.6988 -2.8910  0.8396
19684TIP3   OH280466   2.034   0.767  15.121  0.6590 -0.0015  0.4393
19684TIP3    H180467   2.110   0.773  15.179  1.6404  0.1128 -0.8079
19684TIP3    H280468   2.063   0.711  15.049 -0.9086 -1.0915  0.5979
19685TIP3   OH280469   1.374   6.872   3.252 -0.3948 -0.0695  0.7690
19685TIP3    H180470   1.301   6.817   3.225 -1.1770  0.8625  0.9009
19685TIP3    H280471   1.368   6.950   3.196 -1.0942  1.1755  2.4762
19686TIP3   OH280472   1.195   0.201   2.888  0.0976  0.0121  0.2966
19686TIP3    H180473   1.230   0.283   2.851  0.2130  0.2363  0.8936
19686TIP3    H280474   1.145   0.229   2.964 -1.4014 -0.3046 -0.5324
19687TIP3   OH280475   1.200   3.607  14.898 -0.7802  0.3211  0.2664
19687TIP3    H180476   1.111   3.624  14.866 -0.8892  1.2947  1.0430
19687TIP3    H280477   1.228   3.690  14.937  0.1564 -0.2099  0.7662
19688TIP3   OH280478   1.528   4.373   2.785  0.2774  0.8050 -0.3376
19688TIP3    H180479   1.508   4.396   2.876 -2.2108 -0.7720 -0.4124
19688TIP3    H280480   1.457   4.413   2.734  0.5295 -0.0064 -1.3515
19689TIP3   OH280481   1.069   1.721   0.404 -0.4899  0.0851  0.1320
19689TIP3    H180482   1.038   1.778   0.333  1.1907 -0.9682 -1.5285
19689TIP3    H280483   0.997   1.660   0.419 -0.2632 -0.7828 -1.9504
19690TIP3   OH280484   0.215   3.711   1.468 -0.1363 -0.8071 -0.3836
19690TIP3    H180485   0.197   3.625   1.431  0.3005 -0.4778 -1.4056
19690TIP3    H280486   0.252   3.761   1.395 -1.5110  0.6264 -0.1578
19691TIP3   OH280487   4.602   6.463   3.847  0.3146  0.3388  0.2183
19691TIP3    H180488   4.674   6.415   3.805 -0.9261 -1.7811  0.3634
19691TIP3    H280489   4.534   6.466   3.780 -0.8502 -1.0901  1.2694
19692TIP3   OH280490   4.236   0.664  14.529 -0.5021  0.6353 -0.0333
19692TIP3    H180491   4.276   0.644  14.614  0.3411  0.9309 -0.3495
19692TIP3    H280492   4.304   0.643  14.465 -1.5686 -0.8309 -0.7476
19693TIP3   OH280493   3.131   6.529   5.009 -0.2131 -0.0785 -0.2981
19693TIP3    H180494   3.131   6.491   4.921  0.5133 -0.9074  0.0393
19693TIP3    H280495   3.156   6.456   5.066  0.6293  0.7583  0.4381
19694TIP3   OH280496   4.444   5.396  12.482  0.5798  0.1548 -0.1587
19694TIP3    H180497   4.370   5.408  12.543  1.0463  0.9894  0.2649
19694TIP3    H280498   4.506   5.342  12.531  0.5290 -0.0176 -0.2818
19695TIP3   OH280499   2.205   0.820   1.647 -0.5014 -0.1635 -0.1255
19695TIP3    H180500   2.128   0.827   1.703 -0.7232  1.3068 -0.5558
19695TIP3    H280501   2.223   0.726   1.641 -2.1108 -0.5177  0.1717
19696TIP3   OH280502   4.546   4.106  14.676  1.1805 -0.3299  0.6783
19696TIP3    H180503   4.535   4.028  14.622  2.1407  0.6092 -0.9721
19696TIP3    H280504   4.615   4.083  14.739  0.2797 -1.3310  1.3369
19697TIP3   OH280505   2.706   6.721   4.124 -0.0291  0.1635 -0.5020
19697TIP3    H180506   2.749   6.807   4.114  0.4114 -0.1231 -1.1557
19697TIP3    H280507   2.614   6.738   4.104 -0.2950  0.8409  1.1706
19698TIP3   OH280508   0.097   0.076   5.725  0.4343  0.3238 -1.1393
19698TIP3    H180509   0.030   0.122   5.776  1.5529  2.5118 -1.5672
19698TIP3    H280510   0.046   0.025   5.661 -0.8747 -0.1219  0.1809
19699TIP3   OH280511   6.183   3.415   5.289  0.1669  0.1056  0.5503
19699TIP3    H180512   6.155   3.497   5.330  2.8461  0.6137  1.5673
19699TIP3    H280513   6.180   3.433   5.195  0.9455  1.5096  0.7606
19700TIP3   OH280514   5.982   1.401   1.248 -0.8890 -0.0687  0.5799
19700TIP3    H180515   5.898   1.444   1.234 -0.9704 -0.1158  0.9123
19700TIP3    H280516   5.960   1.312   1.276 -0.7223 -0.5453 -0.7022
19701TIP3   OH280517   3.624   6.885   1.314  0.8879  0.0400  0.3547
19701TIP3    H180518   3.706   6.906   1.358  0.3991  2.9994  0.0348
19701TIP3    H280519   3.638   6.909   1.222  0.2097 -1.1171 -0.0825
19702TIP3   OH280520   6.423   3.119   4.965 -0.0397  0.3024  0.0077
19702TIP3    H180521   6.355   3.163   5.017  1.3587  2.5170  0.0901
19702TIP3    H280522   6.504   3.132   5.015  0.4708 -2.5657  0.0809
19703TIP3   OH280523   2.023   6.616   4.499  0.1474 -0.0876 -0.5422
19703TIP3    H180524   1.943   6.624   4.550  0.1055 -1.2258 -0.4124
19703TIP3    H280525   2.080   6.560   4.551  0.6674 -0.0642 -1.0711
19704TIP3   OH280526   4.967   4.941   3.007 -0.0313 -0.3276  0.2499
19704TIP3    H180527   5.031   4.877   2.977 -0.7636 -1.1350  0.3699
19704TIP3    H280528   4.902   4.944   2.937  1.0384  1.8642 -0.7572
19705TIP3   OH280529   5.065   1.563  13.589  0.2410  0.2019  0.0796
19705TIP3    H180530   5.052   1.474  13.554  1.0229 -0.8436  2.2654
19705TIP3    H280531   5.136   1.553  13.652 -0.0197  2.2991  0.7669
19706TIP3   OH280532   5.629   5.798   1.273 -0.5163 -0.2486  0.1690
19706TIP3    H180533   5.538   5.802   1.303  0.0121 -0.7141  2.0036
19706TIP3    H280534   5.677   5.765   1.349  0.8921 -2.0310 -1.4100
19707TIP3   OH280535   2.110   6.847   2.835 -0.2198 -0.4050 -0.0371
19707TIP3    H180536   2.114   6.917   2.770  0.6564  0.6155  1.0687
19707TIP3    H280537   2.066   6.887   2.910  0.7243 -0.8852  0.7905
19708TIP3   OH280538   2.640   4.528   9.160 -0.5771 -0.4926 -0.1786
19708TIP3    H180539   2.571   4.529   9.094 -1.0572 -0.3135  0.3167
19708TIP3    H280540   2.690   4.449   9.141 -0.8657 -0.5788 -0.5969
19709TIP3   OH280541   3.658   1.810  15.162 -0.0766 -0.6663  0.4408
19709TIP3    H180542   3.668   1.755  15.085  1.6892 -1.3640  1.1009
19709TIP3    H280543   3.739   1.862  15.165 -0.1622 -0.5622  1.7465
19710TIP3   OH280544   4.281   3.321   5.605 -0.0594 -0.4944 -0.3653
19710TIP3    H180545   4.314   3.249   5.551  1.6455  0.3273 -0.5189
19710TIP3    H280546   4.192   3.335   5.575 -0.1727 -2.0423 -0.8371
19711TIP3   OH280547   6.813   1.510   4.676  0.4660  0.2789  0.1952
19711TIP3    H180548   6.743   1.467   4.724  2.7029 -0.2571  3.3301
19711TIP3    H280549   6.860   1.438   4.633  2.0360 -0.1538  2.4259
19712TIP3   OH280550   2.274   4.619   5.147  0.3966  0.4851 -0.1031
19712TIP3    H180551   2.198   4.647   5.097 -0.4978 -1.2032  0.2298
19712TIP3    H280552   2.241   4.550   5.205  1.7505  1.1773  1.5921
19713TIP3   OH280553   4.688   4.625  11.761  0.5301 -0.6099 -0.3535
19713TIP3    H180554   4.727   4.699  11.714  0.0811 -0.3387 -0.3071
19713TIP3    H280555   4.601   4.656  11.785  0.8953 -0.5758  1.0251
19714TIP3   OH280556   1.305   6.437  14.827  0.2797 -0.7818 -0.3747
19714TIP3    H180557   1.296   6.501  14.897  1.0649 -0.5726 -0.4564
19714TIP3    H280558   1.226   6.384  14.833  0.5378 -1.0572  0.9766
19715TIP3   OH280559   5.921   5.733   0.815  0.0892  0.2051 -0.7569
19715TIP3    H180560   5.859   5.726   0.888 -1.7014  0.6952 -2.1368
19715TIP3    H280561   5.944   5.642   0.794  2.4510  0.1101  1.7978
19716TIP3   OH280562   0.059   5.591   4.961 -0.3151 -0.4726  0.1738
19716TIP3    H180563  -0.001   5.664   4.967  0.1342 -0.1851  1.4955
19716TIP3    H280564   0.006   5.514   4.981 -0.2311 -0.2054  1.4776
19717TIP3   OH280565   3.600   2.904   2.250  0.1453 -0.3600  0.6071
19717TIP3    H180566   3.628   2.992   2.275  0.6884 -1.1240  2.9071
19717TIP3    H280567   3.519   2.890   2.299 -1.4404 -0.2088 -1.8041
19718TIP3   OH280568   4.643   3.542   5.038  0.9551 -0.2432  0.0125
19718TIP3    H180569   4.661   3.451   5.016  0.4356 -0.1522 -0.8273
19718TIP3    H280570   4.567   3.538   5.096  0.8121 -0.3261 -0.1824
19719TIP3   OH280571   2.655   1.828  14.125 -0.4719  0.5809  0.0529
19719TIP3    H180572   2.673   1.761  14.192  1.0526  0.9524  0.0384
19719TIP3    H280573   2.672   1.784  14.042 -1.6878  0.3288 -0.0783
19720TIP3   OH280574   6.268   2.515   4.872  0.2256  0.6831  0.3411
19720TIP3    H180575   6.322   2.457   4.926  0.2691  1.2198  0.8849
19720TIP3    H280576   6.191   2.463   4.851 -0.2141  0.7395  1.6741
19721TIP3   OH280577   4.736   4.964   2.887  0.6905  0.2599 -0.1305
19721TIP3    H180578   4.691   5.021   2.825  0.8666  1.1252  0.5174
19721TIP3    H280579   4.673   4.894   2.905  0.0605  0.8220 -0.1302
19722TIP3   OH280580   2.580   1.930   1.710  0.0561  0.3128 -0.0233
19722TIP3    H180581   2.489   1.962   1.705  0.3782  1.1572 -0.7755
19722TIP3    H280582   2.589   1.898   1.799 -0.9702  0.2705  0.0821
19723TIP3   OH280583   6.813   3.759  14.815  0.2373  0.2606 -0.2853
19723TIP3    H180584   6.904   3.788  14.826  0.1475  0.5215 -0.2363
19723TIP3    H280585   6.815   3.666  14.839 -0.0069  0.8774  2.4158
19724TIP3   OH280586   3.193   6.720   1.750 -0.2004  0.0800  0.5763
19724TIP3    H180587   3.284   6.740   1.773 -0.3489  0.0551  1.1984
19724TIP3    H280588   3.195   6.706   1.655  0.6396 -1.0051  0.7422
19725TIP3   OH280589   1.454   6.529   2.076  0.1274  0.1861  0.3621
19725TIP3    H180590   1.367   6.565   2.058  0.3078  1.5731  2.0684
19725TIP3    H280591   1.437   6.452   2.129 -0.0708  0.3073  0.4756
19726TIP3   OH280592   4.502   4.489   3.994 -0.1748 -0.5714 -0.1226
19726TIP3    H180593   4.496   4.464   3.902  0.0474 -0.2583 -0.2242
19726TIP3    H280594   4.541   4.576   3.993 -0.4714 -0.4298  0.2514
19727TIP3   OH280595   1.096   2.456   3.653  0.0441  0.6966  0.1095
19727TIP3    H180596   1.005   2.482   3.665 -0.3072 -0.4500  0.0178
19727TIP3    H280597   1.109   2.385   3.715  0.7371  0.5150 -0.2321
19728TIP3   OH280598   2.841   2.868   0.397  0.3189  0.0000 -0.6232
19728TIP3    H180599   2.860   2.866   0.490  0.6637  0.5899 -0.6774
19728TIP3    H280600   2.769   2.930   0.388 -0.0017 -0.3771 -0.7048
19729TIP3   OH280601   2.879   5.659   4.408 -0.1104 -0.0646 -0.2825
19729TIP3    H180602   2.974   5.651   4.408 -0.0494  0.5416 -1.2001
19729TIP3    H280603   2.857   5.685   4.498  0.5852 -0.1758 -0.0747
19730TIP3   OH280604   2.736   5.071   3.053  0.4431 -0.5066  0.1777
19730TIP3    H180605   2.676   5.034   3.117  0.3491 -0.7633 -0.0557
19730TIP3    H280606   2.822   5.038   3.079  0.5861  0.3921  0.9017
19731TIP3   OH280607   0.482   3.684   5.189  0.4345  0.5205 -0.3228
19731TIP3    H180608   0.537   3.673   5.267 -0.0622  0.4596  0.0253
19731TIP3    H280609   0.420   3.752   5.213  0.3020  0.5305 -0.6843
19732TIP3   OH280610   1.738   4.354   5.137 -0.0437  0.2481 -0.1573
19732TIP3    H180611   1.660   4.310   5.103  0.2275 -0.7114  0.4070
19732TIP3    H280612   1.765   4.300   5.211  0.8724  0.8441 -0.0401
19733TIP3   OH280613   5.358   5.320   2.900 -0.4125 -0.0216  0.1152
19733TIP3    H180614   5.270   5.318   2.862 -0.1395  0.1078 -0.5297
19733TIP3    H280615   5.399   5.238   2.873  0.1378  0.5200 -0.7426
19734TIP3   OH280616   2.977   2.474   2.379  0.2046 -0.5493 -0.5984
19734TIP3    H180617   3.056   2.458   2.327  0.3357  0.3010 -0.6617
19734TIP3    H280618   3.010   2.509   2.462 -0.0387 -1.3877 -0.1271
19735TIP3   OH280619   6.632   6.685   4.788 -0.2101  0.0877  0.0882
19735TIP3    H180620   6.683   6.711   4.710 -0.6681 -0.8854 -0.5516
19735TIP3    H280621   6.661   6.596   4.806 -1.4644 -0.3756 -0.1124
19736TIP3   OH280622   2.638   3.049   4.644  0.3896  0.0419 -0.3868
19736TIP3    H180623   2.638   3.047   4.548  0.4814 -0.9594 -0.3746
19736TIP3    H280624   2.659   3.140   4.666 -0.5539  0.5009 -1.3143
19737TIP3   OH280625   7.130   1.532   4.196 -0.1254  0.1930 -0.4393
19737TIP3    H180626   7.035   1.520   4.199 -0.3404  1.6751 -0.4649
19737TIP3    H280627   7.154   1.553   4.286  0.2432 -0.5260 -0.3630
19738TIP3   OH280628   6.941   4.090  14.498  0.3679  0.1791  0.5477
19738TIP3    H180629   6.989   4.019  14.456 -0.3347 -1.3247  2.1249
19738TIP3    H280630   6.990   4.108  14.579 -0.0928  0.6889  0.7222
19739TIP3   OH280631   2.866   1.085   4.103 -0.9090 -0.0413  0.2967
19739TIP3    H180632   2.786   1.135   4.121  0.4034  1.3352  3.0516
19739TIP3    H280633   2.927   1.149   4.066 -0.1519 -0.2935  1.0694
19740TIP3   OH280634   1.336   2.705  10.430  0.1857 -0.3949  0.2708
19740TIP3    H180635   1.401   2.762  10.389  1.0815 -1.1161  0.6500
19740TIP3    H280636   1.255   2.725  10.384  0.9750 -0.5436 -1.2639
19741TIP3   OH280637   3.360   5.496   3.677  0.2598 -0.2845  0.0681
19741TIP3    H180638   3.292   5.539   3.625  0.1754 -1.5750 -0.9592
19741TIP3    H280639   3.312   5.442   3.739  0.3600 -0.0270  0.3723
19742TIP3   OH280640   4.925   4.437  11.488 -0.2266  0.7232 -0.1613
19742TIP3    H180641   4.920   4.509  11.551 -1.0538  0.9201 -0.4401
19742TIP3    H280642   4.998   4.384  11.519  0.4348  1.7029  0.0232
19743TIP3   OH280643   6.789   2.440   5.108  0.7499  0.2858  0.2219
19743TIP3    H180644   6.848   2.448   5.183  1.0157  0.3636  0.0032
19743TIP3    H280645   6.845   2.420   5.034  0.2657 -2.2698  0.4550
19744TIP3   OH280646   0.387   3.995  12.937  0.4135  0.1562 -0.1365
19744TIP3    H180647   0.376   3.927  12.870 -0.5789  2.4027 -2.3990
19744TIP3    H280648   0.374   3.948  13.020  0.0972 -2.4535 -1.5394
19745TIP3   OH280649   5.530   1.362  13.508 -0.2069 -0.5049 -0.2712
19745TIP3    H180650   5.605   1.341  13.564 -0.6920 -0.3105  0.4515
19745TIP3    H280651   5.459   1.308  13.542 -0.8553  0.5846  0.1456
19746TIP3   OH280652   5.373   4.186   1.105 -0.2197 -0.4204 -0.1912
19746TIP3    H180653   5.307   4.146   1.049  2.0079 -1.1234 -2.5066
19746TIP3    H280654   5.375   4.278   1.077 -1.1011 -0.0583  0.8497
19747TIP3   OH280655   6.625   5.804  11.888  0.3016  0.2749  0.3462
19747TIP3    H180656   6.600   5.869  11.954 -0.4103 -0.7212  1.0755
19747TIP3    H280657   6.687   5.747  11.932 -0.6858 -0.7971  0.3842
19748TIP3   OH280658   1.657   6.550   5.894  0.0635 -0.6108 -0.1261
19748TIP3    H180659   1.562   6.548   5.907  0.1737  0.2946  1.0367
19748TIP3    H280660   1.675   6.636   5.855  0.2792 -1.3673 -1.7960
19749TIP3   OH280661   6.952   2.839   1.511 -0.8513 -0.5417 -0.6806
19749TIP3    H180662   7.005   2.916   1.491 -2.5547  0.4560 -1.6363
19749TIP3    H280663   6.946   2.837   1.606 -0.1311  0.0362 -0.6201
19750TIP3   OH280664   0.228   2.078   1.582  0.1551 -0.3868 -0.4776
19750TIP3    H180665   0.239   2.006   1.644 -0.7356  0.3577  0.5695
19750TIP3    H280666   0.316   2.091   1.544  0.8244 -0.5511  0.9590
19751TIP3   OH280667   5.602   2.943   4.987  0.1141  0.2460  0.1040
19751TIP3    H180668   5.553   2.964   4.907  0.6622 -1.2134 -0.6454
19751TIP3    H280669   5.535   2.942   5.056 -0.7311 -0.6016 -0.6993
19752TIP3   OH280670   1.722   5.384   1.919  0.2765  0.1329  0.1257
19752TIP3    H180671   1.641   5.343   1.948  0.4306 -1.6796 -1.7963
19752TIP3    H280672   1.790   5.347   1.975 -0.1805  1.7720  1.8434
19753TIP3   OH280673   2.106   3.150   0.632  0.4864 -0.0561 -0.0829
19753TIP3    H180674   2.126   3.230   0.582 -0.6669  0.4441  0.2220
19753TIP3    H280675   2.157   3.159   0.713 -0.6588  1.0482  0.5525
19754TIP3   OH280676   3.672   4.222   4.333 -0.1377  0.4438  0.5791
19754TIP3    H180677   3.721   4.206   4.252  0.1122  2.2364  0.3305
19754TIP3    H280678   3.705   4.157   4.394  0.7780  0.0405 -0.3155
19755TIP3   OH280679   5.780   6.078   3.815 -0.0935  0.1508 -0.6117
19755TIP3    H180680   5.829   5.999   3.790 -1.0608 -0.7932  0.3683
19755TIP3    H280681   5.742   6.057   3.900 -2.7075  0.5913 -1.5804
19756TIP3   OH280682   0.120   0.386   5.610 -0.0701 -0.8851 -0.5006
19756TIP3    H180683   0.178   0.311   5.626  1.5269  0.6692  1.4541
19756TIP3    H280684   0.178   0.458   5.586 -1.5541 -0.1572 -2.1206
19757TIP3   OH280685   6.939   3.463   4.152 -0.7923 -0.2073 -0.1234
19757TIP3    H180686   7.005   3.506   4.206  0.8931 -1.8494 -0.7595
19757TIP3    H280687   6.900   3.534   4.101  0.3751  0.8345  0.3800
19758TIP3   OH280688   1.681   6.680   2.143 -0.3493 -0.4661 -0.0827
19758TIP3    H180689   1.602   6.635   2.112 -0.5917  0.0275 -0.1967
19758TIP3    H280690   1.664   6.773   2.126  0.7883 -0.4501 -1.3006
19759TIP3   OH280691   3.590   1.387   1.500 -0.2708 -0.4435 -0.4867
19759TIP3    H180692   3.683   1.394   1.519 -0.5104 -0.3347  0.7811
19759TIP3    H280693   3.547   1.403   1.585 -1.4196 -0.8361 -0.9678
19760TIP3   OH280694   6.749   4.313  11.984 -0.0987 -0.5455 -0.1445
19760TIP3    H180695   6.684   4.266  12.036 -1.8034  1.6674 -0.1345
19760TIP3    H280696   6.783   4.380  12.044 -0.5253  0.6641 -1.2158
19761TIP3   OH280697   4.123   6.686   1.655 -0.3245 -0.0189 -0.2949
19761TIP3    H180698   4.083   6.603   1.629  0.0452 -0.2817 -0.0191
19761TIP3    H280699   4.156   6.723   1.573 -0.6505 -0.0568 -0.4457
19762TIP3   OH280700   2.878   5.073   2.159  0.2152  0.2416 -0.0897
19762TIP3    H180701   2.884   4.978   2.144 -0.4501  0.1996 -0.1186
19762TIP3    H280702   2.966   5.106   2.140  0.6225 -0.4522  0.5374
19763TIP3   OH280703   5.126   0.630   1.019 -1.0938 -0.0019  0.4071
19763TIP3    H180704   5.176   0.686   1.079 -0.8358  0.4283 -0.1980
19763TIP3    H280705   5.153   0.541   1.041 -1.2633  0.1292  1.1622
19764TIP3   OH280706   6.748   4.838   0.233 -0.0687  0.4773  0.7002
19764TIP3    H180707   6.693   4.807   0.161 -0.2328 -1.7528  1.6913
19764TIP3    H280708   6.698   4.817   0.312  1.3354  0.2359  1.5646
19765TIP3   OH280709   1.756   2.886   5.525  0.7713 -0.1736  0.3727
19765TIP3    H180710   1.773   2.859   5.615 -0.6763 -0.5258  0.5545
19765TIP3    H280711   1.664   2.864   5.509  1.2666 -1.1618 -1.5470
19766TIP3   OH280712   6.694   4.770   2.725  0.1106  0.0781 -0.1743
19766TIP3    H180713   6.651   4.722   2.795  1.0570  0.4649  0.6943
19766TIP3    H280714   6.784   4.736   2.723  0.2916  0.5494 -0.7386
19767TIP3   OH280715   4.864   5.830   2.249  0.0639 -0.2125 -0.3541
19767TIP3    H180716   4.832   5.741   2.236  0.0861 -0.1834 -0.6129
19767TIP3    H280717   4.874   5.839   2.344  2.0219 -1.1859 -0.4164
19768TIP3   OH280718   2.153   2.091   5.116  0.0486  0.2298  0.1492
19768TIP3    H180719   2.086   2.146   5.157  0.1417 -0.0247  0.6517
19768TIP3    H280720   2.219   2.079   5.184  0.1624 -0.2780 -0.0485
19769TIP3   OH280721   1.597   1.149   4.992 -0.2032 -0.5064  0.1786
19769TIP3    H180722   1.650   1.110   5.061  1.2425  0.5529 -0.2975
19769TIP3    H280723   1.598   1.084   4.922 -0.9370 -1.1962  0.7774
19770TIP3   OH280724   4.843   5.024   0.281 -0.0552  0.2619  0.1570
19770TIP3    H180725   4.938   5.011   0.285  0.3306  2.0377 -1.7259
19770TIP3    H280726   4.815   5.025   0.372  2.1555  2.2810  0.9021
19771TIP3   OH280727   6.287   3.177   4.453 -0.3537  0.0641 -0.5920
19771TIP3    H180728   6.317   3.262   4.420 -0.5625  0.0843 -0.7292
19771TIP3    H280729   6.345   3.159   4.527 -0.9483  0.7978  0.0721
19772TIP3   OH280730   5.136   0.101   4.190  0.0342  0.6114 -0.1768
19772TIP3    H180731   5.209   0.096   4.252  0.4533 -0.6359 -0.7400
19772TIP3    H280732   5.059   0.079   4.243 -0.0182  2.2016  0.4808
19773TIP3   OH280733   0.884   5.708  11.891 -0.2775 -0.1078 -0.2610
19773TIP3    H180734   0.849   5.660  11.816 -1.0572 -0.3176  0.2254
19773TIP3    H280735   0.865   5.800  11.871 -2.3018 -0.2907  0.5526
19774TIP3   OH280736   5.059   2.636   4.526 -0.0866  0.2576 -0.6402
19774TIP3    H180737   5.039   2.716   4.477  1.2443  0.1982 -1.3246
19774TIP3    H280738   5.037   2.658   4.616  0.3956  1.4603 -0.7931
19775TIP3   OH280739   4.612   6.285   5.047  0.0139  0.2155  0.3674
19775TIP3    H180740   4.544   6.349   5.028 -0.1752  0.2377  1.1016
19775TIP3    H280741   4.608   6.272   5.141 -0.3874 -1.3592  0.1611
19776TIP3   OH280742   6.665   0.251   3.781 -0.5714  0.0104 -0.1728
19776TIP3    H180743   6.726   0.324   3.768 -1.1747  0.5162 -0.2349
19776TIP3    H280744   6.603   0.284   3.846 -0.4500 -0.7031  0.3114
19777TIP3   OH280745   1.355   0.493   5.906 -0.1836  0.3587 -0.6416
19777TIP3    H180746   1.285   0.453   5.854 -1.0912 -1.0775  1.5177
19777TIP3    H280747   1.333   0.470   5.997  2.9807  0.0259  0.1618
19778TIP3   OH280748   3.787   6.169  13.469  0.3960  0.3519 -0.2725
19778TIP3    H180749   3.858   6.196  13.526 -0.3818  1.5520  0.1730
19778TIP3    H280750   3.714   6.151  13.528 -0.5915  2.1674 -0.8600
19779TIP3   OH280751   2.561   5.297   2.839  0.1570 -0.1123  0.1581
19779TIP3    H180752   2.513   5.216   2.823  0.5884 -1.1200  3.2325
19779TIP3    H280753   2.653   5.270   2.844  0.1366 -0.0508  3.5443
19780TIP3   OH280754   4.511   6.508   5.217  0.2152  0.3628  0.6750
19780TIP3    H180755   4.604   6.513   5.195  0.2411 -0.6530  0.4713
19780TIP3    H280756   4.510   6.477   5.308  0.0880 -0.9392  0.2523
19781TIP3   OH280757   0.059   3.548   3.354  0.0693  0.2452  0.2262
19781TIP3    H180758   0.042   3.454   3.363  2.1848 -0.2467 -0.3498
19781TIP3    H280759   0.090   3.575   3.440 -0.4550  0.4267  0.3663
19782TIP3   OH280760   5.540   1.213   3.348 -0.0357 -0.2852  0.2693
19782TIP3    H180761   5.488   1.289   3.373 -0.2697 -0.7783  1.3093
19782TIP3    H280762   5.599   1.198   3.422  0.4337 -0.7480 -0.1841
19783TIP3   OH280763   0.622   4.402   4.832 -0.1310 -0.0071  0.0745
19783TIP3    H180764   0.704   4.445   4.856 -0.4197  0.2355  0.6533
19783TIP3    H280765   0.649   4.318   4.795  0.4643  0.8634 -1.5463
19784TIP3   OH280766   0.103   0.438   4.225  0.0135  0.5542 -0.5600
19784TIP3    H180767   0.058   0.518   4.253  0.4012  0.1976  1.1864
19784TIP3    H280768   0.181   0.434   4.280  0.5824 -0.4510 -1.4119
19785TIP3   OH280769   0.262   4.046  11.200 -0.5967 -0.0004  0.3135
19785TIP3    H180770   0.208   3.971  11.177  0.7992 -0.4771 -1.7228
19785TIP3    H280771   0.307   4.020  11.280  1.5280 -2.4003 -1.4714
19786TIP3   OH280772   1.768   0.840   0.508 -0.8215  0.5974 -0.2746
19786TIP3    H180773   1.726   0.829   0.593  0.9996  0.9571  0.7263
19786TIP3    H280774   1.799   0.753   0.485 -2.0786  0.3257 -1.0279
19787TIP3   OH280775   1.883   3.131   5.439 -0.3467 -0.0098  0.1244
19787TIP3    H180776   1.959   3.074   5.432  0.1181  0.7246 -1.1815
19787TIP3    H280777   1.811   3.073   5.464  0.4631 -0.8501  0.5394
19788TIP3   OH280778   2.558   2.801   1.275  0.0059  1.0683  0.3516
19788TIP3    H180779   2.517   2.723   1.239  0.3831  0.5425  1.0123
19788TIP3    H280780   2.646   2.802   1.237  0.0474  1.0864  0.4455
19789TIP3   OH280781   6.061   0.890  13.763  0.1428  0.3596  0.1191
19789TIP3    H180782   5.980   0.838  13.761  0.6666 -0.4548 -1.5348
19789TIP3    H280783   6.077   0.913  13.671  1.9330  0.2984  0.3894
19790TIP3   OH280784   4.042   2.841   5.254  0.0706 -0.3207 -0.1250
19790TIP3    H180785   4.073   2.836   5.164 -1.3980 -0.5603 -0.6357
19790TIP3    H280786   4.108   2.792   5.304 -1.1050 -3.7280 -1.6402
19791TIP3   OH280787   0.843   2.575   3.398 -0.7301 -0.2794  0.3952
19791TIP3    H180788   0.748   2.568   3.410 -0.9052 -1.7593 -1.3801
19791TIP3    H280789   0.871   2.487   3.373  1.0243  0.2566  0.3204
19792TIP3   OH280790   2.645   3.224  15.345  0.0964  0.0207  0.1432
19792TIP3    H180791   2.694   3.204  15.265 -1.2979 -0.8439 -0.5207
19792TIP3    H280792   2.553   3.213  15.321 -0.3189 -1.4001  2.1649
19793TIP3   OH280793   2.421   1.673   1.309 -0.3837 -0.5618 -0.2586
19793TIP3    H180794   2.460   1.649   1.393  0.5336  1.2238 -0.1242
19793TIP3    H280795   2.456   1.760   1.290 -2.1365 -0.0792 -1.5316
19794TIP3   OH280796   0.242   3.421   4.392  0.1022  0.3175  0.4009
19794TIP3    H180797   0.244   3.330   4.361  1.3700  0.1652  0.8660
19794TIP3    H280798   0.287   3.471   4.324  1.1644  0.2807  1.0603
19795TIP3   OH280799   3.460   3.092   5.924 -0.2610  0.4342  0.3327
19795TIP3    H180800   3.545   3.101   5.881 -0.3482  1.5268  0.3556
19795TIP3    H280801   3.476   3.117   6.015 -0.7596  1.4939  0.1484
19796TIP3   OH280802   0.889   2.506   3.952 -0.1323  0.9277  0.4713
19796TIP3    H180803   0.824   2.522   4.021  0.4508  0.6482  1.0976
19796TIP3    H280804   0.927   2.592   3.934 -0.8168  1.1274 -0.0466
19797TIP3   OH280805   0.335   0.462   4.376  0.6317 -0.1347  0.5500
19797TIP3    H180806   0.355   0.552   4.402 -0.6207  0.3243  0.0148
19797TIP3    H280807   0.357   0.409   4.452 -2.5893  1.1070  2.5502
19798TIP3   OH280808   7.074   2.645   0.843  0.2063  0.1399  0.4240
19798TIP3    H180809   7.136   2.674   0.909  0.0049 -0.6424  0.9723
19798TIP3    H280810   7.127   2.597   0.779  0.3795  0.7680  0.0963
19799TIP3   OH280811   0.483   6.486   4.384  0.4248  0.1085  0.4405
19799TIP3    H180812   0.561   6.522   4.341  1.0256  0.3129  1.6520
19799TIP3    H280813   0.416   6.553   4.371  1.4850  1.7215  2.5303
19800TIP3   OH280814   0.477   4.914  15.430 -0.2707 -0.4152 -0.0368
19800TIP3    H180815   0.477   4.987  15.492 -1.3206 -0.7630  0.3903
19800TIP3    H280816   0.498   4.838  15.484  0.6196 -0.4715 -0.4481
19801TIP3   OH280817   3.396   5.107   0.514 -0.0459 -0.2647 -1.0425
19801TIP3    H180818   3.310   5.068   0.498 -0.4743  1.1601 -2.4241
19801TIP3    H280819   3.442   5.099   0.431  1.8241 -2.4222  0.0762
19802TIP3   OH280820   0.256   4.477   3.275  0.2175  0.3363  0.0870
19802TIP3    H180821   0.278   4.525   3.194  1.0013  1.3244  0.8510
19802TIP3    H280822   0.248   4.386   3.247  0.2107  0.6866 -1.1520
19803TIP3   OH280823   4.771   6.008  12.002  0.2157  0.4290  0.2232
19803TIP3    H180824   4.694   6.064  12.008 -1.1372 -1.2989 -0.2653
19803TIP3    H280825   4.801   5.999  12.093 -0.0292  1.2770  0.3958
19804TIP3   OH280826   4.330   1.791  12.789 -0.0771 -0.1275  0.1445
19804TIP3    H180827   4.247   1.788  12.741 -0.1735 -2.6646  0.3815
19804TIP3    H280828   4.335   1.708  12.835  2.7026 -0.1167  0.0155
19805TIP3   OH280829   4.431   3.438   4.386  0.2834  0.5913 -0.7762
19805TIP3    H180830   4.385   3.399   4.312 -1.6261  1.1620  0.0679
19805TIP3    H280831   4.515   3.391   4.389  0.3481  0.4269 -3.1521
19806TIP3   OH280832   5.928   1.395   5.595  0.2698  0.0737  0.1160
19806TIP3    H180833   5.865   1.324   5.600  0.7437 -0.2839  1.4611
19806TIP3    H280834   5.875   1.475   5.590 -0.2618 -0.3497 -1.4051
19807TIP3   OH280835   5.043   4.160   0.520 -0.1467 -0.2865 -0.4697
19807TIP3    H180836   5.116   4.141   0.578 -0.4381 -0.9344 -0.3048
19807TIP3    H280837   5.073   4.233   0.466  0.4474 -0.2499 -0.0953
19808TIP3   OH280838   4.185   4.948   0.283 -0.2617 -0.1468 -0.1435
19808TIP3    H180839   4.137   5.001   0.220  0.9411  0.6482 -0.4367
19808TIP3    H280840   4.134   4.953   0.364 -0.3997  1.1149 -0.2909
19809TIP3   OH280841   4.836   1.482   3.356 -0.6449  0.2241 -0.3475
19809TIP3    H180842   4.877   1.396   3.364 -0.4072  0.2502 -1.2395
19809TIP3    H280843   4.909   1.542   3.340 -0.7176  0.7245  1.0123
19810TIP3   OH280844   6.229   0.156   5.177  0.2055  0.5321 -0.3570
19810TIP3    H180845   6.173   0.127   5.248  0.1094 -1.0728 -1.0362
19810TIP3    H280846   6.174   0.149   5.099  0.7030  0.9886 -0.7529
19811TIP3   OH280847   3.173   5.609   5.135 -0.0896  0.2015  0.0621
19811TIP3    H180848   3.171   5.582   5.226  1.1324 -0.4645 -0.0799
19811TIP3    H280849   3.263   5.639   5.121 -0.4373  0.9225 -0.7540
19812TIP3   OH280850   5.323   1.071   3.068  0.5326 -0.0451 -0.1090
19812TIP3    H180851   5.280   1.031   2.992 -0.2721  1.3634 -0.4176
19812TIP3    H280852   5.387   1.005   3.097  0.1434 -1.0099 -1.3797
19813TIP3   OH280853   1.603   5.789  12.990  0.5290 -0.4826  0.0923
19813TIP3    H180854   1.635   5.724  13.053 -0.0769  0.2383  1.1657
19813TIP3    H280855   1.588   5.868  13.042  0.1211  0.1702 -0.9807
19814TIP3   OH280856   6.245   0.263   1.554 -0.1070 -0.1344 -0.1410
19814TIP3    H180857   6.326   0.309   1.530 -0.8775  1.4227  0.1233
19814TIP3    H280858   6.181   0.292   1.489 -1.0785  0.6273  1.1083
19815TIP3   OH280859   0.825   2.171  14.250  0.2509  0.4346 -0.5748
19815TIP3    H180860   0.885   2.096  14.254 -0.1277  0.2037  1.2638
19815TIP3    H280861   0.868   2.239  14.302 -1.3056  0.0568  1.3234
19816TIP3   OH280862   5.994   0.316   2.329  0.4016 -0.3492  0.3554
19816TIP3    H180863   5.934   0.271   2.387 -2.0705  0.8789 -1.0519
19816TIP3    H280864   6.053   0.364   2.387 -0.3880 -1.0888  1.8142
19817TIP3   OH280865   6.025   6.618   4.974 -0.1939  0.1781  0.3205
19817TIP3    H180866   5.956   6.634   4.909  0.7470  1.6890 -0.3548
19817TIP3    H280867   6.099   6.588   4.922  0.0241 -0.3471  0.9218
19818TIP3   OH280868   3.180   1.187  13.443 -0.7021  0.1556 -0.1097
19818TIP3    H180869   3.232   1.264  13.419  0.3901 -0.7710 -0.8308
19818TIP3    H280870   3.240   1.133  13.494 -1.6367  0.0131  0.8807
19819TIP3   OH280871   1.145   5.171   4.840  0.7154 -0.5285 -0.7989
19819TIP3    H180872   1.206   5.099   4.856  2.3153  0.5910 -1.5650
19819TIP3    H280873   1.154   5.227   4.917 -0.9553 -1.3855  0.0670
19820TIP3   OH280874   5.128   6.874   3.484  0.2988  0.2094  0.0332
19820TIP3    H180875   5.095   6.954   3.524  1.1892  1.3024 -1.3577
19820TIP3    H280876   5.215   6.862   3.523  0.5936  0.5103 -0.5180
19821TIP3   OH280877   6.747   0.851   1.663  0.1222  0.4271  0.4857
19821TIP3    H180878   6.804   0.860   1.586 -0.1243 -2.7890 -0.1888
19821TIP3    H280879   6.688   0.927   1.657  0.8154  0.8785 -1.8780
19822TIP3   OH280880   1.232   2.829   1.661  0.6835 -0.3226  0.1730
19822TIP3    H180881   1.255   2.737   1.672  2.0044 -0.0147  0.1703
19822TIP3    H280882   1.234   2.843   1.566  0.3734 -0.3063  0.1664
19823TIP3   OH280883   2.215   0.649   2.881 -0.1462  0.2606  0.1686
19823TIP3    H180884   2.136   0.700   2.901 -1.9082 -1.0734 -2.7926
19823TIP3    H280885   2.287   0.706   2.907 -2.0286  1.9902  1.9965
19824TIP3   OH280886   5.314   6.142   4.973 -0.0208  0.3309  0.3068
19824TIP3    H180887   5.250   6.183   4.915  0.3584  1.5349  0.6932
19824TIP3    H280888   5.399   6.164   4.935  0.1931 -1.3232 -0.2455
19825TIP3   OH280889   4.137   0.983  12.791 -0.1506  0.1605 -0.2633
19825TIP3    H180890   4.078   0.914  12.819 -0.7941  0.0852 -1.7164
19825TIP3    H280891   4.189   0.944  12.721 -1.8874  1.6152 -2.5464
19826TIP3   OH280892   6.225   5.950   0.375 -0.3201 -0.2941  0.0613
19826TIP3    H180893   6.159   5.922   0.438 -0.8266 -0.0727 -0.3560
19826TIP3    H280894   6.177   5.957   0.292  0.2034 -0.0155 -0.2242
19827TIP3   OH280895   1.135   4.325   1.966 -0.7898  0.3815 -0.2934
19827TIP3    H180896   1.153   4.353   2.056  0.6599  0.9573 -0.7405
19827TIP3    H280897   1.040   4.333   1.958 -0.7880  1.8502  0.6984
19828TIP3   OH280898   7.110   3.124  15.476 -0.3692 -0.5210 -0.6603
19828TIP3    H180899   7.177   3.192  15.482 -0.9715  0.0334 -0.1438
19828TIP3    H280900   7.156   3.042  15.496  0.2912 -0.2365 -0.9878
19829TIP3   OH280901   0.965   5.597   4.596 -0.1450 -0.5740 -0.0860
19829TIP3    H180902   1.041   5.565   4.644  0.2678  0.9560  0.3513
19829TIP3    H280903   0.893   5.594   4.660  0.0133 -0.1566  0.1163
19830TIP3   OH280904   4.192   2.848   5.000 -0.1095 -0.4226  0.0160
19830TIP3    H180905   4.202   2.921   4.939  1.7128  0.7602  1.6138
19830TIP3    H280906   4.281   2.831   5.032 -1.1769  0.4533  3.8921
19831TIP3   OH280907   0.031   0.496   5.845 -0.4228  0.3956  0.4119
19831TIP3    H180908   0.058   0.442   5.771 -0.2342 -1.6063  1.8469
19831TIP3    H280909   0.106   0.553   5.862  1.6587 -2.5959  2.0933
19832TIP3   OH280910   6.798   1.762   5.845  0.0611 -0.1079  0.0522
19832TIP3    H180911   6.835   1.750   5.932  0.5916 -1.9205 -0.3774
19832TIP3    H280912   6.853   1.708   5.788 -1.3236 -0.3427 -1.1209
19833TIP3   OH280913   1.339   6.959   1.580 -0.1811 -0.3299 -0.2005
19833TIP3    H180914   1.364   6.873   1.614  1.0765  0.1070  0.0667
19833TIP3    H280915   1.287   6.940   1.502 -1.5124 -1.3279  0.8813
19834TIP3   OH280916   4.783   6.085   4.703  0.0374 -0.4711  0.2254
19834TIP3    H180917   4.718   6.089   4.772 -1.3504 -0.0768 -1.0472
19834TIP3    H280918   4.846   6.154   4.725 -0.6050 -0.0761  0.8630
19835TIP3   OH280919   3.755   0.027  13.291 -0.1172 -0.0557 -0.0170
19835TIP3    H180920   3.665  -0.004  13.295 -0.0466 -0.2420  0.1823
19835TIP3    H280921   3.750   0.114  13.250 -0.7734  1.3499  2.7658
19836TIP3   OH280922   2.517   3.034   4.987 -0.8560  0.2539  0.4063
19836TIP3    H180923   2.475   3.006   5.068 -2.2918  1.8301  0.2633
19836TIP3    H280924   2.477   3.119   4.967 -0.4428 -0.0206 -1.8785
19837TIP3   OH280925   3.472   0.236   3.002 -0.5181 -0.1282 -0.0241
19837TIP3    H180926   3.509   0.148   2.989 -2.1947 -0.5889 -2.4494
19837TIP3    H280927   3.389   0.233   2.956 -1.2635  2.3699  1.0143
19838TIP3   OH280928   1.768   4.604   0.225 -0.5414 -0.8953  0.1652
19838TIP3    H180929   1.680   4.637   0.207 -0.6881 -0.9136  0.8362
19838TIP3    H280930   1.781   4.620   0.318  0.3816 -0.3775 -0.0430
19839TIP3   OH280931   0.307   5.029   5.117 -0.1907  0.0137 -0.0101
19839TIP3    H180932   0.392   5.050   5.156  0.3984  1.0126 -1.7313
19839TIP3    H280933   0.266   5.114   5.101 -1.3851 -0.4508  0.4832
19840TIP3   OH280934   3.471   5.333   4.633  0.6045  0.2852  0.2303
19840TIP3    H180935   3.517   5.377   4.705 -1.2841  2.3806  0.2643
19840TIP3    H280936   3.411   5.399   4.599 -2.5822 -2.2834  0.3787
19841TIP3   OH280937   5.651   4.215   3.031  0.3750 -0.0780 -0.1428
19841TIP3    H180938   5.597   4.157   3.085  0.7111 -0.4813 -0.2297
19841TIP3    H280939   5.597   4.292   3.016 -0.3187 -0.6337 -0.5444
19842TIP3   OH280940   2.804   5.607   3.958 -0.2176  0.2332 -0.9244
19842TIP3    H180941   2.758   5.554   3.893  0.9279 -0.8562 -0.8871
19842TIP3    H280942   2.860   5.544   4.004  1.4281  1.5342 -1.0899
19843TIP3   OH280943   0.149   2.338   3.248  0.0434 -0.2599  0.2164
19843TIP3    H180944   0.191   2.373   3.168 -1.2252  0.3012 -0.2335
19843TIP3    H280945   0.201   2.375   3.319 -0.1059  1.0432 -0.3090
19844TIP3   OH280946   3.387   1.636   3.154  0.4396  0.0530 -0.3239
19844TIP3    H180947   3.350   1.689   3.224  0.2629  0.3514 -0.6432
19844TIP3    H280948   3.465   1.683   3.126 -0.5085  0.9423 -1.6161
19845TIP3   OH280949   0.668   3.070   2.704  0.0168  0.0468  0.3398
19845TIP3    H180950   0.574   3.073   2.691  0.0924 -0.4342 -0.4104
19845TIP3    H280951   0.705   3.084   2.616  0.6554  0.7472  0.7004
19846TIP3   OH280952   1.797   6.947   2.761 -0.5251 -0.0778  0.3103
19846TIP3    H180953   1.798   6.944   2.666 -1.8865 -0.5202  0.2957
19846TIP3    H280954   1.831   7.033   2.783 -1.8880  0.7348 -0.6369
19847TIP3   OH280955   2.944   5.086   5.271  0.3626 -0.4960  0.0756
19847TIP3    H180956   3.029   5.053   5.299  2.2560  2.1303 -2.1113
19847TIP3    H280957   2.915   5.025   5.204  0.9810 -0.8964  0.1671
19848TIP3   OH280958   0.308   1.127   1.975 -0.1421  0.1794 -0.6944
19848TIP3    H180959   0.269   1.185   2.041  0.8686  0.0784  0.0249
19848TIP3    H280960   0.392   1.167   1.954 -0.3324  0.0542 -1.7270
19849TIP3   OH280961   7.064   3.130   3.604  0.7114  0.3705  0.4758
19849TIP3    H180962   7.121   3.115   3.679  1.9049 -0.2009 -0.4993
19849TIP3    H280963   6.983   3.082   3.625  0.9487  0.3921  1.4691
19850TIP3   OH280964   2.788   2.938   5.194 -0.2034 -0.0162  0.0578
19850TIP3    H180965   2.766   2.873   5.127  0.7551 -1.2236  0.8556
19850TIP3    H280966   2.818   2.886   5.268 -0.0660  1.3369  0.9874
19851TIP3   OH280967   6.070   3.756   5.048 -0.3600 -0.5267  0.0055
19851TIP3    H180968   5.991   3.767   4.994 -1.3482  0.4708  1.5697
19851TIP3    H280969   6.044   3.788   5.134  2.0834  0.9337  0.2955
19852TIP3   OH280970   6.362   3.966   5.777  0.1377 -0.1778  0.2183
19852TIP3    H180971   6.435   4.014   5.815  1.9870 -0.0378 -3.0862
19852TIP3    H280972   6.374   3.876   5.806  2.6128 -0.4572 -1.4024
19853TIP3   OH280973   4.759   5.394   1.625  0.2660 -0.7413  0.3670
19853TIP3    H180974   4.833   5.449   1.653 -1.0890  0.6988  1.3142
19853TIP3    H280975   4.794   5.305   1.626  3.2318  0.1168 -3.3111
19854TIP3   OH280976   0.750   0.437   3.075 -0.1625 -0.2819 -0.4122
19854TIP3    H180977   0.696   0.372   3.120  0.1584 -0.8561 -0.8353
19854TIP3    H280978   0.729   0.425   2.982  0.4921 -0.3278 -0.5592
19855TIP3   OH280979   3.240   2.405   5.739  0.4789 -0.0449  0.1682
19855TIP3    H180980   3.246   2.327   5.793  0.1724 -0.1371  0.0714
19855TIP3    H280981   3.247   2.478   5.801 -2.7688 -0.0968  0.7739
19856TIP3   OH280982   6.142   1.222   5.574  0.3379 -0.0781 -0.6730
19856TIP3    H180983   6.073   1.271   5.619  0.1392 -2.1859  1.5641
19856TIP3    H280984   6.224   1.262   5.603  0.1830  1.6310 -2.3598
19857TIP3   OH280985   4.541   0.714  13.538  0.6974  0.2059 -0.1086
19857TIP3    H180986   4.496   0.792  13.503  1.8113  0.4522 -1.0672
19857TIP3    H280987   4.592   0.681  13.464  0.7935 -1.0383  0.4913
19858TIP3   OH280988   3.783   0.764   2.329  0.0187 -0.8644  0.2244
19858TIP3    H180989   3.702   0.813   2.320  1.3314  1.8345  1.9096
19858TIP3    H280990   3.852   0.828   2.314  1.8538 -2.3096  1.9008
19859TIP3   OH280991   3.461   3.230   2.318  0.1333 -0.5296 -0.0375
19859TIP3    H180992   3.422   3.215   2.404  0.6565 -0.0458  0.2875
19859TIP3    H280993   3.526   3.299   2.332  0.8487 -1.0619 -0.6402
19860TIP3   OH280994   6.481   2.511   2.398 -0.0043 -0.5353 -0.0328
19860TIP3    H180995   6.517   2.434   2.354  1.9767 -1.0221  2.1905
19860TIP3    H280996   6.450   2.568   2.327 -0.3455 -2.7894 -1.7854
19861TIP3   OH280997   1.677   1.223  13.731  0.2109 -0.1208 -0.1280
19861TIP3    H180998   1.685   1.178  13.815  0.3656  0.4718  0.1829
19861TIP3    H280999   1.695   1.156  13.666  1.3828 -0.3019  0.3523
19862TIP3   OH281000   0.818   4.613   2.189 -0.0032 -0.0428  0.1770
19862TIP3    H181001   0.772   4.530   2.177  0.7191 -0.3516 -0.6255
19862TIP3    H281002   0.875   4.598   2.264 -1.3783  0.4345  1.3487
19863TIP3   OH281003   6.540   2.037   0.996  0.6109 -0.5156 -0.0090
19863TIP3    H181004   6.548   2.055   0.903  0.3770 -0.0097  0.0672
19863TIP3    H281005   6.583   2.112   1.039  0.9949 -0.8958  0.2849
19864TIP3   OH281006   6.244   0.214   3.496  0.3437  0.6146 -0.1766
19864TIP3    H181007   6.336   0.211   3.521 -0.1626  0.2455  1.7899
19864TIP3    H281008   6.218   0.304   3.513  0.2131  0.5907 -0.2501
19865TIP3   OH281009   5.701   6.141   5.372  0.3032  0.4781 -0.0099
19865TIP3    H181010   5.700   6.193   5.453 -0.7580 -0.8164  0.8536
19865TIP3    H281011   5.754   6.064   5.394 -1.5974 -0.8505  0.1327
19866TIP3   OH281012   1.833   3.565   2.726  0.2189  0.1027 -0.9111
19866TIP3    H181013   1.891   3.621   2.674 -0.8497  2.4935  0.3090
19866TIP3    H281014   1.890   3.497   2.761  1.8859  1.2200 -1.3415
19867TIP3   OH281015   2.452   3.872   2.699  0.1635 -0.2086 -0.1115
19867TIP3    H181016   2.412   3.837   2.778  1.0075  1.1583  0.9659
19867TIP3    H281017   2.396   3.841   2.628 -0.7659 -1.2401  1.0319
19868TIP3   OH281018   1.578   4.744   2.683 -0.3029  0.0500  0.0654
19868TIP3    H181019   1.498   4.717   2.727 -0.6492  0.0177 -0.5678
19868TIP3    H281020   1.584   4.686   2.607  0.3431  0.0285  0.1239
19869TIP3   OH281021   3.477   1.294   5.384  0.3840 -0.5888  0.0793
19869TIP3    H181022   3.560   1.247   5.388 -0.2733 -1.8974 -0.8097
19869TIP3    H281023   3.500   1.380   5.348  1.4285 -0.7248  0.4005
19870TIP3   OH281024   4.910   4.539   2.714  0.0463  0.4892  0.1919
19870TIP3    H181025   4.996   4.507   2.684 -0.4985 -1.9767  1.0226
19870TIP3    H281026   4.922   4.553   2.808 -0.4677  0.0427  0.3272
19871TIP3   OH281027   0.779   5.680   3.499 -0.0148  0.0222 -0.4389
19871TIP3    H181028   0.687   5.698   3.514 -0.0628 -1.2217  0.9747
19871TIP3    H281029   0.779   5.606   3.438  0.0254 -0.2944 -0.0606
19872TIP3   OH281030   3.563   0.828   5.568  0.3126 -0.0294 -0.3584
19872TIP3    H181031   3.560   0.891   5.640 -1.0608  0.5137 -0.8565
19872TIP3    H281032   3.585   0.745   5.610  1.1151  0.5824  0.4547
19873TIP3   OH281033   5.096   5.889   3.411 -0.1943 -0.0705  0.3164
19873TIP3    H181034   5.126   5.855   3.496  0.6133  0.7712  0.3804
19873TIP3    H281035   5.093   5.812   3.354 -1.9292 -0.8828  1.4019
19874TIP3   OH281036   5.042   4.567   2.932 -0.5582  0.2256 -0.0546
19874TIP3    H181037   5.095   4.510   2.876  0.8549  0.2363  1.2042
19874TIP3    H281038   5.094   4.646   2.943 -0.8324  0.2548  1.1912
19875TIP3   OH281039   3.153   5.297   5.180 -0.0238  0.2036  0.1154
19875TIP3    H181040   3.222   5.315   5.116  0.3227  0.8943  0.6736
19875TIP3    H281041   3.190   5.231   5.237 -0.3865 -0.5189 -0.4700
19876TIP3   OH281042   3.666   5.690   0.775  0.3331 -0.0755 -0.1799
19876TIP3    H181043   3.644   5.601   0.749 -0.9166  0.4962 -1.2173
19876TIP3    H281044   3.754   5.684   0.812  0.3619 -1.6812 -0.4531
19877TIP3   OH281045   2.048   1.663  15.492  0.3236  1.3323 -0.1060
19877TIP3    H181046   1.975   1.601  15.494  2.0996 -0.8775  0.8714
19877TIP3    H281047   2.045   1.700  15.404 -1.5552  0.8055 -0.3081
19878TIP3   OH281048   3.883   0.052   0.006  0.1924 -0.0787 -0.3623
19878TIP3    H181049   3.895   0.146  -0.002 -0.6035  0.2034  1.3552
19878TIP3    H281050   3.938   0.027   0.080 -0.1925 -0.8471 -0.3285
19879TIP3   OH281051   2.598   0.492  10.736  0.3759  0.2895  0.4336
19879TIP3    H181052   2.605   0.402  10.703 -1.0782 -0.0513  0.9536
19879TIP3    H281053   2.553   0.539  10.666  2.0745  0.9103 -0.2930
19880TIP3   OH281054   5.505   6.284   3.731 -0.2879  0.1342  0.8924
19880TIP3    H181055   5.565   6.278   3.805  0.5855  0.9207  0.2924
19880TIP3    H281056   5.556   6.252   3.656 -1.2820 -1.0199  0.6774
19881TIP3   OH281057   6.549   4.903   3.011  0.6878 -0.0942 -0.8019
19881TIP3    H181058   6.473   4.914   2.953  0.6504 -0.8224 -0.9026
19881TIP3    H281059   6.587   4.990   3.017 -0.6248  0.4444 -0.0948
19882TIP3   OH281060   7.015   7.110   1.436 -0.3671  0.0420 -0.1335
19882TIP3    H181061   7.069   7.078   1.363  0.1204  0.9318 -0.1766
19882TIP3    H281062   7.069   7.093   1.514 -1.1572 -1.5046  0.1098
19883TIP3   OH281063   6.535   0.837  12.597 -0.1198 -0.8341 -0.1653
19883TIP3    H181064   6.601   0.781  12.638 -0.7856 -2.0232 -0.6531
19883TIP3    H281065   6.469   0.850  12.666  1.0527  1.2001  0.6575
19884TIP3   OH281066   5.473   0.693  14.044 -0.2969 -0.7078 -0.6663
19884TIP3    H181067   5.473   0.671  14.137  0.1022 -1.2610 -0.7973
19884TIP3    H281068   5.547   0.646  14.007  0.1633  0.3008 -1.0815
19885TIP3   OH281069   5.240   4.002   1.474  0.1802 -0.3340  0.2001
19885TIP3    H181070   5.195   4.054   1.407  0.1055 -0.0902  0.4393
19885TIP3    H281071   5.172   3.982   1.538  0.1735 -0.8551  0.0378
19886TIP3   OH281072   1.346   2.580   1.673 -0.3052 -0.6115  0.9532
19886TIP3    H181073   1.383   2.491   1.669  0.7846 -0.1391  0.0488
19886TIP3    H281074   1.418   2.637   1.647 -1.3562  0.4521  0.2870
19887TIP3   OH281075   2.383   2.625   0.169  0.1542  0.0308 -0.0187
19887TIP3    H181076   2.375   2.557   0.236  2.5592  0.5740  0.9128
19887TIP3    H281077   2.419   2.580   0.093 -0.8660 -0.2208 -0.3815
19888TIP3   OH281078   1.219   4.193   0.701  0.2118 -0.1122  0.2486
19888TIP3    H181079   1.313   4.183   0.686  0.1494  1.5643 -1.8667
19888TIP3    H281080   1.206   4.288   0.705 -1.6430 -0.1546 -2.1816
19889TIP3   OH281081   5.787   0.823   3.946 -0.3969 -0.3852  0.1668
19889TIP3    H181082   5.819   0.773   4.021  2.6085  0.5694 -0.3401
19889TIP3    H281083   5.768   0.910   3.981 -3.7578 -1.1860  0.6650
19890TIP3   OH281084   0.872   0.274   5.206 -0.3271  0.3919 -0.2058
19890TIP3    H181085   0.846   0.315   5.289 -0.7281 -0.2090 -0.0246
19890TIP3    H281086   0.917   0.194   5.233 -2.0287 -0.7446 -0.5662
19891TIP3   OH281087   2.866   6.373   0.370 -0.1771 -0.2506  0.1891
19891TIP3    H181088   2.836   6.317   0.441  0.7810  0.2824  1.0551
19891TIP3    H281089   2.942   6.327   0.334  0.5437  0.4050  0.8292
19892TIP3   OH281090   0.177   4.147   5.538 -0.0396  0.2883 -0.3602
19892TIP3    H181091   0.125   4.150   5.458 -1.6793 -0.6970  0.6160
19892TIP3    H281092   0.205   4.237   5.552 -0.2767  0.5920 -1.6785
19893TIP3   OH281093   4.830   6.216  14.052  0.7557  0.3442  0.3570
19893TIP3    H181094   4.907   6.219  13.995  0.7752 -0.8839  0.3091
19893TIP3    H281095   4.781   6.296  14.030 -0.0448 -0.8268 -2.5276
19894TIP3   OH281096   5.299   6.114  12.519 -0.3081 -0.2074  0.6600
19894TIP3    H181097   5.213   6.120  12.561 -0.6878 -2.3660  0.3059
19894TIP3    H281098   5.340   6.039  12.561  1.8517  1.3528  1.5080
19895TIP3   OH281099   6.629   1.897   3.143 -0.0079  0.3405  0.3470
19895TIP3    H181100   6.639   1.957   3.069 -1.5688  1.9758  1.3788
19895TIP3    H281101   6.717   1.860   3.157  0.4962  0.6423 -1.7338
19896TIP3   OH281102   6.247   2.051   0.577 -0.2704  0.1560  0.4368
19896TIP3    H181103   6.232   1.959   0.554  1.3444 -0.0817  0.1847
19896TIP3    H281104   6.253   2.051   0.673 -3.1880  0.5230  0.7024
19897TIP3   OH281105   6.520   4.775   0.057  0.4648  0.3133  0.2847
19897TIP3    H181106   6.576   4.698   0.052  0.9482  0.6704  0.2222
19897TIP3    H281107   6.433   4.742   0.032  0.8615  0.0005 -0.7319
19898TIP3   OH281108   2.010   1.836   5.938 -0.3353 -0.3463 -0.3604
19898TIP3    H181109   2.022   1.928   5.961 -0.5764 -0.1931 -0.8300
19898TIP3    H281110   2.065   1.823   5.861  0.3620 -0.8205  0.2009
19899TIP3   OH281111   2.535   5.289  14.202  0.1477  0.6851 -0.4255
19899TIP3    H181112   2.528   5.327  14.289 -0.4407 -0.3861  0.0114
19899TIP3    H281113   2.478   5.343  14.148 -2.0532 -0.5146  0.5455
19900TIP3   OH281114   1.557   6.006   3.257  0.5067 -0.3200  0.3014
19900TIP3    H181115   1.553   6.018   3.352 -0.8620  0.1331  0.2060
19900TIP3    H281116   1.639   6.049   3.231 -0.9622  3.1997  0.8490
19901TIP3   OH281117   0.826   5.512   5.397  0.9429  0.0231 -0.4335
19901TIP3    H181118   0.905   5.475   5.437 -0.0383 -1.3940  0.3120
19901TIP3    H281119   0.803   5.586   5.453  0.8985 -0.5082  0.2647
19902TIP3   OH281120   6.445   5.889   1.849  0.1212  0.4414  1.0045
19902TIP3    H181121   6.456   5.798   1.825 -1.0696 -0.0513  2.1727
19902TIP3    H281122   6.517   5.907   1.910  0.0827  0.1237  1.1460
19903TIP3   OH281123   0.649   6.172   4.915 -0.3770 -0.5007  0.2325
19903TIP3    H181124   0.662   6.218   4.832  1.4593 -0.9710  0.2171
19903TIP3    H281125   0.729   6.188   4.965 -0.1529 -2.6869  0.6873
19904TIP3   OH281126   0.535   6.216  13.911 -0.7024 -0.0014  0.2572
19904TIP3    H181127   0.568   6.141  13.960 -1.9165 -1.0170 -0.4124
19904TIP3    H281128   0.469   6.255  13.968 -0.2735  0.3941  0.4882
19905TIP3   OH281129   1.604   0.227   3.183  0.2881  0.5730 -0.3883
19905TIP3    H181130   1.523   0.250   3.139  0.1286 -0.3503 -0.5943
19905TIP3    H281131   1.636   0.150   3.136  0.1532 -0.3915  1.0421
19906TIP3   OH281132   6.387   1.855   0.768 -0.0020  0.4201 -0.1004
19906TIP3    H181133   6.409   1.813   0.851 -1.8629 -1.6483 -0.5609
19906TIP3    H281134   6.459   1.830   0.709  0.4213  0.3952  0.4270
19907TIP3   OH281135   2.255   1.953   2.289  0.1962 -0.1257  0.1879
19907TIP3    H181136   2.161   1.938   2.283 -0.1632  1.1943  1.9173
19907TIP3    H281137   2.266   2.013   2.362  2.4044 -0.2917  0.0723
19908TIP3   OH281138   1.814   3.314   5.240 -0.3883  0.3445  0.0672
19908TIP3    H181139   1.727   3.342   5.270 -0.0113  0.1813  1.3731
19908TIP3    H281140   1.838   3.244   5.300  1.0766  1.0712  0.3718
19909TIP3   OH281141   1.356   0.144   0.411 -0.5311  0.0447  0.1503
19909TIP3    H181142   1.439   0.097   0.409 -0.8627 -0.5520  0.1338
19909TIP3    H281143   1.344   0.175   0.322 -0.2640  0.2406  0.1824
19910TIP3   OH281144   6.168   4.049  14.684 -0.4165 -0.1969 -0.1611
19910TIP3    H181145   6.171   4.144  14.689 -0.2972 -0.2299  0.4281
19910TIP3    H281146   6.258   4.023  14.665 -0.4774 -0.1881 -0.4717
19911TIP3   OH281147   1.850   5.911  13.574 -0.2591  0.0066 -0.0554
19911TIP3    H181148   1.785   5.980  13.590  0.8863  1.2238 -0.4438
19911TIP3    H281149   1.923   5.957  13.533  0.4356 -1.5104 -0.5717
19912TIP3   OH281150   0.251   4.442   4.997  0.1165  0.0056  0.0704
19912TIP3    H181151   0.324   4.400   5.043 -0.2238 -2.1706 -1.2377
19912TIP3    H281152   0.291   4.518   4.953  1.4107 -0.6117  0.1258
19913TIP3   OH281153   3.842   4.557   4.998 -0.3193  0.2277  0.3746
19913TIP3    H181154   3.930   4.589   4.977  0.1424 -1.8007 -1.0785
19913TIP3    H281155   3.783   4.611   4.946  0.3254 -0.2905 -0.9433
19914TIP3   OH281156   0.735   6.569   4.225  0.0876  0.4230 -0.9824
19914TIP3    H181157   0.804   6.574   4.292 -0.8918  1.9532 -0.0004
19914TIP3    H281158   0.753   6.488   4.178  1.5396 -0.0992  0.3577
19915TIP3   OH281159   6.467   3.462   2.851 -0.0861 -0.5752  0.1105
19915TIP3    H181160   6.558   3.434   2.843  0.1051  0.3016 -1.1312
19915TIP3    H281161   6.417   3.380   2.853  0.8033 -1.1251  2.7117
19916TIP3   OH281162   0.140   2.291   1.957 -0.1423 -0.0476  0.1914
19916TIP3    H181163   0.228   2.254   1.964 -0.6284 -1.0731  1.4579
19916TIP3    H281164   0.101   2.246   1.882 -0.2048 -1.0169  0.7861
19917TIP3   OH281165   0.576   2.466   0.145 -0.2052  0.0938  0.1927
19917TIP3    H181166   0.496   2.414   0.136  0.2165 -1.4765  3.5874
19917TIP3    H281167   0.545   2.555   0.160 -1.2888 -0.3174  0.5151
19918TIP3   OH281168   4.116   4.326   0.676 -0.0109 -0.2212  0.3952
19918TIP3    H181169   4.116   4.304   0.583  1.1569 -1.9816  0.7540
19918TIP3    H281170   4.030   4.367   0.691 -0.1794  0.1930 -1.4466
19919TIP3   OH281171   6.045   6.105   2.182 -0.0117  0.1358 -0.2028
19919TIP3    H181172   5.987   6.149   2.244 -0.5854  0.6225 -1.0570
19919TIP3    H281173   6.018   6.139   2.096  0.6623 -0.6269 -0.7318
19920TIP3   OH281174   3.755   4.235   4.753  0.5470 -0.0715 -0.2606
19920TIP3    H181175   3.788   4.256   4.840 -1.7578 -0.2469  0.7178
19920TIP3    H281176   3.689   4.303   4.735 -0.8338 -1.4855 -0.7362
19921TIP3   OH281177   1.243   2.026   0.685  0.2742  0.7062  0.3123
19921TIP3    H181178   1.314   2.073   0.729 -0.5097  0.4046  1.9480
19921TIP3    H281179   1.286   1.983   0.611  1.8268  0.4466  1.3136
19922TIP3   OH281180   3.631   3.951   5.776  0.2446 -0.2108 -0.2495
19922TIP3    H181181   3.547   3.969   5.736  0.4159  0.7821 -0.1889
19922TIP3    H281182   3.619   3.868   5.822 -1.4236  1.0419  1.7368
19923TIP3   OH281183   3.613   3.767   6.132  0.2001  0.7051 -0.0400
19923TIP3    H181184   3.605   3.751   6.038  0.6753 -0.6827  0.1404
19923TIP3    H281185   3.552   3.839   6.149 -0.9704  0.0200 -1.1634
19924TIP3   OH281186   4.030   1.815   2.800 -0.1252 -0.5222  0.5410
19924TIP3    H181187   4.089   1.887   2.783 -0.9856 -0.0240 -0.4461
19924TIP3    H281188   3.975   1.845   2.873 -2.9862  1.4906 -2.1554
19925TIP3   OH281189   3.952   3.673   2.390 -0.0621 -0.2567 -0.0177
19925TIP3    H181190   3.907   3.653   2.308 -0.3288  0.3969 -0.0359
19925TIP3    H281191   3.958   3.769   2.391 -2.6134 -0.0120  2.0529
19926TIP3   OH281192   5.435   2.132   1.449  0.0819 -0.1516 -0.3568
19926TIP3    H181193   5.466   2.216   1.415  0.8885 -0.1959  0.2138
19926TIP3    H281194   5.341   2.144   1.461  0.0406  0.3628 -1.1416
19927TIP3   OH281195   5.555   1.697   0.084 -0.0187 -0.5634  0.4827
19927TIP3    H181196   5.508   1.761   0.030  1.2691 -0.8215 -1.0313
19927TIP3    H281197   5.602   1.750   0.149 -1.3292 -0.2162  1.1728
19928TIP3   OH281198   4.552   2.084   4.297 -0.1689 -0.4874 -0.3092
19928TIP3    H181199   4.471   2.134   4.295  0.6417  0.9249  0.6807
19928TIP3    H281200   4.556   2.048   4.386 -0.4972 -1.9477 -0.8558
19929TIP3   OH281201   4.456   2.528   5.654  0.2451  0.1340  0.1740
19929TIP3    H181202   4.430   2.491   5.570 -0.1457 -0.5896  0.6010
19929TIP3    H281203   4.389   2.497   5.715  0.2799  1.0147  0.6696
19930TIP3   OH281204   2.753   1.210  14.640  0.0387 -0.2601  0.1946
19930TIP3    H181205   2.817   1.182  14.575 -0.7033 -0.7422 -0.3503
19930TIP3    H281206   2.704   1.281  14.597 -1.6581 -1.7881 -0.5108
19931TIP3   OH281207   5.491   5.386   4.369 -0.4376 -0.1406 -0.6570
19931TIP3    H181208   5.548   5.410   4.296 -0.1162  1.9702  0.2091
19931TIP3    H281209   5.552   5.371   4.442 -0.8907  1.3594  0.0748
19932TIP3   OH281210   2.114   5.915   1.422 -0.3089  0.3684 -0.0896
19932TIP3    H181211   2.080   5.983   1.481 -1.8834  1.5278 -2.1850
19932TIP3    H281212   2.086   5.943   1.335  0.4726 -2.1216 -1.2301
19933TIP3   OH281213   0.658   1.082   5.626  0.0168 -0.1548  0.0040
19933TIP3    H181214   0.726   1.149   5.617  0.4987 -0.5526  0.6022
19933TIP3    H281215   0.681   1.035   5.706 -1.1643 -0.0744  0.4067
19934TIP3   OH281216   5.465   1.751  10.487 -0.0974  0.1561 -0.7724
19934TIP3    H181217   5.445   1.818  10.552  2.1639 -0.3508  0.5253
19934TIP3    H281218   5.558   1.762  10.467  0.0144 -1.7300 -1.5374
19935TIP3   OH281219   6.908   0.378   2.556 -0.4444 -0.0688  0.6241
19935TIP3    H181220   6.917   0.460   2.508  0.4452  0.1337  1.1103
19935TIP3    H281221   6.867   0.404   2.639 -0.8504 -0.2268  0.4712
19936TIP3   OH281222   6.781   0.267  14.399 -0.4650 -0.3871  0.3692
19936TIP3    H181223   6.873   0.247  14.419 -0.2087 -0.4234 -0.7790
19936TIP3    H281224   6.784   0.353  14.357 -1.1014  0.1684  1.4389
19937TIP3   OH281225   0.312   6.980   5.544 -0.2038  0.1575 -0.2130
19937TIP3    H181226   0.252   6.912   5.574  0.9107  0.6663  3.7970
19937TIP3    H281227   0.398   6.937   5.543  0.4879  1.2729  2.2107
19938TIP3   OH281228   0.124   2.524   3.997  0.7751 -0.0647 -0.3233
19938TIP3    H181229   0.169   2.442   4.014 -1.6384 -0.8383  3.2010
19938TIP3    H281230   0.035   2.499   3.974 -0.0138  1.5007  0.8272
19939TIP3   OH281231   1.545   5.343   4.757 -0.0347 -0.0968  0.6010
19939TIP3    H181232   1.478   5.411   4.762 -0.3513 -0.3262 -0.4065
19939TIP3    H281233   1.573   5.330   4.848  0.2128  1.5464  0.7790
19940TIP3   OH281234   3.833   4.684   2.256 -0.0332  0.4472  0.5186
19940TIP3    H181235   3.776   4.760   2.239  0.0287  0.3069 -0.3995
19940TIP3    H281236   3.804   4.651   2.341 -0.6713  0.9628  0.5141
19941TIP3   OH281237   0.200   5.815   0.821  0.4741  0.4412 -0.0797
19941TIP3    H181238   0.150   5.752   0.770 -1.2414  1.7378 -0.0661
19941TIP3    H281239   0.291   5.789   0.807 -0.1201 -1.5783 -0.6450
19942TIP3   OH281240   3.662   1.081   1.241 -0.1919 -0.0419 -0.3830
19942TIP3    H181241   3.713   1.002   1.224  0.2910  0.0055  0.7691
19942TIP3    H281242   3.609   1.092   1.162  1.3619 -0.2521 -1.5151
19943TIP3   OH281243   5.382   4.552   4.174 -0.0901 -0.0742 -0.0707
19943TIP3    H181244   5.316   4.561   4.243  0.3008 -0.2784  0.3260
19943TIP3    H281245   5.420   4.640   4.165 -1.3857  0.4100 -1.2842
19944TIP3   OH281246   2.569   2.604  10.255  0.2525  0.0212 -1.1836
19944TIP3    H181247   2.500   2.657  10.215 -0.6208  0.3379  0.6567
19944TIP3    H281248   2.644   2.662  10.261  0.4920 -0.1113 -2.5544
19945TIP3   OH281249   4.966   1.600   3.080  0.3832  0.3448 -0.4429
19945TIP3    H181250   4.902   1.669   3.062  0.8211  0.6451 -0.8748
19945TIP3    H281251   5.051   1.644   3.075  0.5877  0.6379  2.9581
19946TIP3   OH281252   5.012   1.065   3.969  0.4704 -0.7604  0.3908
19946TIP3    H181253   5.009   1.034   3.878  0.8781  0.6158 -0.1230
19946TIP3    H281254   4.922   1.090   3.988  0.8464  1.7870 -0.7323
19947TIP3   OH281255   2.844   0.738  13.040 -0.1206 -0.0879  0.1303
19947TIP3    H181256   2.781   0.759  12.971  0.4662 -0.2682 -0.4696
19947TIP3    H281257   2.812   0.655  13.077  0.1733 -0.5798 -0.6871
19948TIP3   OH281258   1.404   5.638   1.036 -0.1630  0.2283  0.3639
19948TIP3    H181259   1.459   5.560   1.044  0.4059  0.6434  0.6699
19948TIP3    H281260   1.362   5.647   1.122  0.1752  0.5348  0.5052
19949TIP3   OH281261   7.132   5.571   4.348 -0.1228 -0.3941 -0.0380
19949TIP3    H181262   7.105   5.488   4.308  1.2521 -0.6825 -0.4086
19949TIP3    H281263   7.174   5.620   4.277 -1.3423  0.8614  0.0435
19950TIP3   OH281264   3.399   1.966   4.106  0.0363 -0.2026  0.1478
19950TIP3    H181265   3.380   2.006   4.190 -1.2091 -0.5842  0.0679
19950TIP3    H281266   3.486   1.929   4.116 -0.0321 -0.0948  1.2086
19951TIP3   OH281267   0.358   3.901   5.396  0.2738  0.9499  0.2178
19951TIP3    H181268   0.269   3.935   5.392  0.6463  1.8774 -0.7753
19951TIP3    H281269   0.351   3.820   5.446 -1.0171  1.3325  0.7026
19952TIP3   OH281270   0.547   3.945   4.540  0.0493  0.4062  0.1981
19952TIP3    H181271   0.622   3.925   4.485  0.3541  0.3541  0.6273
19952TIP3    H281272   0.482   3.982   4.480 -1.7653 -4.4634 -1.2979
19953TIP3   OH281273   2.290   2.426   5.722  0.3243 -0.3132 -0.1279
19953TIP3    H181274   2.217   2.403   5.780  2.3484 -2.1597  1.8888
19953TIP3    H281275   2.328   2.341   5.696  1.6232  0.5828 -1.2978
19954TIP3   OH281276   6.482   6.684   3.986  0.1970  0.0347  0.1310
19954TIP3    H181277   6.529   6.648   3.910 -0.2401 -1.2859  0.4573
19954TIP3    H281278   6.414   6.740   3.947  1.5005  1.3512 -0.3613
19955TIP3   OH281279   3.249   0.927   0.946 -0.4378 -0.0490 -0.4460
19955TIP3    H181280   3.202   0.986   0.887 -1.8267 -1.3222 -0.6654
19955TIP3    H281281   3.198   0.928   1.027  0.5562  0.4345  0.2012
19956TIP3   OH281282   2.422   0.328   2.430 -0.3642  0.0518 -0.4554
19956TIP3    H181283   2.467   0.392   2.375 -2.2412  1.5873 -0.3136
19956TIP3    H281284   2.410   0.372   2.514 -2.6019 -0.0221 -0.6722
19957TIP3   OH281285   4.020   7.123   5.546  0.1193 -0.2437 -0.3257
19957TIP3    H181286   4.066   7.069   5.610 -0.3499 -1.6456 -1.1331
19957TIP3    H281287   4.073   7.203   5.540  0.5662 -0.3850  1.2443
19958TIP3   OH281288   3.585   4.885   5.153 -0.7628  0.4136  0.0619
19958TIP3    H181289   3.608   4.964   5.104 -0.3843 -0.9671 -2.1098
19958TIP3    H281290   3.663   4.866   5.205 -0.8378  1.4265  0.5641
19959TIP3   OH281291   1.225   4.290   3.190  0.3039 -0.3770 -0.1876
19959TIP3    H181292   1.184   4.214   3.149  0.2607 -0.5867  0.2359
19959TIP3    H281293   1.171   4.309   3.266 -0.3381  0.7929 -0.9176
19960TIP3   OH281294   0.580   4.611   4.274 -0.3249  0.0330 -0.4033
19960TIP3    H181295   0.506   4.564   4.236  1.4078 -1.9046 -1.6259
19960TIP3    H281296   0.619   4.548   4.335 -1.2459  2.0166  2.4169
19961TIP3   OH281297   5.548   1.483   1.622 -0.5307  0.3767  0.1058
19961TIP3    H181298   5.532   1.516   1.710  2.4824  0.5240  0.7148
19961TIP3    H281299   5.491   1.407   1.613 -2.3209  1.4968  1.4031
19962TIP3   OH281300   4.013   2.175   2.370 -0.4435 -0.4949 -0.4183
19962TIP3    H181301   4.013   2.248   2.308 -0.5381 -0.1994 -0.0771
19962TIP3    H281302   4.050   2.102   2.321  0.9166  0.1249 -0.3699
19963TIP3   OH281303   3.318   0.675   5.073  0.1503  0.2709 -0.0696
19963TIP3    H181304   3.337   0.742   5.007  0.2660  0.0043 -0.3079
19963TIP3    H281305   3.382   0.691   5.143  0.8053 -0.1837 -0.5546
19964TIP3   OH281306   6.862   6.010   4.703  0.3055 -0.7894 -0.1280
19964TIP3    H181307   6.797   5.989   4.636 -0.4492 -1.6129  0.8325
19964TIP3    H281308   6.880   5.926   4.747  0.8705 -0.2936  0.6240
19965TIP3   OH281309   0.262   5.378  15.006 -0.1418 -0.0738 -0.1729
19965TIP3    H181310   0.205   5.367  14.930  0.1667  0.0020 -0.4172
19965TIP3    H281311   0.330   5.311  14.995 -1.7697 -2.1357  1.6123
19966TIP3   OH281312   6.983   2.364   4.192 -0.1253  0.2302 -0.4360
19966TIP3    H181313   7.061   2.419   4.202 -0.4568  0.6195  0.0533
19966TIP3    H281314   6.962   2.368   4.099  0.2538  0.3757 -0.5162
19967TIP3   OH281315   6.278   3.011   3.380 -0.4465 -0.5485 -0.0547
19967TIP3    H181316   6.365   2.974   3.363  0.3555  1.1018  0.3166
19967TIP3    H281317   6.269   3.006   3.475 -0.9667 -1.1131 -0.1242
19968TIP3   OH281318   6.422   0.352   4.697 -0.6420  0.5654  0.1119
19968TIP3    H181319   6.409   0.444   4.720 -1.9923  0.0973  1.4319
19968TIP3    H281320   6.333   0.317   4.686 -0.1878 -0.7122  0.2473
19969TIP3   OH281321   2.417   1.287   3.621 -0.4063  0.7034  0.2233
19969TIP3    H181322   2.491   1.334   3.582  0.6654 -0.4364  0.7675
19969TIP3    H281323   2.427   1.302   3.715  1.9799 -3.0953  0.8105
19970TIP3   OH281324   0.203   6.330   3.523  0.1723 -0.1105 -0.0642
19970TIP3    H181325   0.290   6.294   3.540  0.2706 -0.2109 -0.7662
19970TIP3    H281326   0.214   6.387   3.448 -0.4866 -0.6148 -0.5636
19971TIP3   OH281327   3.685   1.116   4.295  0.1768  0.4666 -0.2584
19971TIP3    H181328   3.618   1.098   4.229  2.0686  0.1003 -2.2010
19971TIP3    H281329   3.708   1.208   4.280  0.3290  0.5054  0.2036
19972TIP3   OH281330   1.924   1.854  12.411 -0.3821 -0.1982  0.8010
19972TIP3    H181331   1.853   1.891  12.358  0.8837  0.0964 -0.7606
19972TIP3    H281332   1.890   1.855  12.500 -1.5566  1.9138  0.3931
19973TIP3   OH281333   1.673   5.373   3.049  0.5108  0.2099 -0.1110
19973TIP3    H181334   1.676   5.379   2.954  0.3319 -0.2973 -0.1526
19973TIP3    H281335   1.738   5.437   3.080 -0.7972  1.8214 -0.5141
19974TIP3   OH281336   4.784   5.650   4.597  0.2394 -0.1706  0.1636
19974TIP3    H181337   4.769   5.677   4.688  2.3008 -0.3927  0.6157
19974TIP3    H281338   4.816   5.729   4.553  0.2959 -0.3267 -0.0802
19975TIP3   OH281339   4.587   3.742   2.460  0.6892  0.1862 -0.2554
19975TIP3    H181340   4.518   3.728   2.396 -0.1459  0.2064  0.6235
19975TIP3    H281341   4.560   3.820   2.508  0.8182 -0.3625  0.7316
19976TIP3   OH281342   4.769   6.569   3.523 -0.1607  0.0786 -0.2573
19976TIP3    H181343   4.830   6.595   3.455 -2.5479  2.6094 -1.6568
19976TIP3    H281344   4.703   6.517   3.477 -1.9754  2.0862 -0.0800
19977TIP3   OH281345   3.308   0.077  11.791 -0.1343 -0.1873 -0.0043
19977TIP3    H181346   3.305   0.042  11.702  0.6206  0.4151 -0.2782
19977TIP3    H281347   3.285   0.170  11.781 -2.5956 -0.6410  0.7715
19978TIP3   OH281348   4.070   1.316   2.488  0.3943  0.2105 -0.3389
19978TIP3    H181349   4.063   1.300   2.582 -3.4057 -2.9799 -0.9116
19978TIP3    H281350   4.160   1.291   2.466 -0.0353 -3.9917  1.8256
19979TIP3   OH281351   1.846   3.254   0.764 -0.3085  0.4401 -0.2573
19979TIP3    H181352   1.796   3.196   0.706 -0.8052  0.2024  0.3767
19979TIP3    H281353   1.937   3.226   0.755 -0.6811 -1.4005  1.0354
19980TIP3   OH281354   5.369   3.508   1.531  0.1891 -0.4468 -0.2282
19980TIP3    H181355   5.291   3.457   1.552  0.9347 -0.6090  2.5869
19980TIP3    H281356   5.337   3.581   1.478 -1.8704 -0.4914  0.8735
19981TIP3   OH281357   2.773   3.330   5.036 -0.4853 -0.3209  0.2080
19981TIP3    H181358   2.773   3.391   4.963  2.3542  0.9972  1.1812
19981TIP3    H281359   2.686   3.340   5.075 -1.8213 -0.5836 -2.5024
19982TIP3   OH281360   3.702   4.737   4.854  0.1445  0.4430 -0.0630
19982TIP3    H181361   3.722   4.827   4.881  0.8185  0.2620  0.0693
19982TIP3    H281362   3.612   4.741   4.821  0.3425  1.2679 -0.5273
19983TIP3   OH281363   7.106   2.249  13.170  0.4515 -0.1919  0.6089
19983TIP3    H181364   7.130   2.189  13.099 -0.5800 -0.8771  0.8077
19983TIP3    H281365   7.112   2.195  13.249  1.2755  0.4791  1.0101
19984TIP3   OH281366   2.290   3.233   2.632 -0.0049  0.5033  0.2173
19984TIP3    H181367   2.250   3.168   2.690  0.7796  0.7867  1.1091
19984TIP3    H281368   2.337   3.182   2.566  0.4558  0.1553  0.8067
19985TIP3   OH281369   6.189   2.764   1.981  0.2786 -0.3468 -0.2397
19985TIP3    H181370   6.133   2.816   1.923 -1.7357 -0.4568  1.4451
19985TIP3    H281371   6.145   2.679   1.986  0.9862 -0.6778  0.5942
19986TIP3   OH281372   0.511   1.491   2.813  0.1807 -0.0904 -0.0750
19986TIP3    H181373   0.535   1.534   2.731  0.6358  1.0488  0.6267
19986TIP3    H281374   0.525   1.558   2.880  0.0696 -1.0784  0.9665
19987TIP3   OH281375   0.169   2.727   4.697 -0.3668 -0.2937 -0.1497
19987TIP3    H181376   0.078   2.758   4.702  0.5386  2.5782  0.3386
19987TIP3    H281377   0.209   2.782   4.630  1.3454 -0.5762  0.5887
19988TIP3   OH281378   5.357   3.243   2.489  0.7282 -0.1731  0.0599
19988TIP3    H181379   5.345   3.197   2.406 -0.2842  0.7172 -0.3193
19988TIP3    H281380   5.416   3.316   2.468  1.7046 -0.8234  0.4826
19989TIP3   OH281381   3.389   2.224  12.487  0.0439 -0.1751 -0.0195
19989TIP3    H181382   3.396   2.170  12.566 -2.8088 -0.6204  0.0579
19989TIP3    H281383   3.362   2.310  12.520 -0.9030 -0.2926 -0.4593
19990TIP3   OH281384   5.695   1.652  15.148 -0.6780  0.4430  0.2955
19990TIP3    H181385   5.605   1.640  15.119  0.3078 -0.2346 -3.0219
19990TIP3    H281386   5.699   1.608  15.233 -3.6288  1.3160  0.9999
19991TIP3   OH281387   2.302   1.123   4.230 -0.0400 -0.1822  0.1712
19991TIP3    H181388   2.253   1.053   4.187 -0.7227 -0.1329  0.8618
19991TIP3    H281389   2.307   1.096   4.322 -0.1252  0.5744  0.4029
19992TIP3   OH281390   6.541   2.970   3.260 -0.0958  0.2882  0.3477
19992TIP3    H181391   6.514   2.881   3.238  0.6393  0.4326 -1.2182
19992TIP3    H281392   6.607   2.959   3.329  0.1011 -0.3827  0.0539
19993TIP3   OH281393   2.799   0.143   1.606  0.2375 -0.3644 -0.2618
19993TIP3    H181394   2.830   0.095   1.682 -1.3046  1.0532  1.3528
19993TIP3    H281395   2.873   0.196   1.578  0.3111  0.4935  1.4527
19994TIP3   OH281396   6.120   0.642   0.729  0.8057 -0.3858 -0.4508
19994TIP3    H181397   6.153   0.557   0.759  0.4187 -0.5281 -0.4265
19994TIP3    H281398   6.140   0.702   0.801 -1.7507 -1.0792  0.9259
19995TIP3   OH281399   7.074   3.256   1.239  0.4484  0.5475  0.4816
19995TIP3    H181400   6.991   3.295   1.264  0.1803  1.2589 -1.3785
19995TIP3    H281401   7.106   3.310   1.167  0.7556 -1.7671 -1.2716
19996TIP3   OH281402   3.095   3.263   3.952 -0.0094 -0.4958 -0.1824
19996TIP3    H181403   3.129   3.177   3.978  0.0670 -0.6642 -0.8303
19996TIP3    H281404   3.162   3.300   3.895  0.9010  0.8803  1.6765
   7.16366   7.16366  15.49371
